<event>
 9    1  0.1713970E-005  0.1339977E+03  0.7546771E-02  0.1225541E+00
          1   -1    0    0  502    0  0.00000000000E+00  0.00000000000E+00  0.15292900304E+03  0.15292900304E+03  0.00000000000E+00 0. -1.
         -1   -1    0    0    0  501 -0.00000000000E+00 -0.00000000000E+00 -0.22868166523E+03  0.22868166523E+03  0.00000000000E+00 0.  1.
         23    2    1    2    0    0 -0.11307756585E+03 -0.48565866308E+02  0.16357938658E+02  0.15430459044E+03  0.91635938396E+02 0.  0.
         23    2    1    2    0    0  0.41376192733E+02  0.19951241043E+02 -0.11167727474E+02  0.11545066921E+03  0.10532852197E+03 0.  0.
        -13    1    4    4    0    0 -0.18113243762E+02  0.19158760703E+02  0.32354140135E+02  0.41736531901E+02  0.00000000000E+00 0. -1.
         13    1    4    4    0    0  0.59489436495E+02  0.79248034064E+00 -0.43521867609E+02  0.73714137313E+02  0.00000000000E+00 0.  1.
        -13    1    3    3    0    0 -0.78950537288E+02 -0.74690860821E+02  0.10702329817E+01  0.10868788997E+03  0.00000000000E+00 0. -1.
         13    1    3    3    0    0 -0.34127028565E+02  0.26124994513E+02  0.15287705676E+02  0.45616700471E+02  0.00000000000E+00 0.  1.
         21    1    1    2  502  501  0.71701373120E+02  0.28614625265E+02 -0.80942873371E+02  0.11185540861E+03  0.00000000000E+00 0.  1.
<scales pt_clust_5="13000.00000" pt_clust_6="13000.00000" pt_clust_7="13000.00000" pt_clust_8="13000.00000" pt_clust_9="77.20028"></scales>
<clustering>
<clus scale="   77.200">  2  9  1 -1</clus>
<clus scale="   91.636">  7  8 -1 -1</clus>
<clus scale="  105.329">  5  6 -1 -1</clus>
<clus scale="  123.525">  2  7  1 -1</clus>
<clus scale="  133.998">  1  5  2 -1</clus>
</clustering>
</event>
<event>
 9    1  0.1713970E-005  0.1025516E+03  0.7546771E-02  0.1275577E+00
         -2   -1    0    0    0  501 -0.00000000000E+00  0.00000000000E+00  0.25318085153E+03  0.25318085153E+03  0.00000000000E+00 0.  1.
          2   -1    0    0  502    0  0.00000000000E+00 -0.00000000000E+00 -0.12730468692E+03  0.12730468692E+03  0.00000000000E+00 0. -1.
         23    2    1    2    0    0  0.21598640302E+02  0.71655258801E+02  0.16942959144E+03  0.20619946536E+03  0.90613772035E+02 0.  0.
         23    2    1    2    0    0 -0.27608330843E+01 -0.41848463291E+02 -0.76002500846E+02  0.12636686564E+03  0.91832938081E+02 0.  0.
        -13    1    3    3    0    0  0.22336973515E+02  0.13929203122E+02 -0.91294048176E+00  0.26340017953E+02  0.00000000000E+00 0. -1.
         13    1    3    3    0    0 -0.73833321277E+00  0.57726055679E+02  0.17034253192E+03  0.17985944740E+03  0.00000000000E+00 0.  1.
        -13    1    4    4    0    0 -0.32539073907E+02  0.17275292377E+01  0.14776060409E+01  0.32618384503E+02  0.00000000000E+00 0.  1.
         13    1    4    4    0    0  0.29778240823E+02 -0.43575992529E+02 -0.77480106887E+02  0.93748481132E+02  0.00000000000E+00 0. -1.
         21    1    1    2  502  501 -0.18837807218E+02 -0.29806795510E+02  0.32449074020E+02  0.47919207465E+02  0.00000000000E+00 0.  1.
<scales pt_clust_5="13000.00000" pt_clust_6="13000.00000" pt_clust_7="13000.00000" pt_clust_8="13000.00000" pt_clust_9="35.26057"></scales>
<clustering>
<clus scale="   35.261">  1  9  2 -1</clus>
<clus scale="   90.614">  5  6 -1 -1</clus>
<clus scale="   91.833">  7  8 -1 -1</clus>
<clus scale="  101.461">  1  5  2 -1</clus>
<clus scale="  102.552">  2  5  1 -1</clus>
</clustering>
</event>
<event>
 9    1  0.1713970E-005  0.9419997E+02  0.7546771E-02  0.1293260E+00
         -3   -1    0    0    0  501 -0.00000000000E+00  0.00000000000E+00  0.24967246003E+03  0.24967246003E+03  0.00000000000E+00 0.  1.
          3   -1    0    0  502    0  0.00000000000E+00 -0.00000000000E+00 -0.65112154360E+02  0.65112154360E+02  0.00000000000E+00 0. -1.
         23    2    1    2    0    0  0.13010719855E+02  0.20032389581E+02  0.36861790879E+02  0.10230134800E+03  0.92391551084E+02 0.  0.
         23    2    1    2    0    0 -0.11671292843E+02  0.49617649458E+00  0.38253301781E+02  0.10112137551E+03  0.92874927836E+02 0.  0.
        -11    1    3    3    0    0  0.45124815205E+02  0.51011492755E+01 -0.69763677211E+01  0.45944971192E+02  0.00000000000E+00 0.  1.
         11    1    3    3    0    0 -0.32114095350E+02  0.14931240306E+02  0.43838158601E+02  0.56356376806E+02  0.00000000000E+00 0. -1.
        -13    1    4    4    0    0 -0.32848488327E+02 -0.34233412011E+02  0.37437751913E+02  0.60436205635E+02  0.00000000000E+00 0.  1.
         13    1    4    4    0    0  0.21177195484E+02  0.34729588506E+02  0.81554986803E+00  0.40685169877E+02  0.00000000000E+00 0. -1.
         21    1    1    2  502  501 -0.13394270121E+01 -0.20528566076E+02  0.10944521301E+03  0.11136189088E+03  0.00000000000E+00 0.  1.
<scales pt_clust_5="13000.00000" pt_clust_6="13000.00000" pt_clust_7="13000.00000" pt_clust_8="13000.00000" pt_clust_9="20.57222"></scales>
<clustering>
<clus scale="   20.572">  1  9  2 -1</clus>
<clus scale="   92.392">  5  6 -1 -1</clus>
<clus scale="   92.875">  7  8 -1 -1</clus>
<clus scale="   93.723">  1  5  2 -1</clus>
<clus scale="   94.200">  2  5  1 -1</clus>
</clustering>
</event>
<event>
 9    1  0.1713970E-005  0.1063416E+03  0.7546771E-02  0.1272662E+00
          1   -1    0    0  502    0  0.00000000000E+00  0.00000000000E+00  0.36044364969E+02  0.36044364969E+02  0.00000000000E+00 0. -1.
         -1   -1    0    0    0  501 -0.00000000000E+00 -0.00000000000E+00 -0.67127255436E+03  0.67127255436E+03  0.00000000000E+00 0.  1.
         23    2    1    2    0    0 -0.34504087047E+02  0.40599321205E+02 -0.28983796768E+03  0.30985026999E+03  0.95719932083E+02 0.  0.
         23    2    1    2    0    0 -0.15566517819E+01  0.19945387448E+02 -0.11979924644E+03  0.16112510252E+03  0.10587349795E+03 0.  0.
        -11    1    3    3    0    0  0.52084148367E+00 -0.22262425050E+02 -0.17955081775E+02  0.28605450643E+02  0.00000000000E+00 0.  1.
         11    1    3    3    0    0 -0.35024928531E+02  0.62861746255E+02 -0.27188288591E+03  0.28124481935E+03  0.00000000000E+00 0. -1.
        -13    1    4    4    0    0 -0.40595356435E+02  0.44921236773E+02 -0.77778249982E+02  0.98566508752E+02  0.00000000000E+00 0.  1.
         13    1    4    4    0    0  0.39038704653E+02 -0.24975849325E+02 -0.42020996458E+02  0.62558593765E+02  0.00000000000E+00 0. -1.
         21    1    1    2  502  501  0.36060738829E+02 -0.60544708653E+02 -0.22559097527E+03  0.23634154682E+03  0.00000000000E+00 0.  1.
<scales pt_clust_5="13000.00000" pt_clust_6="13000.00000" pt_clust_7="13000.00000" pt_clust_8="13000.00000" pt_clust_9="70.47013"></scales>
<clustering>
<clus scale="   70.470">  2  9  1 -1</clus>
<clus scale="   95.720">  5  6 -1 -1</clus>
<clus scale="   96.237">  2  5  1 -1</clus>
<clus scale="  105.873">  7  8 -1 -1</clus>
<clus scale="  106.342">  1  5  2 -1</clus>
</clustering>
</event>
<event>
 9    1  0.2144360E-005  0.1019838E+03  0.7546771E-02  0.1278472E+00
         -1   -1    0    0    0  501 -0.00000000000E+00  0.00000000000E+00  0.43822082962E+03  0.43822082962E+03  0.00000000000E+00 0.  1.
          1   -1    0    0  502    0  0.00000000000E+00 -0.00000000000E+00 -0.14233403388E+03  0.14233403388E+03  0.00000000000E+00 0. -1.
         23    2    1    2    0    0 -0.64958665119E+02  0.34310034164E+02  0.34406535599E+03  0.36236403650E+03  0.86775106644E+02 0.  0.
         23    2    1    2    0    0  0.35400252199E+02 -0.24605387521E+02 -0.10965919087E+03  0.14928692377E+03  0.91667030679E+02 0.  0.
        -11    1    4    4    0    0  0.44301435862E+02 -0.53901452623E+02 -0.85035129390E+02  0.10999525919E+03  0.00000000000E+00 0.  1.
         11    1    4    4    0    0 -0.89011836629E+01  0.29296065102E+02 -0.24624061483E+02  0.39291664574E+02  0.00000000000E+00 0. -1.
        -13    1    3    3    0    0  0.20393802335E+02 -0.13017088075E+01  0.47405980576E+02  0.51622946583E+02  0.00000000000E+00 0. -1.
         13    1    3    3    0    0 -0.85352467454E+02  0.35611742971E+02  0.29665937542E+03  0.31074108992E+03  0.00000000000E+00 0.  1.
         21    1    1    2  502  501  0.29558412920E+02 -0.97046466428E+01  0.61480630611E+02  0.68903903236E+02  0.00000000000E+00 0.  1.
<scales pt_clust_5="13000.00000" pt_clust_6="13000.00000" pt_clust_7="13000.00000" pt_clust_8="13000.00000" pt_clust_9="31.11077"></scales>
<clustering>
<clus scale="   31.111">  1  9  2 -1</clus>
<clus scale="   86.775">  7  8 -1 -1</clus>
<clus scale="   91.667">  5  6 -1 -1</clus>
<clus scale="   97.610">  1  7  2 -1</clus>
<clus scale="  101.984">  2  5  1 -1</clus>
</clustering>
</event>
<event>
 9    1  0.1713970E-005  0.1629142E+03  0.7546771E-02  0.1208758E+00
          2   -1    0    0  502    0  0.00000000000E+00  0.00000000000E+00  0.13441222359E+04  0.13441222359E+04  0.00000000000E+00 0. -1.
         -2   -1    0    0    0  501 -0.00000000000E+00 -0.00000000000E+00 -0.29494300726E+02  0.29494300726E+02  0.00000000000E+00 0.  1.
         23    2    1    2    0    0 -0.12712975721E+03 -0.83739081594E+02  0.52133793101E+03  0.55126973090E+03  0.94503274818E+02 0.  0.
         23    2    1    2    0    0  0.28708542307E+02  0.18799612004E+02  0.39569369564E+03  0.40763401980E+03  0.91729970646E+02 0.  0.
        -11    1    3    3    0    0 -0.52203775019E+02 -0.48997543143E+02  0.38706246426E+03  0.39362843469E+03  0.00000000000E+00 0. -1.
         11    1    3    3    0    0 -0.74925982191E+02 -0.34741538451E+02  0.13427546675E+03  0.15764129621E+03  0.00000000000E+00 0.  1.
        -13    1    4    4    0    0 -0.96864000680E+01  0.47790688571E+02  0.22912975915E+03  0.23426101423E+03  0.00000000000E+00 0. -1.
         13    1    4    4    0    0  0.38394942375E+02 -0.28991076567E+02  0.16656393650E+03  0.17337300557E+03  0.00000000000E+00 0.  1.
         21    1    1    2  502  501  0.98421214904E+02  0.64939469590E+02  0.39759630854E+03  0.41471278593E+03  0.00000000000E+00 0. -1.
<scales pt_clust_5="13000.00000" pt_clust_6="13000.00000" pt_clust_7="13000.00000" pt_clust_8="13000.00000" pt_clust_9="132.70326"></scales>
<clustering>
<clus scale="   91.730">  7  8 -1 -1</clus>
<clus scale="   94.503">  5  6 -1 -1</clus>
<clus scale="   97.939">  1  7  2 -1</clus>
<clus scale="  132.703">  2  9  1 -1</clus>
<clus scale="   97.939">  1  5  2 -1</clus>
</clustering>
</event>
<event>
 9    1  0.1713970E-005  0.1036050E+03  0.7546771E-02  0.1273430E+00
          1   -1    0    0  502    0  0.00000000000E+00  0.00000000000E+00  0.23454480343E+03  0.23454480343E+03  0.00000000000E+00 0. -1.
         -1   -1    0    0    0  501 -0.00000000000E+00 -0.00000000000E+00 -0.11494380507E+03  0.11494380507E+03  0.00000000000E+00 0.  1.
         23    2    1    2    0    0 -0.57069539893E+02  0.13211299272E+02  0.49527100468E+02  0.11787829737E+03  0.89503566963E+02 0.  0.
         23    2    1    2    0    0  0.46422913905E+02  0.51635503033E+01  0.13159794969E+03  0.16652425509E+03  0.90722422728E+02 0.  0.
        -11    1    4    4    0    0  0.64359813425E+02 -0.98124901436E+01  0.51273543317E+02  0.82870059679E+02  0.00000000000E+00 0. -1.
         11    1    4    4    0    0 -0.17936899520E+02  0.14976040447E+02  0.80324406368E+02  0.83654195413E+02  0.00000000000E+00 0.  1.
        -11    1    3    3    0    0 -0.69703392116E+02 -0.95688744606E+01  0.10764035170E+02  0.71175773154E+02  0.00000000000E+00 0.  1.
         11    1    3    3    0    0  0.12633852223E+02  0.22780173732E+02  0.38763065298E+02  0.46702524220E+02  0.00000000000E+00 0. -1.
         21    1    1    2  502  501  0.10646625988E+02 -0.18374849575E+02 -0.61524051786E+02  0.65086056034E+02  0.00000000000E+00 0.  1.
<scales pt_clust_5="13000.00000" pt_clust_6="13000.00000" pt_clust_7="13000.00000" pt_clust_8="13000.00000" pt_clust_9="21.23642"></scales>
<clustering>
<clus scale="   21.236">  2  9  1 -1</clus>
<clus scale="   89.504">  7  8 -1 -1</clus>
<clus scale="   90.722">  5  6 -1 -1</clus>
<clus scale="  102.539">  2  7  1 -1</clus>
<clus scale="  103.605">  1  5  2 -1</clus>
</clustering>
</event>
<event>
 9    1  0.1713970E-005  0.2361958E+03  0.7546771E-02  0.1123203E+00
          1   -1    0    0  502    0  0.00000000000E+00  0.00000000000E+00  0.47687991977E+03  0.47687991977E+03  0.00000000000E+00 0. -1.
         -1   -1    0    0    0  501 -0.00000000000E+00 -0.00000000000E+00 -0.14350240922E+03  0.14350240922E+03  0.00000000000E+00 0.  1.
         23    2    1    2    0    0  0.16773531034E+03  0.14394276758E+03  0.52873871997E+02  0.24950340627E+03  0.10296430802E+03 0.  0.
         23    2    1    2    0    0 -0.14845852372E+03 -0.12755589700E+03  0.26230303608E+03  0.33971185741E+03  0.91053957633E+02 0.  0.
        -11    1    3    3    0    0  0.10083459245E+03  0.14067347745E+03  0.18070906636E+02  0.17402068831E+03  0.00000000000E+00 0.  1.
         11    1    3    3    0    0  0.66900717891E+02  0.32692901245E+01  0.34802965362E+02  0.75482717957E+02  0.00000000000E+00 0. -1.
        -11    1    4    4    0    0 -0.15245144455E+03 -0.88024100323E+02  0.21796132864E+03  0.28017285016E+03  0.00000000000E+00 0. -1.
         11    1    4    4    0    0  0.39929208315E+01 -0.39531796677E+02  0.44341707440E+02  0.59539007247E+02  0.00000000000E+00 0.  1.
         21    1    1    2  502  501 -0.19276786618E+02 -0.16386870579E+02  0.18200602476E+02  0.31167065312E+02  0.00000000000E+00 0. -1.
<scales pt_clust_5="13000.00000" pt_clust_6="13000.00000" pt_clust_7="13000.00000" pt_clust_8="13000.00000" pt_clust_9="25.30067"></scales>
<clustering>
<clus scale="   25.301">  1  9  2 -1</clus>
<clus scale="   91.054">  7  8 -1 -1</clus>
<clus scale="  102.964">  5  6 -1 -1</clus>
<clus scale="  231.252">  1  7  2 -1</clus>
<clus scale="   25.301">  1  5  2 -1</clus>
</clustering>
</event>
<event>
 9    1  0.1713970E-005  0.1005758E+03  0.7546771E-02  0.1280768E+00
         -2   -1    0    0    0  501 -0.00000000000E+00  0.00000000000E+00  0.50616260969E+03  0.50616260969E+03  0.00000000000E+00 0.  1.
          2   -1    0    0  502    0  0.00000000000E+00 -0.00000000000E+00 -0.30480119900E+02  0.30480119900E+02  0.00000000000E+00 0. -1.
         23    2    1    2    0    0  0.25221853378E+02 -0.50380276306E+02  0.17722536556E+03  0.20656810977E+03  0.89929081198E+02 0.  0.
         23    2    1    2    0    0  0.40711076925E+01  0.22490302558E+02  0.16861948681E+03  0.19408292782E+03  0.93344865484E+02 0.  0.
        -11    1    3    3    0    0 -0.16823816692E+02 -0.60563685950E+02  0.10432458458E+03  0.12179745404E+03  0.00000000000E+00 0.  1.
         11    1    3    3    0    0  0.42045670070E+02  0.10183409644E+02  0.72900780985E+02  0.84770655724E+02  0.00000000000E+00 0. -1.
        -13    1    4    4    0    0  0.75395906866E+01 -0.35892286839E+02  0.52169232787E+02  0.63770922306E+02  0.00000000000E+00 0.  1.
         13    1    4    4    0    0 -0.34684829941E+01  0.58382589397E+02  0.11645025402E+03  0.13031200551E+03  0.00000000000E+00 0. -1.
         21    1    1    2  502  501 -0.29292961071E+02  0.27889973748E+02  0.12983763742E+03  0.13599169200E+03  0.00000000000E+00 0.  1.
<scales pt_clust_5="13000.00000" pt_clust_6="13000.00000" pt_clust_7="13000.00000" pt_clust_8="13000.00000" pt_clust_9="40.44661"></scales>
<clustering>
<clus scale="   40.447">  1  9  2 -1</clus>
<clus scale="   89.929">  5  6 -1 -1</clus>
<clus scale="   93.345">  7  8 -1 -1</clus>
<clus scale="   97.414">  1  5  2 -1</clus>
<clus scale="  100.576">  2  5  1 -1</clus>
</clustering>
</event>
<event>
 9    1  0.1713970E-005  0.1135969E+03  0.7546771E-02  0.1259513E+00
         -2   -1    0    0    0  501 -0.00000000000E+00  0.00000000000E+00  0.40354156679E+02  0.40354156679E+02  0.00000000000E+00 0.  1.
          2   -1    0    0  502    0  0.00000000000E+00 -0.00000000000E+00 -0.38855730933E+03  0.38855730933E+03  0.00000000000E+00 0. -1.
         23    2    1    2    0    0  0.47810572087E+02  0.69168803319E+01 -0.12245250529E+03  0.15968205519E+03  0.90388321477E+02 0.  0.
         23    2    1    2    0    0 -0.37923239511E+02 -0.32138766168E+02 -0.20580171972E+03  0.23558624533E+03  0.10332211168E+03 0.  0.
        -11    1    3    3    0    0  0.21901749572E+02 -0.33006825514E+02 -0.15352869549E+02  0.42483499952E+02  0.00000000000E+00 0.  1.
         11    1    3    3    0    0  0.25908822515E+02  0.39923705846E+02 -0.10709963574E+03  0.11719855523E+03  0.00000000000E+00 0. -1.
        -13    1    4    4    0    0 -0.16919624943E+02  0.26477191948E+02 -0.14568732209E+03  0.14903728131E+03  0.00000000000E+00 0. -1.
         13    1    4    4    0    0 -0.21003614567E+02 -0.58615958116E+02 -0.60114397635E+02  0.86548964024E+02  0.00000000000E+00 0.  1.
         21    1    1    2  502  501 -0.98873325768E+01  0.25221885836E+02 -0.19948927636E+02  0.33643165493E+02  0.00000000000E+00 0. -1.
<scales pt_clust_5="13000.00000" pt_clust_6="13000.00000" pt_clust_7="13000.00000" pt_clust_8="13000.00000" pt_clust_9="27.09064"></scales>
<clustering>
<clus scale="   27.091">  1  9  2 -1</clus>
<clus scale="   90.388">  5  6 -1 -1</clus>
<clus scale="  101.975">  1  5  2 -1</clus>
<clus scale="  103.322">  7  8 -1 -1</clus>
<clus scale="  113.597">  2  5  1 -1</clus>
</clustering>
</event>
<event>
 9    1  0.1713970E-005  0.1697718E+03  0.7546771E-02  0.1178202E+00
         -2   -1    0    0    0  501 -0.00000000000E+00  0.00000000000E+00  0.24925208519E+03  0.24925208519E+03  0.00000000000E+00 0.  1.
          2   -1    0    0  502    0  0.00000000000E+00 -0.00000000000E+00 -0.31806750932E+03  0.31806750932E+03  0.00000000000E+00 0. -1.
         23    2    1    2    0    0  0.21369604319E+02  0.13494644035E+03  0.20315980872E+02  0.16596786434E+03  0.92007560354E+02 0.  0.
         23    2    1    2    0    0 -0.54811564796E+02 -0.13409251315E+03 -0.21256289741E+03  0.27346730097E+03  0.92823863456E+02 0.  0.
        -11    1    3    3    0    0 -0.25338112967E+02  0.54820429002E+02 -0.21667530692E+02  0.64162148429E+02  0.00000000000E+00 0. -1.
         11    1    3    3    0    0  0.46707717286E+02  0.80126011345E+02  0.41983511564E+02  0.10180571591E+03  0.00000000000E+00 0.  1.
        -13    1    4    4    0    0 -0.51135434755E+02 -0.15807158772E+02 -0.60408580457E+02  0.80708708011E+02  0.00000000000E+00 0. -1.
         13    1    4    4    0    0 -0.36761300408E+01 -0.11828535438E+03 -0.15215431695E+03  0.19275859296E+03  0.00000000000E+00 0.  1.
         21    1    1    2  502  501  0.33441960477E+02 -0.85392719895E+00  0.12343149241E+03  0.12788442920E+03  0.00000000000E+00 0.  1.
<scales pt_clust_5="13000.00000" pt_clust_6="13000.00000" pt_clust_7="13000.00000" pt_clust_8="13000.00000" pt_clust_9="33.45286"></scales>
<clustering>
<clus scale="   33.453">  1  9  2 -1</clus>
<clus scale="   92.008">  5  6 -1 -1</clus>
<clus scale="   92.824">  7  8 -1 -1</clus>
<clus scale="  169.327">  1  5  2 -1</clus>
<clus scale="  169.772">  2  5  1 -1</clus>
</clustering>
</event>
<event>
 9    1  0.1713970E-005  0.1029206E+03  0.7546771E-02  0.1274370E+00
         -2   -1    0    0    0  501 -0.00000000000E+00  0.00000000000E+00  0.13791107245E+03  0.13791107245E+03  0.00000000000E+00 0.  1.
          2   -1    0    0  502    0  0.00000000000E+00 -0.00000000000E+00 -0.12768148584E+03  0.12768148584E+03  0.00000000000E+00 0. -1.
         23    2    1    2    0    0  0.37431388019E+02 -0.25128412947E+02  0.18735588418E+02  0.10166325023E+03  0.89173136244E+02 0.  0.
         23    2    1    2    0    0 -0.21478984875E+02  0.54303070045E+02 -0.44134235532E+02  0.11519522531E+03  0.88949080831E+02 0.  0.
        -11    1    3    3    0    0  0.16922545345E+02 -0.33570938012E+02  0.50478333640E+02  0.62939991953E+02  0.00000000000E+00 0.  1.
         11    1    3    3    0    0  0.20508842674E+02  0.84425250649E+01 -0.31742745222E+02  0.38723258276E+02  0.00000000000E+00 0. -1.
        -11    1    4    4    0    0  0.25103658936E+02 -0.43160488605E+01  0.45637652364E+01  0.25877594998E+02  0.00000000000E+00 0.  1.
         11    1    4    4    0    0 -0.46582643812E+02  0.58619118905E+02 -0.48698000769E+02  0.89317630312E+02  0.00000000000E+00 0. -1.
         21    1    1    2  502  501 -0.15952403144E+02 -0.29174657097E+02  0.35628233726E+02  0.48734082748E+02  0.00000000000E+00 0.  1.
<scales pt_clust_5="13000.00000" pt_clust_6="13000.00000" pt_clust_7="13000.00000" pt_clust_8="13000.00000" pt_clust_9="33.25116"></scales>
<clustering>
<clus scale="   33.251">  1  9  2 -1</clus>
<clus scale="   88.949">  7  8 -1 -1</clus>
<clus scale="   89.173">  5  6 -1 -1</clus>
<clus scale="  102.727">  2  7  1 -1</clus>
<clus scale="  102.727">  2  5  1 -1</clus>
</clustering>
</event>
<event>
 9    1  0.1713970E-005  0.1426819E+03  0.7546771E-02  0.1210088E+00
         -1   -1    0    0    0  501 -0.00000000000E+00  0.00000000000E+00  0.68649291004E+02  0.68649291004E+02  0.00000000000E+00 0.  1.
          1   -1    0    0  502    0  0.00000000000E+00 -0.00000000000E+00 -0.40716953197E+03  0.40716953197E+03  0.00000000000E+00 0. -1.
         23    2    1    2    0    0 -0.99938578305E+02  0.54413262497E+02 -0.12025872227E+03  0.18957041179E+03  0.92337739707E+02 0.  0.
         23    2    1    2    0    0  0.78578645708E+02 -0.72694381769E+02 -0.21656331472E+03  0.25808229788E+03  0.90816994525E+02 0.  0.
        -11    1    3    3    0    0  0.42526734185E+01  0.32950020123E+02 -0.56509786244E+02  0.65552612447E+02  0.00000000000E+00 0.  1.
         11    1    3    3    0    0 -0.10419125172E+03  0.21463242373E+02 -0.63748936029E+02  0.12401779934E+03  0.00000000000E+00 0. -1.
        -13    1    4    4    0    0  0.90815221589E+01  0.20357575275E+02 -0.20959816482E+02  0.30597693095E+02  0.00000000000E+00 0.  1.
         13    1    4    4    0    0  0.69497123549E+02 -0.93051957044E+02 -0.19560349823E+03  0.22748460478E+03  0.00000000000E+00 0. -1.
         21    1    1    2  502  501  0.21359932597E+02  0.18281119272E+02 -0.16982039822E+01  0.28166113313E+02  0.00000000000E+00 0. -1.
<scales pt_clust_5="13000.00000" pt_clust_6="13000.00000" pt_clust_7="13000.00000" pt_clust_8="13000.00000" pt_clust_9="28.11487"></scales>
<clustering>
<clus scale="   28.115">  1  9  2 -1</clus>
<clus scale="   90.817">  7  8 -1 -1</clus>
<clus scale="   92.338">  5  6 -1 -1</clus>
<clus scale="  141.702">  2  7  1 -1</clus>
<clus scale="  141.702">  2  5  1 -1</clus>
</clustering>
</event>
<event>
 9    1  0.1713970E-005  0.3419358E+03  0.7546771E-02  0.1066032E+00
         -1   -1    0    0    0  501 -0.00000000000E+00  0.00000000000E+00  0.84098235315E+02  0.84098235315E+02  0.00000000000E+00 0.  1.
          1   -1    0    0  502    0  0.00000000000E+00 -0.00000000000E+00 -0.16393513822E+04  0.16393513822E+04  0.00000000000E+00 0. -1.
         23    2    1    2    0    0 -0.28445238307E+03  0.15618587572E+03 -0.56073823579E+03  0.65437192207E+03  0.92022047975E+02 0.  0.
         23    2    1    2    0    0  0.27040658540E+03 -0.19339573732E+03 -0.94086673377E+03  0.10022945751E+04  0.94034950457E+02 0.  0.
        -11    1    3    3    0    0 -0.13171639453E+03  0.71960425521E+02 -0.17188812158E+03  0.22819517473E+03  0.00000000000E+00 0. -1.
         11    1    3    3    0    0 -0.15273598854E+03  0.84225450197E+02 -0.38885011421E+03  0.42617674734E+03  0.00000000000E+00 0.  1.
        -13    1    4    4    0    0  0.18436301359E+03 -0.12148453504E+03 -0.48587392086E+03  0.53368687450E+03  0.00000000000E+00 0. -1.
         13    1    4    4    0    0  0.86043571807E+02 -0.71911202281E+02 -0.45499281291E+03  0.46860770060E+03  0.00000000000E+00 0.  1.
         21    1    1    2  502  501  0.14045797666E+02  0.37209861605E+02 -0.53648177314E+02  0.66783120336E+02  0.00000000000E+00 0.  1.
<scales pt_clust_5="13000.00000" pt_clust_6="13000.00000" pt_clust_7="13000.00000" pt_clust_8="13000.00000" pt_clust_9="39.77258"></scales>
<clustering>
<clus scale="   39.773">  1  9  2 -1</clus>
<clus scale="   92.022">  5  6 -1 -1</clus>
<clus scale="   94.035">  7  8 -1 -1</clus>
<clus scale="  341.388">  1  5  2 -1</clus>
<clus scale="  341.936">  2  5  1 -1</clus>
</clustering>
</event>
<event>
 9    1  0.1713970E-005  0.1015468E+03  0.7546771E-02  0.1277884E+00
         -1   -1    0    0    0  501 -0.00000000000E+00  0.00000000000E+00  0.13843680705E+03  0.13843680705E+03  0.00000000000E+00 0.  1.
          1   -1    0    0  502    0  0.00000000000E+00 -0.00000000000E+00 -0.20411470041E+03  0.20411470041E+03  0.00000000000E+00 0. -1.
         23    2    1    2    0    0  0.89835646005E+01  0.54646246391E+02  0.41081184477E+02  0.11457172107E+03  0.91499174166E+02 0.  0.
         23    2    1    2    0    0  0.13660692198E+02 -0.35976835403E+02 -0.14694919510E+03  0.17821479068E+03  0.93196021814E+02 0.  0.
        -11    1    4    4    0    0  0.43859763443E+02 -0.40689437490E+02 -0.54810085266E+02  0.81138490369E+02  0.00000000000E+00 0. -1.
         11    1    4    4    0    0 -0.30199071245E+02  0.47126020866E+01 -0.92139109830E+02  0.97076300314E+02  0.00000000000E+00 0.  1.
        -11    1    3    3    0    0  0.49590542701E+02  0.29100314766E+02  0.12882222791E+02  0.58923695648E+02  0.00000000000E+00 0. -1.
         11    1    3    3    0    0 -0.40606978100E+02  0.25545931625E+02  0.28198961686E+02  0.55648025421E+02  0.00000000000E+00 0.  1.
         21    1    1    2  502  501 -0.22644256799E+02 -0.18669410988E+02  0.40190117255E+02  0.49764995706E+02  0.00000000000E+00 0.  1.
<scales pt_clust_5="13000.00000" pt_clust_6="13000.00000" pt_clust_7="13000.00000" pt_clust_8="13000.00000" pt_clust_9="29.34807"></scales>
<clustering>
<clus scale="   29.348">  1  9  2 -1</clus>
<clus scale="   91.499">  7  8 -1 -1</clus>
<clus scale="   93.196">  5  6 -1 -1</clus>
<clus scale="   99.992">  1  7  2 -1</clus>
<clus scale="  101.547">  2  5  1 -1</clus>
</clustering>
</event>
<event>
 9    1  0.1713970E-005  0.1890586E+03  0.7546771E-02  0.1161090E+00
         -2   -1    0    0    0  501 -0.00000000000E+00  0.00000000000E+00  0.29472603710E+03  0.29472603710E+03  0.00000000000E+00 0.  1.
          2   -1    0    0  502    0  0.00000000000E+00 -0.00000000000E+00 -0.18665463427E+03  0.18665463427E+03  0.00000000000E+00 0. -1.
         23    2    1    2    0    0  0.16614397237E+03  0.10766183497E+03  0.11465442956E+03  0.24341946060E+03  0.83141477720E+02 0.  0.
         23    2    1    2    0    0 -0.12273606598E+03 -0.79499264173E+02 -0.33554066975E+02  0.17961042892E+03  0.98740852074E+02 0.  0.
        -11    1    3    3    0    0  0.17090713365E+03  0.85484090392E+02  0.10918208443E+03  0.22008522350E+03  0.00000000000E+00 0.  1.
         11    1    3    3    0    0 -0.47631612793E+01  0.22177744574E+02  0.54723451272E+01  0.23334237098E+02  0.00000000000E+00 0. -1.
        -11    1    4    4    0    0  0.13258174930E+02 -0.17540010096E+02 -0.19707863807E+02  0.29526785340E+02  0.00000000000E+00 0.  1.
         11    1    4    4    0    0 -0.13599424091E+03 -0.61959254077E+02 -0.13846203167E+02  0.15008364358E+03  0.00000000000E+00 0. -1.
         21    1    1    2  502  501 -0.43407906388E+02 -0.28162570793E+02  0.26971040248E+02  0.58350781852E+02  0.00000000000E+00 0. -1.
<scales pt_clust_5="13000.00000" pt_clust_6="13000.00000" pt_clust_7="13000.00000" pt_clust_8="13000.00000" pt_clust_9="51.74337"></scales>
<clustering>
<clus scale="   51.743">  1  9  2 -1</clus>
<clus scale="   83.141">  5  6 -1 -1</clus>
<clus scale="   98.741">  7  8 -1 -1</clus>
<clus scale="  181.400">  1  5  2 -1</clus>
<clus scale="  189.059">  2  5  1 -1</clus>
</clustering>
</event>
<event>
 9    1  0.1713970E-005  0.1010179E+03  0.7546771E-02  0.1280686E+00
          2   -1    0    0  502    0  0.00000000000E+00  0.00000000000E+00  0.26889427170E+03  0.26889427170E+03  0.00000000000E+00 0. -1.
         -2   -1    0    0    0  501 -0.00000000000E+00 -0.00000000000E+00 -0.71128409079E+02  0.71128409079E+02  0.00000000000E+00 0.  1.
         23    2    1    2    0    0 -0.31774886970E+02 -0.14055309159E+01  0.99113574502E+02  0.13763841510E+03  0.90051172679E+02 0.  0.
         23    2    1    2    0    0  0.32686189561E+02 -0.22886982813E+02  0.12793780304E+03  0.16432381271E+03  0.95089605142E+02 0.  0.
        -11    1    4    4    0    0 -0.96171796625E+01  0.31227539627E+02  0.27847156164E+02  0.42931497554E+02  0.00000000000E+00 0. -1.
         11    1    4    4    0    0  0.42303369224E+02 -0.54114522440E+02  0.10009064688E+03  0.12139231516E+03  0.00000000000E+00 0.  1.
        -13    1    3    3    0    0 -0.27831846903E+02 -0.35750638136E+02  0.16733130452E+02  0.48298214086E+02  0.00000000000E+00 0.  1.
         13    1    3    3    0    0 -0.39430400665E+01  0.34345107220E+02  0.82380444050E+02  0.89340201011E+02  0.00000000000E+00 0. -1.
         21    1    1    2  502  501 -0.91130259169E+00  0.24292513729E+02 -0.29285514926E+02  0.38060452969E+02  0.00000000000E+00 0. -1.
<scales pt_clust_5="13000.00000" pt_clust_6="13000.00000" pt_clust_7="13000.00000" pt_clust_8="13000.00000" pt_clust_9="24.30960"></scales>
<clustering>
<clus scale="   24.310">  2  9  1 -1</clus>
<clus scale="   90.051">  7  8 -1 -1</clus>
<clus scale="   95.090">  5  6 -1 -1</clus>
<clus scale="   96.290">  2  7  1 -1</clus>
<clus scale="  101.018">  1  5  2 -1</clus>
</clustering>
</event>
<event>
 9    1  0.1713970E-005  0.1461996E+03  0.7546771E-02  0.1205604E+00
         -2   -1    0    0    0  501 -0.00000000000E+00  0.00000000000E+00  0.71757395355E+02  0.71757395355E+02  0.00000000000E+00 0.  1.
          2   -1    0    0  502    0  0.00000000000E+00 -0.00000000000E+00 -0.47934283649E+03  0.47934283649E+03  0.00000000000E+00 0. -1.
         23    2    1    2    0    0 -0.68192674409E+02  0.10759337124E+03 -0.17211911081E+03  0.23273714712E+03  0.91186714856E+02 0.  0.
         23    2    1    2    0    0  0.53193439049E+02 -0.89453278308E+02 -0.25302858912E+03  0.28899519467E+03  0.93076982500E+02 0.  0.
        -13    1    4    4    0    0  0.79148875911E+02 -0.76889336324E+02 -0.20944564868E+03  0.23673612810E+03  0.00000000000E+00 0.  1.
         13    1    4    4    0    0 -0.25955436862E+02 -0.12563941984E+02 -0.43582940444E+02  0.52259066568E+02  0.00000000000E+00 0. -1.
        -13    1    3    3    0    0 -0.76731853497E+02  0.36981511056E+02 -0.85990588674E+02  0.12103632034E+03  0.00000000000E+00 0. -1.
         13    1    3    3    0    0  0.85391790886E+01  0.70611860183E+02 -0.86128522132E+02  0.11170082678E+03  0.00000000000E+00 0.  1.
         21    1    1    2  502  501  0.14999235360E+02 -0.18140092931E+02  0.17562258788E+02  0.29367890062E+02  0.00000000000E+00 0. -1.
<scales pt_clust_5="13000.00000" pt_clust_6="13000.00000" pt_clust_7="13000.00000" pt_clust_8="13000.00000" pt_clust_9="23.53805"></scales>
<clustering>
<clus scale="   23.538">  1  9  2 -1</clus>
<clus scale="   91.187">  7  8 -1 -1</clus>
<clus scale="   93.077">  5  6 -1 -1</clus>
<clus scale="  145.004">  1  7  2 -1</clus>
<clus scale="  146.200">  2  5  1 -1</clus>
</clustering>
</event>
<event>
 9    1  0.1713970E-005  0.9672101E+02  0.7546771E-02  0.1289219E+00
          2   -1    0    0  502    0  0.00000000000E+00  0.00000000000E+00  0.53234185847E+03  0.53234185847E+03  0.00000000000E+00 0. -1.
         -2   -1    0    0    0  501 -0.00000000000E+00 -0.00000000000E+00 -0.59062371449E+02  0.59062371449E+02  0.00000000000E+00 0.  1.
         23    2    1    2    0    0 -0.24319592392E+02  0.45296022336E+02  0.10625752192E+03  0.14927144104E+03  0.91368101286E+02 0.  0.
         23    2    1    2    0    0 -0.51510240701E+02  0.86454888531E+01  0.32377564318E+03  0.33951653979E+03  0.87822345102E+02 0.  0.
        -11    1    3    3    0    0 -0.22498714106E+02  0.80156781224E+01  0.10924681438E+03  0.11182714199E+03  0.00000000000E+00 0. -1.
         11    1    3    3    0    0 -0.18208782860E+01  0.37280344213E+02 -0.29892924607E+01  0.37444299056E+02  0.00000000000E+00 0.  1.
        -13    1    4    4    0    0 -0.46207202942E+02  0.42820051497E+02  0.15650630532E+03  0.16870947223E+03  0.00000000000E+00 0. -1.
         13    1    4    4    0    0 -0.53030377595E+01 -0.34174562644E+02  0.16726933786E+03  0.17080706756E+03  0.00000000000E+00 0.  1.
         21    1    1    2  502  501  0.75829833093E+02 -0.53941511189E+02  0.43246321911E+02  0.10261624908E+03  0.00000000000E+00 0.  1.
<scales pt_clust_5="13000.00000" pt_clust_6="13000.00000" pt_clust_7="13000.00000" pt_clust_8="13000.00000" pt_clust_9="93.05832"></scales>
<clustering>
<clus scale="   87.822">  7  8 -1 -1</clus>
<clus scale="   91.368">  5  6 -1 -1</clus>
<clus scale="   93.058">  2  9  1 -1</clus>
<clus scale="   93.379">  1  7  2 -1</clus>
<clus scale="   93.379">  1  5  2 -1</clus>
</clustering>
</event>
<event>
 9    1  0.1713970E-005  0.2682903E+03  0.7546771E-02  0.1140603E+00
         -1   -1    0    0    0  501 -0.00000000000E+00  0.00000000000E+00  0.14161644547E+03  0.14161644547E+03  0.00000000000E+00 0.  1.
          1   -1    0    0  502    0  0.00000000000E+00 -0.00000000000E+00 -0.11757240374E+04  0.11757240374E+04  0.00000000000E+00 0. -1.
         23    2    1    2    0    0  0.46730575214E+02  0.68041664946E+01  0.24487101884E+02  0.10593782001E+03  0.91614192178E+02 0.  0.
         23    2    1    2    0    0  0.22757188215E+03  0.71536889318E+02 -0.74349728326E+03  0.78635497462E+03  0.93056154059E+02 0.  0.
        -11    1    3    3    0    0  0.48992825272E+02 -0.28335811053E+02 -0.90428857668E+01  0.57314822682E+02  0.00000000000E+00 0.  1.
         11    1    3    3    0    0 -0.22622500572E+01  0.35139977547E+02  0.33529987651E+02  0.48622997329E+02  0.00000000000E+00 0. -1.
        -11    1    4    4    0    0  0.77034362620E+02  0.36177587536E+02 -0.41016207142E+03  0.41889859834E+03  0.00000000000E+00 0. -1.
         11    1    4    4    0    0  0.15053751953E+03  0.35359301782E+02 -0.33333521184E+03  0.36745637627E+03  0.00000000000E+00 0.  1.
         21    1    1    2  502  501 -0.27430245737E+03 -0.78341055813E+02 -0.31509741053E+03  0.42504768822E+03  0.00000000000E+00 0.  1.
<scales pt_clust_5="13000.00000" pt_clust_6="13000.00000" pt_clust_7="13000.00000" pt_clust_8="13000.00000" pt_clust_9="251.63514"></scales>
<clustering>
<clus scale="   91.614">  5  6 -1 -1</clus>
<clus scale="   93.056">  7  8 -1 -1</clus>
<clus scale="  103.069">  1  5  2 -1</clus>
<clus scale="  251.635">  1  9  2 -1</clus>
<clus scale="  268.290">  2  5  1 -1</clus>
</clustering>
</event>
<event>
 9    1  0.1713970E-005  0.9413429E+02  0.7546771E-02  0.1293919E+00
          2   -1    0    0  502    0  0.00000000000E+00  0.00000000000E+00  0.20754103710E+02  0.20754103710E+02  0.00000000000E+00 0. -1.
         -2   -1    0    0    0  501 -0.00000000000E+00 -0.00000000000E+00 -0.91598161894E+03  0.91598161894E+03  0.00000000000E+00 0.  1.
         23    2    1    2    0    0  0.17778532741E+02 -0.62204189267E+01 -0.40835403628E+03  0.41869646201E+03  0.90547990110E+02 0.  0.
         23    2    1    2    0    0  0.22587998432E+02  0.59605647225E+02 -0.32010249933E+03  0.33833951362E+03  0.89134536184E+02 0.  0.
        -11    1    3    3    0    0  0.47142479067E+02  0.20565777475E+02 -0.19482143940E+03  0.20149629720E+03  0.00000000000E+00 0. -1.
         11    1    3    3    0    0 -0.29363946326E+02 -0.26786196402E+02 -0.21353259688E+03  0.21720016481E+03  0.00000000000E+00 0.  1.
        -13    1    4    4    0    0  0.36711031333E+02 -0.57248670652E+01 -0.17023714614E+03  0.17424454037E+03  0.00000000000E+00 0.  1.
         13    1    4    4    0    0 -0.14123032901E+02  0.65330514290E+02 -0.14986535320E+03  0.16409497325E+03  0.00000000000E+00 0. -1.
         21    1    1    2  502  501 -0.40366531173E+02 -0.53385228298E+02 -0.16677097962E+03  0.17969974703E+03  0.00000000000E+00 0.  1.
<scales pt_clust_5="13000.00000" pt_clust_6="13000.00000" pt_clust_7="13000.00000" pt_clust_8="13000.00000" pt_clust_9="66.92861"></scales>
<clustering>
<clus scale="   66.929">  1  9  2 -1</clus>
<clus scale="   89.135">  7  8 -1 -1</clus>
<clus scale="   90.548">  5  6 -1 -1</clus>
<clus scale="   92.775">  1  7  2 -1</clus>
<clus scale="   66.929">  1  5  2 -1</clus>
</clustering>
</event>
<event>
 9    1  0.1713970E-005  0.1292548E+03  0.7546771E-02  0.1229932E+00
          2   -1    0    0  502    0  0.00000000000E+00  0.00000000000E+00  0.48151211973E+03  0.48151211973E+03  0.00000000000E+00 0. -1.
         -2   -1    0    0    0  501 -0.00000000000E+00 -0.00000000000E+00 -0.45513404115E+02  0.45513404115E+02  0.00000000000E+00 0.  1.
         23    2    1    2    0    0 -0.78734132469E+02  0.19484664742E+02  0.11018332659E+03  0.16317168003E+03  0.88915217657E+02 0.  0.
         23    2    1    2    0    0  0.93314955167E+02 -0.29906214249E+01  0.30888709265E+03  0.33608297646E+03  0.93935650235E+02 0.  0.
        -11    1    3    3    0    0 -0.52390930447E+02 -0.11205068829E+02  0.11041392368E+03  0.12272570107E+03  0.00000000000E+00 0. -1.
         11    1    3    3    0    0 -0.26343202022E+02  0.30689733570E+02 -0.23059709170E+00  0.40445978964E+02  0.00000000000E+00 0.  1.
        -13    1    4    4    0    0  0.32533223288E+01 -0.25455576889E+02  0.19664166319E+02  0.32330325361E+02  0.00000000000E+00 0.  1.
         13    1    4    4    0    0  0.90061632839E+02  0.22464955464E+02  0.28922292633E+03  0.30375265109E+03  0.00000000000E+00 0. -1.
         21    1    1    2  502  501 -0.14580822699E+02 -0.16494043317E+02  0.16928296387E+02  0.27770867363E+02  0.00000000000E+00 0.  1.
<scales pt_clust_5="13000.00000" pt_clust_6="13000.00000" pt_clust_7="13000.00000" pt_clust_8="13000.00000" pt_clust_9="22.01486"></scales>
<clustering>
<clus scale="   22.015">  2  9  1 -1</clus>
<clus scale="   88.915">  5  6 -1 -1</clus>
<clus scale="   93.936">  7  8 -1 -1</clus>
<clus scale="  125.654">  2  5  1 -1</clus>
<clus scale="  129.255">  1  5  2 -1</clus>
</clustering>
</event>
<event>
 9    1  0.1713970E-005  0.1116836E+03  0.7546771E-02  0.1260498E+00
          2   -1    0    0  502    0  0.00000000000E+00  0.00000000000E+00  0.31519701369E+03  0.31519701369E+03  0.00000000000E+00 0. -1.
         -2   -1    0    0    0  501 -0.00000000000E+00 -0.00000000000E+00 -0.14517362997E+03  0.14517362997E+03  0.00000000000E+00 0.  1.
         23    2    1    2    0    0 -0.11311742211E+03  0.25691314123E+01  0.10713612425E+03  0.18089002859E+03  0.91874380013E+02 0.  0.
         23    2    1    2    0    0  0.44055397702E+02 -0.61699790192E+01  0.14423734231E+03  0.17270812188E+03  0.83932935965E+02 0.  0.
        -11    1    4    4    0    0  0.44763776635E+02  0.29386692703E+02  0.55554358105E+02  0.77159964432E+02  0.00000000000E+00 0.  1.
         11    1    4    4    0    0 -0.70837893246E+00 -0.35556671722E+02  0.88682984208E+02  0.95548157453E+02  0.00000000000E+00 0. -1.
        -13    1    3    3    0    0 -0.24826275692E+01 -0.30014710062E+02  0.27013984686E+02  0.40457405112E+02  0.00000000000E+00 0.  1.
         13    1    3    3    0    0 -0.11063479454E+03  0.32583841475E+02  0.80122139569E+02  0.14043262348E+03  0.00000000000E+00 0. -1.
         21    1    1    2  502  501  0.69062024411E+02  0.36008476069E+01 -0.81350082857E+02  0.10677249318E+03  0.00000000000E+00 0.  1.
<scales pt_clust_5="13000.00000" pt_clust_6="13000.00000" pt_clust_7="13000.00000" pt_clust_8="13000.00000" pt_clust_9="69.15583"></scales>
<clustering>
<clus scale="   69.156">  2  9  1 -1</clus>
<clus scale="   83.933">  5  6 -1 -1</clus>
<clus scale="   91.874">  7  8 -1 -1</clus>
<clus scale="  105.248">  1  5  2 -1</clus>
<clus scale="  105.248">  1  5  2 -1</clus>
</clustering>
</event>
<event>
 9    1  0.1713970E-005  0.2131518E+03  0.7546771E-02  0.1139528E+00
         -2   -1    0    0    0  501 -0.00000000000E+00  0.00000000000E+00  0.12130690774E+03  0.12130690774E+03  0.00000000000E+00 0.  1.
          2   -1    0    0  502    0  0.00000000000E+00 -0.00000000000E+00 -0.52891783912E+03  0.52891783912E+03  0.00000000000E+00 0. -1.
         23    2    1    2    0    0 -0.47892419973E+02  0.21469852290E+03 -0.17081298564E+03  0.29190460400E+03  0.87419003359E+02 0.  0.
         23    2    1    2    0    0 -0.74662281484E+01 -0.17543647602E+03 -0.19676681983E+03  0.27952560441E+03  0.92648154069E+02 0.  0.
        -11    1    4    4    0    0 -0.30242820236E+02 -0.18560125721E+02 -0.62111273778E+02  0.71532627331E+02  0.00000000000E+00 0. -1.
         11    1    4    4    0    0  0.22776592087E+02 -0.15687635030E+03 -0.13465554605E+03  0.20799297708E+03  0.00000000000E+00 0.  1.
        -11    1    3    3    0    0  0.56948758126E+01  0.83859261815E+02 -0.22532539215E+02  0.87020243197E+02  0.00000000000E+00 0.  1.
         11    1    3    3    0    0 -0.53587295786E+02  0.13083926109E+03 -0.14828044642E+03  0.20488436080E+03  0.00000000000E+00 0. -1.
         21    1    1    2  502  501  0.55358648121E+02 -0.39262046878E+02 -0.40031125913E+02  0.78794538445E+02  0.00000000000E+00 0.  1.
<scales pt_clust_5="13000.00000" pt_clust_6="13000.00000" pt_clust_7="13000.00000" pt_clust_8="13000.00000" pt_clust_9="67.86817"></scales>
<clustering>
<clus scale="   67.868">  1  9  2 -1</clus>
<clus scale="   87.419">  7  8 -1 -1</clus>
<clus scale="   92.648">  5  6 -1 -1</clus>
<clus scale="  210.932">  1  7  2 -1</clus>
<clus scale="  213.152">  2  5  1 -1</clus>
</clustering>
</event>
<event>
 9    1  0.1713970E-005  0.2200083E+03  0.7546771E-02  0.1134890E+00
         -1   -1    0    0    0  501 -0.00000000000E+00  0.00000000000E+00  0.49301671317E+03  0.49301671317E+03  0.00000000000E+00 0.  1.
          1   -1    0    0  502    0  0.00000000000E+00 -0.00000000000E+00 -0.43732145130E+03  0.43732145130E+03  0.00000000000E+00 0. -1.
         23    2    1    2    0    0 -0.13341532917E+02 -0.10162937764E+03  0.86966290216E+02  0.16974593871E+03  0.10365337030E+03 0.  0.
         23    2    1    2    0    0  0.12612303242E+03  0.18574566764E+03 -0.34213126661E+03  0.41937483960E+03  0.91722299060E+02 0.  0.
        -11    1    3    3    0    0 -0.42369289592E+02 -0.62915240071E+02  0.94067720472E+02  0.12083964651E+03  0.00000000000E+00 0.  1.
         11    1    3    3    0    0  0.29027756675E+02 -0.38714137573E+02 -0.71014302558E+01  0.48906292205E+02  0.00000000000E+00 0. -1.
        -13    1    4    4    0    0  0.11796595414E+03  0.13677916232E+03 -0.20336173763E+03  0.27199356961E+03  0.00000000000E+00 0. -1.
         13    1    4    4    0    0  0.81570782843E+01  0.48966505321E+02 -0.13876952898E+03  0.14738126999E+03  0.00000000000E+00 0.  1.
         21    1    1    2  502  501 -0.11278149950E+03 -0.84116289995E+02  0.31086023827E+03  0.34121738615E+03  0.00000000000E+00 0. -1.
<scales pt_clust_5="13000.00000" pt_clust_6="13000.00000" pt_clust_7="13000.00000" pt_clust_8="13000.00000" pt_clust_9="140.69548"></scales>
<clustering>
<clus scale="   91.722">  7  8 -1 -1</clus>
<clus scale="  103.653">  5  6 -1 -1</clus>
<clus scale="  140.695">  1  9  2 -1</clus>
<clus scale="  214.645">  2  7  1 -1</clus>
<clus scale="  214.645">  2  5  1 -1</clus>
</clustering>
</event>
<event>
 9    1  0.1713970E-005  0.1049085E+03  0.7546771E-02  0.1270458E+00
         -1   -1    0    0    0  501 -0.00000000000E+00  0.00000000000E+00  0.18695916137E+03  0.18695916137E+03  0.00000000000E+00 0.  1.
          1   -1    0    0  502    0  0.00000000000E+00 -0.00000000000E+00 -0.97879238407E+02  0.97879238407E+02  0.00000000000E+00 0. -1.
         23    2    1    2    0    0  0.31685679746E+02  0.79007561044E+01  0.87725043284E+02  0.13135253432E+03  0.92148797094E+02 0.  0.
         23    2    1    2    0    0 -0.56163107300E+02  0.61317810486E+01 -0.28830045008E+02  0.11216775517E+03  0.92512379957E+02 0.  0.
        -11    1    4    4    0    0 -0.78910821659E+02  0.15570754144E+02 -0.33448625800E+02  0.87110141358E+02  0.00000000000E+00 0. -1.
         11    1    4    4    0    0  0.22747714359E+02 -0.94389730957E+01  0.46185807918E+01  0.25057613816E+02  0.00000000000E+00 0.  1.
        -13    1    3    3    0    0  0.28031039978E+02  0.49025682808E+02  0.51226902653E+02  0.76245998797E+02  0.00000000000E+00 0. -1.
         13    1    3    3    0    0  0.36546397677E+01 -0.41124926704E+02  0.36498140631E+02  0.55106535526E+02  0.00000000000E+00 0.  1.
         21    1    1    2  502  501  0.24477427554E+02 -0.14032537153E+02  0.30184924685E+02  0.41318110277E+02  0.00000000000E+00 0.  1.
<scales pt_clust_5="13000.00000" pt_clust_6="13000.00000" pt_clust_7="13000.00000" pt_clust_8="13000.00000" pt_clust_9="28.21447"></scales>
<clustering>
<clus scale="   28.214">  1  9  2 -1</clus>
<clus scale="   92.149">  7  8 -1 -1</clus>
<clus scale="   92.512">  5  6 -1 -1</clus>
<clus scale="  104.588">  1  7  2 -1</clus>
<clus scale="  104.908">  2  5  1 -1</clus>
</clustering>
</event>
<event>
 9    1  0.1713970E-005  0.1053625E+03  0.7546771E-02  0.1273470E+00
          1   -1    0    0  502    0  0.00000000000E+00  0.00000000000E+00  0.33895545822E+03  0.33895545822E+03  0.00000000000E+00 0. -1.
         -1   -1    0    0    0  501 -0.00000000000E+00 -0.00000000000E+00 -0.86185218770E+02  0.86185218770E+02  0.00000000000E+00 0.  1.
         23    2    1    2    0    0 -0.70713073487E+01  0.49546568831E+02  0.16538726622E+02  0.10648137365E+03  0.92519660530E+02 0.  0.
         23    2    1    2    0    0  0.13643886581E+02 -0.23012136000E+02  0.26142925525E+03  0.28148133747E+03  0.10085025433E+03 0.  0.
        -11    1    3    3    0    0  0.25306834565E+00  0.70720126874E+02 -0.10358624360E+02  0.71475180918E+02  0.00000000000E+00 0.  1.
         11    1    3    3    0    0 -0.73243756944E+01 -0.21173558042E+02  0.26897350982E+02  0.35006192728E+02  0.00000000000E+00 0. -1.
        -13    1    4    4    0    0  0.53986996913E+02 -0.11327202690E+02  0.95191071203E+02  0.11001927737E+03  0.00000000000E+00 0. -1.
         13    1    4    4    0    0 -0.40343110332E+02 -0.11684933309E+02  0.16623818404E+03  0.17146206009E+03  0.00000000000E+00 0.  1.
         21    1    1    2  502  501 -0.65725792321E+01 -0.26534432831E+02 -0.25197742422E+02  0.37177965875E+02  0.00000000000E+00 0.  1.
<scales pt_clust_5="13000.00000" pt_clust_6="13000.00000" pt_clust_7="13000.00000" pt_clust_8="13000.00000" pt_clust_9="27.33633"></scales>
<clustering>
<clus scale="   27.336">  2  9  1 -1</clus>
<clus scale="   92.520">  5  6 -1 -1</clus>
<clus scale="   97.419">  2  5  1 -1</clus>
<clus scale="  100.850">  7  8 -1 -1</clus>
<clus scale="  105.363">  1  5  2 -1</clus>
</clustering>
</event>
<event>
 9    1  0.1713970E-005  0.9774982E+02  0.7546771E-02  0.1286219E+00
         -2   -1    0    0    0  501 -0.00000000000E+00  0.00000000000E+00  0.60111168416E+02  0.60111168416E+02  0.00000000000E+00 0.  1.
          2   -1    0    0  502    0  0.00000000000E+00 -0.00000000000E+00 -0.23689118053E+03  0.23689118053E+03  0.00000000000E+00 0. -1.
         23    2    1    2    0    0  0.27650084209E+01  0.13428158650E+02 -0.36391508506E+02  0.10123881516E+03  0.93471894637E+02 0.  0.
         23    2    1    2    0    0 -0.27690521009E+02 -0.24662514653E+02 -0.13616095617E+03  0.16809831935E+03  0.91335833059E+02 0.  0.
        -11    1    3    3    0    0  0.45236335939E+02  0.23114639372E+02 -0.17149714410E+02  0.53616465259E+02  0.00000000000E+00 0.  1.
         11    1    3    3    0    0 -0.42471327518E+02 -0.96864807219E+01 -0.19241794096E+02  0.47622349900E+02  0.00000000000E+00 0. -1.
        -13    1    4    4    0    0 -0.18781179721E+02  0.32716392571E+02 -0.35015448017E+02  0.51470153044E+02  0.00000000000E+00 0.  1.
         13    1    4    4    0    0 -0.89093412875E+01 -0.57378907224E+02 -0.10114550815E+03  0.11662816631E+03  0.00000000000E+00 0. -1.
         21    1    1    2  502  501  0.24925512588E+02  0.11234356002E+02 -0.42275474391E+01  0.27665214438E+02  0.00000000000E+00 0.  1.
<scales pt_clust_5="13000.00000" pt_clust_6="13000.00000" pt_clust_7="13000.00000" pt_clust_8="13000.00000" pt_clust_9="27.34030"></scales>
<clustering>
<clus scale="   27.340">  1  9  2 -1</clus>
<clus scale="   91.336">  7  8 -1 -1</clus>
<clus scale="   93.472">  5  6 -1 -1</clus>
<clus scale="   95.709">  2  7  1 -1</clus>
<clus scale="   95.709">  2  5  1 -1</clus>
</clustering>
</event>
<event>
 9    1  0.1713970E-005  0.9899218E+02  0.7546771E-02  0.1283588E+00
          1   -1    0    0  502    0  0.00000000000E+00  0.00000000000E+00  0.46736541363E+02  0.46736541363E+02  0.00000000000E+00 0. -1.
         -1   -1    0    0    0  501 -0.00000000000E+00 -0.00000000000E+00 -0.37003640446E+03  0.37003640446E+03  0.00000000000E+00 0.  1.
         23    2    1    2    0    0  0.16603895742E+02 -0.10336699701E+02 -0.15033176801E+03  0.17677735336E+03  0.90928848398E+02 0.  0.
         23    2    1    2    0    0 -0.19359444046E+02  0.47095911841E+02 -0.54249982816E+02  0.11568620865E+03  0.88585694393E+02 0.  0.
        -13    1    4    4    0    0 -0.94908540151E+00  0.29142798970E+02  0.21150419549E+02  0.36021434480E+02  0.00000000000E+00 0. -1.
         13    1    4    4    0    0 -0.18410358645E+02  0.17953112872E+02 -0.75400402365E+02  0.79664774173E+02  0.00000000000E+00 0.  1.
        -13    1    3    3    0    0 -0.57732794718E+01 -0.47555825346E+02 -0.62036701783E+02  0.78380097272E+02  0.00000000000E+00 0.  1.
         13    1    3    3    0    0  0.22377175214E+02  0.37219125645E+02 -0.88295066230E+02  0.98397256084E+02  0.00000000000E+00 0. -1.
         21    1    1    2  502  501  0.27555483043E+01 -0.36759212140E+02 -0.11871811227E+03  0.12430938382E+03  0.00000000000E+00 0.  1.
<scales pt_clust_5="13000.00000" pt_clust_6="13000.00000" pt_clust_7="13000.00000" pt_clust_8="13000.00000" pt_clust_9="36.86235"></scales>
<clustering>
<clus scale="   36.862">  2  9  1 -1</clus>
<clus scale="   88.586">  5  6 -1 -1</clus>
<clus scale="   90.929">  7  8 -1 -1</clus>
<clus scale="   96.844">  1  5  2 -1</clus>
<clus scale="   96.844">  1  5  2 -1</clus>
</clustering>
</event>
<event>
 9    1  0.1713970E-005  0.1266133E+03  0.7546771E-02  0.1238270E+00
         -1   -1    0    0    0  501 -0.00000000000E+00  0.00000000000E+00  0.51572874724E+03  0.51572874724E+03  0.00000000000E+00 0.  1.
          1   -1    0    0  502    0  0.00000000000E+00 -0.00000000000E+00 -0.83976470629E+02  0.83976470629E+02  0.00000000000E+00 0. -1.
         23    2    1    2    0    0  0.82732685808E+02 -0.16719716772E+02  0.42200673244E+03  0.43646591662E+03  0.72722540589E+02 0.  0.
         23    2    1    2    0    0 -0.96591357863E+02  0.35217265440E+02  0.10649931253E+01  0.13854974750E+03  0.92869543577E+02 0.  0.
        -11    1    4    4    0    0 -0.81712306392E+02 -0.10213808447E+02  0.23651049661E+02  0.85677272651E+02  0.00000000000E+00 0.  1.
         11    1    4    4    0    0 -0.14879051471E+02  0.45431073887E+02 -0.22586056536E+02  0.52872474853E+02  0.00000000000E+00 0. -1.
        -13    1    3    3    0    0 -0.43426878106E+01 -0.22978071698E+02  0.70345514854E+02  0.74130575180E+02  0.00000000000E+00 0. -1.
         13    1    3    3    0    0  0.87075373619E+02  0.62583549259E+01  0.35166121759E+03  0.36233534144E+03  0.00000000000E+00 0.  1.
         21    1    1    2  502  501  0.13858672055E+02 -0.18497548668E+02  0.86805510402E+01  0.24689553747E+02  0.00000000000E+00 0. -1.
<scales pt_clust_5="13000.00000" pt_clust_6="13000.00000" pt_clust_7="13000.00000" pt_clust_8="13000.00000" pt_clust_9="23.11325"></scales>
<clustering>
<clus scale="   23.113">  2  9  1 -1</clus>
<clus scale="   72.723">  7  8 -1 -1</clus>
<clus scale="   92.870">  5  6 -1 -1</clus>
<clus scale="  112.671">  1  7  2 -1</clus>
<clus scale="   23.113">  2  5  1 -1</clus>
</clustering>
</event>
<event>
 9    1  0.1713970E-005  0.1085050E+03  0.7546771E-02  0.1263785E+00
          3   -1    0    0  502    0  0.00000000000E+00  0.00000000000E+00  0.34334410524E+03  0.34334410524E+03  0.00000000000E+00 0. -1.
         -3   -1    0    0    0  501 -0.00000000000E+00 -0.00000000000E+00 -0.15399718226E+03  0.15399718226E+03  0.00000000000E+00 0.  1.
         23    2    1    2    0    0  0.55484500445E+01  0.39783301561E+01  0.38342258872E+02  0.10042689639E+03  0.92567922604E+02 0.  0.
         23    2    1    2    0    0 -0.55453430664E+02  0.62059061105E+02  0.24329793508E+03  0.27294063581E+03  0.91522103472E+02 0.  0.
        -11    1    4    4    0    0  0.25065338096E+02  0.23110905499E+02  0.73618252125E+02  0.81129724348E+02  0.00000000000E+00 0.  1.
         11    1    4    4    0    0 -0.80518768760E+02  0.38948155606E+02  0.16967968296E+03  0.19181091146E+03  0.00000000000E+00 0. -1.
        -11    1    3    3    0    0 -0.17148138641E+02 -0.36571794647E+02  0.35657400293E+02  0.53879541742E+02  0.00000000000E+00 0.  1.
         11    1    3    3    0    0  0.22696588686E+02  0.40550124803E+02  0.26848585781E+01  0.46547354652E+02  0.00000000000E+00 0. -1.
         21    1    1    2  502  501  0.49904980619E+02 -0.66037391261E+02 -0.92293270975E+02  0.12397375530E+03  0.00000000000E+00 0.  1.
<scales pt_clust_5="13000.00000" pt_clust_6="13000.00000" pt_clust_7="13000.00000" pt_clust_8="13000.00000" pt_clust_9="82.77345"></scales>
<clustering>
<clus scale="   82.773">  2  9  1 -1</clus>
<clus scale="   91.522">  5  6 -1 -1</clus>
<clus scale="   92.568">  7  8 -1 -1</clus>
<clus scale="  107.614">  1  5  2 -1</clus>
<clus scale="  107.614">  1  5  2 -1</clus>
</clustering>
</event>
<event>
 9    1  0.1713970E-005  0.2397778E+03  0.7546771E-02  0.1120015E+00
          1   -1    0    0  502    0  0.00000000000E+00  0.00000000000E+00  0.24680552914E+03  0.24680552914E+03  0.00000000000E+00 0. -1.
         -1   -1    0    0    0  501 -0.00000000000E+00 -0.00000000000E+00 -0.59938444424E+03  0.59938444424E+03  0.00000000000E+00 0.  1.
         23    2    1    2    0    0 -0.17284801206E+03  0.13243460524E+03 -0.46474103915E+03  0.52194438257E+03  0.95007079160E+02 0.  0.
         23    2    1    2    0    0  0.16979165525E+03 -0.16834233423E+03  0.12540838540E+03  0.28585067243E+03  0.93888210723E+02 0.  0.
        -11    1    4    4    0    0  0.10619938214E+03 -0.59568442780E+02  0.23989957052E+02  0.12410570568E+03  0.00000000000E+00 0.  1.
         11    1    4    4    0    0  0.63592273105E+02 -0.10877389145E+03  0.10141842835E+03  0.16174496675E+03  0.00000000000E+00 0. -1.
        -11    1    3    3    0    0 -0.90289491891E+02  0.12463506831E+03 -0.32129117205E+03  0.35625006644E+03  0.00000000000E+00 0.  1.
         11    1    3    3    0    0 -0.82558520168E+02  0.77995369315E+01 -0.14344986709E+03  0.16569431613E+03  0.00000000000E+00 0. -1.
         21    1    1    2  502  501  0.30563568096E+01  0.35907728987E+02 -0.13246261353E+02  0.38394918385E+02  0.00000000000E+00 0.  1.
<scales pt_clust_5="13000.00000" pt_clust_6="13000.00000" pt_clust_7="13000.00000" pt_clust_8="13000.00000" pt_clust_9="36.03757"></scales>
<clustering>
<clus scale="   36.038">  1  9  2 -1</clus>
<clus scale="   93.888">  5  6 -1 -1</clus>
<clus scale="   95.007">  7  8 -1 -1</clus>
<clus scale="  239.337">  1  5  2 -1</clus>
<clus scale="   36.038">  1  5  2 -1</clus>
</clustering>
</event>
<event>
 9    1  0.1713970E-005  0.9582656E+02  0.7546771E-02  0.1291442E+00
          3   -1    0    0  502    0  0.00000000000E+00  0.00000000000E+00  0.21236324925E+03  0.21236324925E+03  0.00000000000E+00 0. -1.
         -3   -1    0    0    0  501 -0.00000000000E+00 -0.00000000000E+00 -0.13397487873E+03  0.13397487873E+03  0.00000000000E+00 0.  1.
         23    2    1    2    0    0  0.15838216823E+01  0.62635680044E+01  0.14330496479E+02  0.92764519579E+02  0.91422930320E+02 0.  0.
         23    2    1    2    0    0  0.17241842816E+02  0.39114800997E+02  0.13549916803E+03  0.16687031836E+03  0.87512455188E+02 0.  0.
        -11    1    4    4    0    0  0.22007758447E+02 -0.23297327661E+02  0.28401405533E+02  0.42822269256E+02  0.00000000000E+00 0.  1.
         11    1    4    4    0    0 -0.47659156309E+01  0.62412128658E+02  0.10709776249E+03  0.12404804910E+03  0.00000000000E+00 0. -1.
        -11    1    3    3    0    0  0.18441099498E+02 -0.28633504632E+02 -0.21257948933E+02  0.40147878288E+02  0.00000000000E+00 0.  1.
         11    1    3    3    0    0 -0.16857277816E+02  0.34897072636E+02  0.35588445412E+02  0.52616641291E+02  0.00000000000E+00 0. -1.
         21    1    1    2  502  501 -0.18825664498E+02 -0.45378369001E+02 -0.71441293987E+02  0.86703290039E+02  0.00000000000E+00 0.  1.
<scales pt_clust_5="13000.00000" pt_clust_6="13000.00000" pt_clust_7="13000.00000" pt_clust_8="13000.00000" pt_clust_9="49.12842"></scales>
<clustering>
<clus scale="   49.128">  2  9  1 -1</clus>
<clus scale="   87.512">  5  6 -1 -1</clus>
<clus scale="   91.423">  7  8 -1 -1</clus>
<clus scale="   92.103">  1  5  2 -1</clus>
<clus scale="   92.103">  1  5  2 -1</clus>
</clustering>
</event>
<event>
 9    1  0.1713970E-005  0.1847201E+03  0.7546771E-02  0.1163419E+00
         -2   -1    0    0    0  501 -0.00000000000E+00  0.00000000000E+00  0.16935110249E+03  0.16935110249E+03  0.00000000000E+00 0.  1.
          2   -1    0    0  502    0  0.00000000000E+00 -0.00000000000E+00 -0.39845860469E+03  0.39845860469E+03  0.00000000000E+00 0. -1.
         23    2    1    2    0    0  0.10918377230E+03 -0.14927566434E+03  0.25895204890E+02  0.20748810841E+03  0.90423632954E+02 0.  0.
         23    2    1    2    0    0 -0.52134590092E+02  0.14682299358E+03 -0.24163618413E+03  0.30167614949E+03  0.91353416823E+02 0.  0.
        -13    1    3    3    0    0  0.79556027973E+02 -0.42745601430E+02 -0.10866633643E+02  0.90963903583E+02  0.00000000000E+00 0. -1.
         13    1    3    3    0    0  0.29627744327E+02 -0.10653006291E+03  0.36761838532E+02  0.11652420483E+03  0.00000000000E+00 0.  1.
        -13    1    4    4    0    0 -0.72133267757E+02  0.89117743757E+02 -0.12240974295E+03  0.16771799468E+03  0.00000000000E+00 0. -1.
         13    1    4    4    0    0  0.19998677665E+02  0.57705249826E+02 -0.11922644118E+03  0.13395815482E+03  0.00000000000E+00 0.  1.
         21    1    1    2  502  501 -0.57049182208E+02  0.24526707609E+01 -0.13366522966E+02  0.58645449275E+02  0.00000000000E+00 0. -1.
<scales pt_clust_5="13000.00000" pt_clust_6="13000.00000" pt_clust_7="13000.00000" pt_clust_8="13000.00000" pt_clust_9="57.10188"></scales>
<clustering>
<clus scale="   57.102">  1  9  2 -1</clus>
<clus scale="   90.424">  5  6 -1 -1</clus>
<clus scale="   91.353">  7  8 -1 -1</clus>
<clus scale="  184.262">  1  5  2 -1</clus>
<clus scale="  184.720">  2  5  1 -1</clus>
</clustering>
</event>
<event>
 9    1  0.1713970E-005  0.1087854E+03  0.7546771E-02  0.1263150E+00
         -1   -1    0    0    0  501 -0.00000000000E+00  0.00000000000E+00  0.38931219863E+03  0.38931219863E+03  0.00000000000E+00 0.  1.
          1   -1    0    0  502    0  0.00000000000E+00 -0.00000000000E+00 -0.14467330716E+03  0.14467330716E+03  0.00000000000E+00 0. -1.
         23    2    1    2    0    0  0.10616103150E+02  0.38073968869E+02  0.17931962938E+03  0.20482052018E+03  0.90739116451E+02 0.  0.
         23    2    1    2    0    0 -0.31944901089E+02 -0.53838431270E+02 -0.10798282207E+03  0.15384513998E+03  0.89938778321E+02 0.  0.
        -11    1    3    3    0    0  0.50575592138E+02  0.16924474226E+02  0.87472268253E+02  0.10244865085E+03  0.00000000000E+00 0.  1.
         11    1    3    3    0    0 -0.39959488988E+02  0.21149494643E+02  0.91847361131E+02  0.10237186933E+03  0.00000000000E+00 0. -1.
        -11    1    4    4    0    0 -0.43917346900E+02 -0.28649129537E+02 -0.11863066982E+02  0.53760936936E+02  0.00000000000E+00 0.  1.
         11    1    4    4    0    0  0.11972445812E+02 -0.25189301733E+02 -0.96119755092E+02  0.10008420305E+03  0.00000000000E+00 0. -1.
         21    1    1    2  502  501  0.21328797939E+02  0.15764462401E+02  0.17330208415E+03  0.17531984562E+03  0.00000000000E+00 0.  1.
<scales pt_clust_5="13000.00000" pt_clust_6="13000.00000" pt_clust_7="13000.00000" pt_clust_8="13000.00000" pt_clust_9="26.52237"></scales>
<clustering>
<clus scale="   26.522">  1  9  2 -1</clus>
<clus scale="   89.939">  7  8 -1 -1</clus>
<clus scale="   90.739">  5  6 -1 -1</clus>
<clus scale="  108.119">  2  7  1 -1</clus>
<clus scale="  108.119">  2  5  1 -1</clus>
</clustering>
</event>
<event>
 9    1  0.1713970E-005  0.1869286E+03  0.7546771E-02  0.1161281E+00
          1   -1    0    0  502    0  0.00000000000E+00  0.00000000000E+00  0.11109221397E+03  0.11109221397E+03  0.00000000000E+00 0. -1.
         -1   -1    0    0    0  501 -0.00000000000E+00 -0.00000000000E+00 -0.43750996433E+03  0.43750996433E+03  0.00000000000E+00 0.  1.
         23    2    1    2    0    0 -0.96493543314E+02  0.12137885547E+03 -0.11946704325E+03  0.21557530086E+03  0.90313373660E+02 0.  0.
         23    2    1    2    0    0  0.95898358948E+02 -0.14239468115E+03 -0.89236069026E+02  0.21344947492E+03  0.90138015620E+02 0.  0.
        -13    1    4    4    0    0  0.29896603012E+02 -0.45370411471E+02 -0.78696541229E+02  0.95631724391E+02  0.00000000000E+00 0.  1.
         13    1    4    4    0    0  0.66001755936E+02 -0.97024269682E+02 -0.10539527797E+02  0.11781775053E+03  0.00000000000E+00 0. -1.
        -13    1    3    3    0    0 -0.82571008411E+02  0.13575461620E+03 -0.11110768572E+03  0.19388709363E+03  0.00000000000E+00 0.  1.
         13    1    3    3    0    0 -0.13922534903E+02 -0.14375760728E+02 -0.83593575258E+01  0.21688207231E+02  0.00000000000E+00 0. -1.
         21    1    1    2  502  501  0.59518436596E+00  0.21015825679E+02 -0.11771463809E+03  0.11957740252E+03  0.00000000000E+00 0.  1.
<scales pt_clust_5="13000.00000" pt_clust_6="13000.00000" pt_clust_7="13000.00000" pt_clust_8="13000.00000" pt_clust_9="21.02425"></scales>
<clustering>
<clus scale="   21.024">  2  9  1 -1</clus>
<clus scale="   90.138">  5  6 -1 -1</clus>
<clus scale="   90.313">  7  8 -1 -1</clus>
<clus scale="  186.844">  1  5  2 -1</clus>
<clus scale="  186.844">  1  5  2 -1</clus>
</clustering>
</event>
<event>
 9    1  0.1713970E-005  0.9228061E+02  0.7546771E-02  0.1301912E+00
         -1   -1    0    0    0  501 -0.00000000000E+00  0.00000000000E+00  0.16255673547E+03  0.16255673547E+03  0.00000000000E+00 0.  1.
          1   -1    0    0  502    0  0.00000000000E+00 -0.00000000000E+00 -0.86989583849E+02  0.86989583849E+02  0.00000000000E+00 0. -1.
         23    2    1    2    0    0 -0.29365602911E+02 -0.57398272718E+01  0.13600026991E+02  0.89622583358E+02  0.83378429237E+02 0.  0.
         23    2    1    2    0    0  0.21792458579E+01  0.72954359074E+01 -0.11665107201E+01  0.91167835557E+02  0.90841846058E+02 0.  0.
        -13    1    4    4    0    0 -0.51901018596E+00 -0.35918669719E+02  0.21937248487E+02  0.42091128248E+02  0.00000000000E+00 0. -1.
         13    1    4    4    0    0  0.26982560438E+01  0.43214105627E+02 -0.23103759207E+02  0.49076707309E+02  0.00000000000E+00 0.  1.
        -13    1    3    3    0    0  0.10265672952E+02  0.31135241901E+02  0.13590636359E+02  0.35489332567E+02  0.00000000000E+00 0.  1.
         13    1    3    3    0    0 -0.39631275863E+02 -0.36875069173E+02  0.93906325930E-02  0.54133250791E+02  0.00000000000E+00 0. -1.
         21    1    1    2  502  501  0.27186357054E+02 -0.15556086356E+01  0.63133635351E+02  0.68755900406E+02  0.00000000000E+00 0. -1.
<scales pt_clust_5="13000.00000" pt_clust_6="13000.00000" pt_clust_7="13000.00000" pt_clust_8="13000.00000" pt_clust_9="27.23083"></scales>
<clustering>
<clus scale="   27.231">  1  9  2 -1</clus>
<clus scale="   83.378">  7  8 -1 -1</clus>
<clus scale="   84.944">  1  7  2 -1</clus>
<clus scale="   90.842">  5  6 -1 -1</clus>
<clus scale="   92.281">  2  5  1 -1</clus>
</clustering>
</event>
<event>
 9    1  0.1713970E-005  0.9970376E+02  0.7546771E-02  0.1281482E+00
          1   -1    0    0  502    0  0.00000000000E+00  0.00000000000E+00  0.22030266936E+02  0.22030266936E+02  0.00000000000E+00 0. -1.
         -1   -1    0    0    0  501 -0.00000000000E+00 -0.00000000000E+00 -0.71340526900E+03  0.71340526900E+03  0.00000000000E+00 0.  1.
         23    2    1    2    0    0 -0.57119535107E+00  0.10948492584E+02 -0.32366179903E+03  0.33660339754E+03  0.91786117303E+02 0.  0.
         23    2    1    2    0    0 -0.53676640935E+01 -0.53376709918E+02 -0.21593587461E+03  0.24112424036E+03  0.92923153030E+02 0.  0.
        -11    1    4    4    0    0  0.41347126363E+01  0.23723319818E+02 -0.23707855737E+02  0.33792812482E+02  0.00000000000E+00 0.  1.
         11    1    4    4    0    0 -0.95023767298E+01 -0.77100029736E+02 -0.19222801887E+03  0.20733142788E+03  0.00000000000E+00 0. -1.
        -11    1    3    3    0    0  0.57690072982E+01 -0.33960564999E+02 -0.60996850472E+02  0.70051532373E+02  0.00000000000E+00 0. -1.
         11    1    3    3    0    0 -0.63402026492E+01  0.44909057583E+02 -0.26266494856E+03  0.26655186517E+03  0.00000000000E+00 0.  1.
         21    1    1    2  502  501  0.59388594446E+01  0.42428217335E+02 -0.15177732843E+03  0.15770789804E+03  0.00000000000E+00 0.  1.
<scales pt_clust_5="13000.00000" pt_clust_6="13000.00000" pt_clust_7="13000.00000" pt_clust_8="13000.00000" pt_clust_9="42.84184"></scales>
<clustering>
<clus scale="   42.842">  2  9  1 -1</clus>
<clus scale="   91.786">  7  8 -1 -1</clus>
<clus scale="   92.923">  5  6 -1 -1</clus>
<clus scale="   98.645">  2  7  1 -1</clus>
<clus scale="   99.704">  1  5  2 -1</clus>
</clustering>
</event>
<event>
 9    1  0.1713970E-005  0.9628619E+02  0.7546771E-02  0.1290222E+00
         -2   -1    0    0    0  501 -0.00000000000E+00  0.00000000000E+00  0.28166447663E+02  0.28166447663E+02  0.00000000000E+00 0.  1.
          2   -1    0    0  502    0  0.00000000000E+00 -0.00000000000E+00 -0.54399447673E+03  0.54399447673E+03  0.00000000000E+00 0. -1.
         23    2    1    2    0    0 -0.44664480737E+02  0.49410675856E+01 -0.18282173518E+03  0.20983774200E+03  0.92675569176E+02 0.  0.
         23    2    1    2    0    0  0.10367873653E+02  0.22745463919E+02 -0.26999460148E+03  0.28542536277E+03  0.89138678192E+02 0.  0.
        -11    1    3    3    0    0 -0.59628589072E+02  0.34272328466E+02 -0.13835552302E+03  0.15450699623E+03  0.00000000000E+00 0. -1.
         11    1    3    3    0    0  0.14964108335E+02 -0.29331260880E+02 -0.44466212160E+02  0.55330745765E+02  0.00000000000E+00 0.  1.
        -11    1    4    4    0    0 -0.23816270055E+02 -0.83000069528E+01 -0.22943290234E+02  0.34095445466E+02  0.00000000000E+00 0.  1.
         11    1    4    4    0    0  0.34184143708E+02  0.31045470872E+02 -0.24705131125E+03  0.25132991730E+03  0.00000000000E+00 0. -1.
         21    1    1    2  502  501  0.34296607084E+02 -0.27686531505E+02 -0.63011692401E+02  0.76897819627E+02  0.00000000000E+00 0.  1.
<scales pt_clust_5="13000.00000" pt_clust_6="13000.00000" pt_clust_7="13000.00000" pt_clust_8="13000.00000" pt_clust_9="44.07722"></scales>
<clustering>
<clus scale="   44.077">  1  9  2 -1</clus>
<clus scale="   89.139">  7  8 -1 -1</clus>
<clus scale="   92.676">  5  6 -1 -1</clus>
<clus scale="   92.887">  2  7  1 -1</clus>
<clus scale="   92.887">  2  5  1 -1</clus>
</clustering>
</event>
<event>
 9    1  0.1713970E-005  0.9702095E+02  0.7546771E-02  0.1292531E+00
          2   -1    0    0  502    0  0.00000000000E+00  0.00000000000E+00  0.37118296313E+03  0.37118296313E+03  0.00000000000E+00 0. -1.
         -2   -1    0    0    0  501 -0.00000000000E+00 -0.00000000000E+00 -0.37313424837E+02  0.37313424837E+02  0.00000000000E+00 0.  1.
         23    2    1    2    0    0 -0.13061984335E+01 -0.39895532422E+02  0.15751365860E+03  0.18668470192E+03  0.91909007312E+02 0.  0.
         23    2    1    2    0    0  0.25482803099E+02  0.17675690004E+02  0.16599066550E+03  0.18737816640E+03  0.81214979760E+02 0.  0.
        -11    1    3    3    0    0 -0.42919268746E+02 -0.38128670462E+02  0.10488383489E+03  0.11956788014E+03  0.00000000000E+00 0. -1.
         11    1    3    3    0    0  0.41613070312E+02 -0.17668619606E+01  0.52629823707E+02  0.67116821777E+02  0.00000000000E+00 0.  1.
        -11    1    4    4    0    0  0.34441087597E+02 -0.95019606879E+01  0.25229963260E+02  0.43738162032E+02  0.00000000000E+00 0.  1.
         11    1    4    4    0    0 -0.89582844983E+01  0.27177650691E+02  0.14076070224E+03  0.14364000436E+03  0.00000000000E+00 0. -1.
         21    1    1    2  502  501 -0.24176604666E+02  0.22219842419E+02  0.10365214195E+02  0.34433519651E+02  0.00000000000E+00 0.  1.
<scales pt_clust_5="13000.00000" pt_clust_6="13000.00000" pt_clust_7="13000.00000" pt_clust_8="13000.00000" pt_clust_9="32.83641"></scales>
<clustering>
<clus scale="   32.836">  2  9  1 -1</clus>
<clus scale="   81.215">  7  8 -1 -1</clus>
<clus scale="   86.958">  1  7  2 -1</clus>
<clus scale="   91.909">  5  6 -1 -1</clus>
<clus scale="   86.958">  1  5  2 -1</clus>
</clustering>
</event>
<event>
 9    1  0.1713970E-005  0.1277125E+03  0.7546771E-02  0.1231327E+00
          1   -1    0    0  502    0  0.00000000000E+00  0.00000000000E+00  0.65160036509E+03  0.65160036509E+03  0.00000000000E+00 0. -1.
         -1   -1    0    0    0  501 -0.00000000000E+00 -0.00000000000E+00 -0.20518063224E+03  0.20518063224E+03  0.00000000000E+00 0.  1.
         23    2    1    2    0    0 -0.54226123429E+01  0.86611216040E+02 -0.15526054742E+03  0.19896812694E+03  0.89171578902E+02 0.  0.
         23    2    1    2    0    0  0.69983286786E+02 -0.12873434346E+03  0.29571863705E+03  0.34228955006E+03  0.90787841525E+02 0.  0.
        -13    1    4    4    0    0  0.49444640877E+02 -0.87402846404E+02  0.10195237458E+03  0.14310246942E+03  0.00000000000E+00 0. -1.
         13    1    4    4    0    0  0.20538645909E+02 -0.41331497051E+02  0.19376626246E+03  0.19918708064E+03  0.00000000000E+00 0.  1.
        -13    1    3    3    0    0  0.31108066871E+02  0.81423569816E+02 -0.10190721138E+03  0.13409917702E+03  0.00000000000E+00 0.  1.
         13    1    3    3    0    0 -0.36530679214E+02  0.51876462249E+01 -0.53353336037E+02  0.64868949918E+02  0.00000000000E+00 0. -1.
         21    1    1    2  502  501 -0.64560674443E+02  0.42123127415E+02  0.30596164323E+03  0.31552332034E+03  0.00000000000E+00 0.  1.
<scales pt_clust_5="13000.00000" pt_clust_6="13000.00000" pt_clust_7="13000.00000" pt_clust_8="13000.00000" pt_clust_9="77.08721"></scales>
<clustering>
<clus scale="   77.087">  1  9  2 -1</clus>
<clus scale="   89.172">  7  8 -1 -1</clus>
<clus scale="   90.788">  5  6 -1 -1</clus>
<clus scale="  126.569">  2  7  1 -1</clus>
<clus scale="   77.087">  1  5  2 -1</clus>
</clustering>
</event>
<event>
 9    1  0.1713970E-005  0.9694706E+02  0.7546771E-02  0.1287083E+00
          1   -1    0    0  502    0  0.00000000000E+00  0.00000000000E+00  0.27838694701E+03  0.27838694701E+03  0.00000000000E+00 0. -1.
         -1   -1    0    0    0  501 -0.00000000000E+00 -0.00000000000E+00 -0.68457451002E+02  0.68457451002E+02  0.00000000000E+00 0.  1.
         23    2    1    2    0    0 -0.33992046488E+02 -0.37421748612E+02  0.38352872896E+02  0.11086465127E+03  0.90907543962E+02 0.  0.
         23    2    1    2    0    0  0.24770127369E+02  0.14699013605E+02  0.18506487457E+03  0.20799226014E+03  0.90455250092E+02 0.  0.
        -11    1    3    3    0    0 -0.49860813344E+02  0.12370668412E+02  0.23789887220E+02  0.56613539707E+02  0.00000000000E+00 0. -1.
         11    1    3    3    0    0  0.15868766855E+02 -0.49792417023E+02  0.14562985675E+02  0.54251111567E+02  0.00000000000E+00 0.  1.
        -13    1    4    4    0    0  0.68286946564E+01 -0.38337386155E+02  0.75530360652E+02  0.84977771377E+02  0.00000000000E+00 0.  1.
         13    1    4    4    0    0  0.17941432713E+02  0.53036399760E+02  0.10953451392E+03  0.12301448877E+03  0.00000000000E+00 0. -1.
         21    1    1    2  502  501  0.92219191195E+01  0.22722735007E+02 -0.13488251457E+02  0.27987486593E+02  0.00000000000E+00 0. -1.
<scales pt_clust_5="13000.00000" pt_clust_6="13000.00000" pt_clust_7="13000.00000" pt_clust_8="13000.00000" pt_clust_9="24.52277"></scales>
<clustering>
<clus scale="   24.523">  2  9  1 -1</clus>
<clus scale="   90.455">  7  8 -1 -1</clus>
<clus scale="   90.908">  5  6 -1 -1</clus>
<clus scale="   96.523">  1  7  2 -1</clus>
<clus scale="   96.523">  1  5  2 -1</clus>
</clustering>
</event>
<event>
 9    1  0.1713970E-005  0.9995066E+02  0.7546771E-02  0.1282366E+00
          2   -1    0    0  502    0  0.00000000000E+00  0.00000000000E+00  0.38378909149E+03  0.38378909149E+03  0.00000000000E+00 0. -1.
         -2   -1    0    0    0  501 -0.00000000000E+00 -0.00000000000E+00 -0.34303273856E+03  0.34303273856E+03  0.00000000000E+00 0.  1.
         23    2    1    2    0    0 -0.62235405765E+01 -0.23194714721E+02 -0.25945935589E+03  0.27548724077E+03  0.89427821306E+02 0.  0.
         23    2    1    2    0    0 -0.17995505695E+02  0.31361052587E+02  0.36669209862E+03  0.38011407484E+03  0.93360917155E+02 0.  0.
        -13    1    4    4    0    0 -0.52289509459E+02  0.28379835657E+00  0.16095673511E+03  0.16923753696E+03  0.00000000000E+00 0. -1.
         13    1    4    4    0    0  0.34294003764E+02  0.31077254230E+02  0.20573536352E+03  0.21087653787E+03  0.00000000000E+00 0.  1.
        -13    1    3    3    0    0 -0.41965290762E+02 -0.32838176739E+02 -0.18192707826E+03  0.18957028587E+03  0.00000000000E+00 0.  1.
         13    1    3    3    0    0  0.35741750186E+02  0.96434620180E+01 -0.77532277626E+02  0.85916954904E+02  0.00000000000E+00 0. -1.
         21    1    1    2  502  501  0.24219046271E+02 -0.81663378660E+01 -0.66476389805E+02  0.71220514446E+02  0.00000000000E+00 0.  1.
<scales pt_clust_5="13000.00000" pt_clust_6="13000.00000" pt_clust_7="13000.00000" pt_clust_8="13000.00000" pt_clust_9="25.55878"></scales>
<clustering>
<clus scale="   25.559">  2  9  1 -1</clus>
<clus scale="   89.428">  7  8 -1 -1</clus>
<clus scale="   93.361">  5  6 -1 -1</clus>
<clus scale="   96.287">  2  7  1 -1</clus>
<clus scale="   99.951">  1  5  2 -1</clus>
</clustering>
</event>
<event>
 9    1  0.1713970E-005  0.1155024E+03  0.7546771E-02  0.1255412E+00
         -1   -1    0    0    0  501 -0.00000000000E+00  0.00000000000E+00  0.25605752271E+02  0.25605752271E+02  0.00000000000E+00 0.  1.
          1   -1    0    0  502    0  0.00000000000E+00 -0.00000000000E+00 -0.81938388623E+03  0.81938388623E+03  0.00000000000E+00 0. -1.
         23    2    1    2    0    0 -0.31486648595E+02 -0.15277480572E+02 -0.31567164585E+03  0.33385274251E+03  0.10287980964E+03 0.  0.
         23    2    1    2    0    0  0.68769938233E+02 -0.22192971455E+01 -0.44151243652E+03  0.45604328903E+03  0.91148341638E+02 0.  0.
        -11    1    3    3    0    0 -0.51550301088E+02  0.27815477174E+02 -0.13766976770E+03  0.14961316537E+03  0.00000000000E+00 0.  1.
         11    1    3    3    0    0  0.20063652493E+02 -0.43092957746E+02 -0.17800187815E+03  0.18423957714E+03  0.00000000000E+00 0. -1.
        -11    1    4    4    0    0  0.16847072381E+02  0.36076924240E+02 -0.86608182231E+02  0.95322324456E+02  0.00000000000E+00 0.  1.
         11    1    4    4    0    0  0.51922865852E+02 -0.38296221385E+02 -0.35490425429E+03  0.36072096458E+03  0.00000000000E+00 0. -1.
         21    1    1    2  502  501 -0.37283289638E+02  0.17496777717E+02 -0.36594051584E+02  0.55093606962E+02  0.00000000000E+00 0. -1.
<scales pt_clust_5="13000.00000" pt_clust_6="13000.00000" pt_clust_7="13000.00000" pt_clust_8="13000.00000" pt_clust_9="41.18472"></scales>
<clustering>
<clus scale="   41.185">  1  9  2 -1</clus>
<clus scale="   91.148">  7  8 -1 -1</clus>
<clus scale="  102.880">  5  6 -1 -1</clus>
<clus scale="  105.188">  2  7  1 -1</clus>
<clus scale="  105.188">  2  5  1 -1</clus>
</clustering>
</event>
<event>
 9    1  0.1713970E-005  0.1072212E+03  0.7546771E-02  0.1267303E+00
          2   -1    0    0  502    0  0.00000000000E+00  0.00000000000E+00  0.79201659225E+03  0.79201659225E+03  0.00000000000E+00 0.  1.
         -2   -1    0    0    0  501 -0.00000000000E+00 -0.00000000000E+00 -0.23464579421E+02  0.23464579421E+02  0.00000000000E+00 0. -1.
         23    2    1    2    0    0  0.49041302853E+02  0.40680788447E+02  0.36157142000E+03  0.37893368533E+03  0.93791631713E+02 0.  0.
         23    2    1    2    0    0 -0.33483593322E+02 -0.28012775427E+02  0.40401198243E+03  0.41626612723E+03  0.90254862067E+02 0.  0.
        -11    1    4    4    0    0 -0.52503758317E+02 -0.34369916534E+02  0.37922664552E+03  0.38438364230E+03  0.00000000000E+00 0. -1.
         11    1    4    4    0    0  0.19020164995E+02  0.63571411068E+01  0.24785336911E+02  0.31882484930E+02  0.00000000000E+00 0.  1.
        -13    1    3    3    0    0  0.74486524719E+02  0.45460265745E+02  0.26819439081E+03  0.28203387986E+03  0.00000000000E+00 0.  1.
         13    1    3    3    0    0 -0.25445221866E+02 -0.47794772981E+01  0.93377029192E+02  0.96899805468E+02  0.00000000000E+00 0. -1.
         21    1    1    2  502  501 -0.15557709531E+02 -0.12668013020E+02  0.29686103998E+01  0.20281359112E+02  0.00000000000E+00 0. -1.
<scales pt_clust_5="13000.00000" pt_clust_6="13000.00000" pt_clust_7="13000.00000" pt_clust_8="13000.00000" pt_clust_9="20.06292"></scales>
<clustering>
<clus scale="   20.063">  2  9  1 -1</clus>
<clus scale="   90.255">  5  6 -1 -1</clus>
<clus scale="   93.792">  7  8 -1 -1</clus>
<clus scale="  104.142">  1  5  2 -1</clus>
<clus scale="  104.142">  1  5  2 -1</clus>
</clustering>
</event>
<event>
 9    1  0.1713970E-005  0.1524567E+03  0.7546771E-02  0.1198982E+00
         -1   -1    0    0    0  501 -0.00000000000E+00  0.00000000000E+00  0.21108288739E+03  0.21108288739E+03  0.00000000000E+00 0.  1.
          1   -1    0    0  502    0  0.00000000000E+00 -0.00000000000E+00 -0.14717114332E+03  0.14717114332E+03  0.00000000000E+00 0. -1.
         23    2    1    2    0    0  0.91752606197E+02 -0.60472262049E+02  0.27736191560E+02  0.14095172472E+03  0.83801295680E+02 0.  0.
         23    2    1    2    0    0 -0.10561800864E+03  0.78516238520E+02 -0.14946441938E+02  0.16134435046E+03  0.92133814846E+02 0.  0.
        -11    1    3    3    0    0  0.26148596271E+02 -0.64991962616E+02  0.27312242723E+02  0.75190843153E+02  0.00000000000E+00 0.  1.
         11    1    3    3    0    0  0.65604009926E+02  0.45197005668E+01  0.42394883697E+00  0.65760881565E+02  0.00000000000E+00 0. -1.
        -13    1    4    4    0    0 -0.54268210608E+02  0.17633026979E+02 -0.48529544909E+02  0.74907136190E+02  0.00000000000E+00 0. -1.
         13    1    4    4    0    0 -0.51349798035E+02  0.60883211541E+02  0.33583102971E+02  0.86437214271E+02  0.00000000000E+00 0.  1.
         21    1    1    2  502  501  0.13865402446E+02 -0.18043976471E+02  0.51121994448E+02  0.55957955540E+02  0.00000000000E+00 0.  1.
<scales pt_clust_5="13000.00000" pt_clust_6="13000.00000" pt_clust_7="13000.00000" pt_clust_8="13000.00000" pt_clust_9="22.75598"></scales>
<clustering>
<clus scale="   22.756">  1  9  2 -1</clus>
<clus scale="   83.801">  5  6 -1 -1</clus>
<clus scale="   92.134">  7  8 -1 -1</clus>
<clus scale="  147.570">  1  5  2 -1</clus>
<clus scale="  152.457">  2  5  1 -1</clus>
</clustering>
</event>
<event>
 9    1  0.1713970E-005  0.2012747E+03  0.7546771E-02  0.1148710E+00
         -2   -1    0    0    0  501 -0.00000000000E+00  0.00000000000E+00  0.83833383322E+02  0.83833383322E+02  0.00000000000E+00 0.  1.
          2   -1    0    0  502    0  0.00000000000E+00 -0.00000000000E+00 -0.74354661160E+03  0.74354661160E+03  0.00000000000E+00 0. -1.
         23    2    1    2    0    0  0.70727329239E+02  0.17768989634E+03 -0.29294577900E+03  0.36151519109E+03  0.91104059142E+02 0.  0.
         23    2    1    2    0    0 -0.13220227694E+03 -0.11847502163E+03 -0.28198728421E+03  0.34555999524E+03  0.91548397441E+02 0.  0.
        -11    1    4    4    0    0 -0.62362619779E+02 -0.78084058729E+02 -0.79843447747E+02  0.12791087804E+03  0.00000000000E+00 0.  1.
         11    1    4    4    0    0 -0.69839657163E+02 -0.40390962903E+02 -0.20214383646E+03  0.21764911719E+03  0.00000000000E+00 0. -1.
        -13    1    3    3    0    0  0.45059812891E+02  0.16756471648E+03 -0.28343294064E+03  0.33232898277E+03  0.00000000000E+00 0. -1.
         13    1    3    3    0    0  0.25667516348E+02  0.10125179862E+02 -0.95128383609E+01  0.29186208325E+02  0.00000000000E+00 0.  1.
         21    1    1    2  502  501  0.61474947703E+02 -0.59214874706E+02 -0.84780165066E+02  0.12030480859E+03  0.00000000000E+00 0.  1.
<scales pt_clust_5="13000.00000" pt_clust_6="13000.00000" pt_clust_7="13000.00000" pt_clust_8="13000.00000" pt_clust_9="85.35555"></scales>
<clustering>
<clus scale="   85.356">  1  9  2 -1</clus>
<clus scale="   91.104">  7  8 -1 -1</clus>
<clus scale="   91.548">  5  6 -1 -1</clus>
<clus scale="  201.073">  1  7  2 -1</clus>
<clus scale="  201.275">  2  5  1 -1</clus>
</clustering>
</event>
<event>
 9    1  0.1713970E-005  0.1304517E+03  0.7546771E-02  0.1236242E+00
         -1   -1    0    0    0  501 -0.00000000000E+00  0.00000000000E+00  0.58203419274E+02  0.58203419274E+02  0.00000000000E+00 0.  1.
          1   -1    0    0  502    0  0.00000000000E+00 -0.00000000000E+00 -0.35713628423E+03  0.35713628423E+03  0.00000000000E+00 0. -1.
         23    2    1    2    0    0 -0.82172657248E+01 -0.35210873602E+02 -0.11587868264E+03  0.17045971302E+03  0.11967169923E+03 0.  0.
         23    2    1    2    0    0  0.15742642610E+02  0.58723762741E+02 -0.18884469645E+03  0.21952220456E+03  0.93975357470E+02 0.  0.
        -11    1    4    4    0    0 -0.21907342795E+01  0.74108629239E+02 -0.17932669126E+03  0.19404883520E+03  0.00000000000E+00 0. -1.
         11    1    4    4    0    0  0.17933376889E+02 -0.15384866498E+02 -0.95180051897E+01  0.25473369361E+02  0.00000000000E+00 0.  1.
        -13    1    3    3    0    0 -0.23260420498E+02 -0.76303967534E+02 -0.86969091528E+02  0.11801256503E+03  0.00000000000E+00 0. -1.
         13    1    3    3    0    0  0.15043154774E+02  0.41093093933E+02 -0.28909591115E+02  0.52447147996E+02  0.00000000000E+00 0.  1.
         21    1    1    2  502  501 -0.75253768850E+01 -0.23512889139E+02  0.57905141328E+01  0.25357785922E+02  0.00000000000E+00 0.  1.
<scales pt_clust_5="13000.00000" pt_clust_6="13000.00000" pt_clust_7="13000.00000" pt_clust_8="13000.00000" pt_clust_9="24.68780"></scales>
<clustering>
<clus scale="   24.688">  1  9  2 -1</clus>
<clus scale="   93.975">  5  6 -1 -1</clus>
<clus scale="  107.367">  2  5  1 -1</clus>
<clus scale="  119.672">  7  8 -1 -1</clus>
<clus scale="  107.367">  2  5  1 -1</clus>
</clustering>
</event>
<event>
 9    1  0.1713970E-005  0.1552000E+03  0.7546771E-02  0.1194800E+00
          2   -1    0    0  502    0  0.00000000000E+00  0.00000000000E+00  0.34230622090E+03  0.34230622090E+03  0.00000000000E+00 0. -1.
         -2   -1    0    0    0  501 -0.00000000000E+00 -0.00000000000E+00 -0.14689520275E+03  0.14689520275E+03  0.00000000000E+00 0.  1.
         23    2    1    2    0    0 -0.40964881051E+02  0.13177057575E+03  0.11152007928E+03  0.19848488165E+03  0.88982661502E+02 0.  0.
         23    2    1    2    0    0  0.44042894230E+02 -0.11165109081E+03  0.15669425428E+03  0.21512163097E+03  0.85548139518E+02 0.  0.
        -11    1    4    4    0    0  0.57824262743E+02 -0.32204207434E+02  0.61286486739E+02  0.90204156196E+02  0.00000000000E+00 0. -1.
         11    1    4    4    0    0 -0.13781368513E+02 -0.79446883377E+02  0.95407767546E+02  0.12491747478E+03  0.00000000000E+00 0.  1.
        -11    1    3    3    0    0  0.19536257060E+02  0.25570212941E+02  0.55230375942E+02  0.63921010290E+02  0.00000000000E+00 0. -1.
         11    1    3    3    0    0 -0.60501138111E+02  0.10620036281E+03  0.56289703334E+02  0.13456387136E+03  0.00000000000E+00 0.  1.
         21    1    1    2  502  501 -0.30780131789E+01 -0.20119484935E+02 -0.72803315408E+02  0.75594911030E+02  0.00000000000E+00 0.  1.
<scales pt_clust_5="13000.00000" pt_clust_6="13000.00000" pt_clust_7="13000.00000" pt_clust_8="13000.00000" pt_clust_9="20.35357"></scales>
<clustering>
<clus scale="   20.354">  2  9  1 -1</clus>
<clus scale="   85.548">  5  6 -1 -1</clus>
<clus scale="   88.983">  7  8 -1 -1</clus>
<clus scale="  153.257">  1  5  2 -1</clus>
<clus scale="  153.257">  1  5  2 -1</clus>
</clustering>
</event>
<event>
 9    1  0.1713970E-005  0.1491523E+03  0.7546771E-02  0.1210242E+00
         -1   -1    0    0    0  501 -0.00000000000E+00  0.00000000000E+00  0.10183666273E+03  0.10183666273E+03  0.00000000000E+00 0.  1.
          1   -1    0    0  502    0  0.00000000000E+00 -0.00000000000E+00 -0.30734119548E+03  0.30734119548E+03  0.00000000000E+00 0. -1.
         23    2    1    2    0    0 -0.78604223654E+01 -0.64908591169E+02 -0.57626921525E+01  0.14080510138E+03  0.12457109017E+03 0.  0.
         23    2    1    2    0    0  0.42674983240E+02  0.76857532681E+02 -0.19233904633E+03  0.23082768771E+03  0.92514205103E+02 0.  0.
        -13    1    4    4    0    0  0.70374872803E+02  0.69548529739E+02 -0.14702172084E+03  0.17721457928E+03  0.00000000000E+00 0.  1.
         13    1    4    4    0    0 -0.27699889563E+02  0.73090029415E+01 -0.45317325497E+02  0.53613108434E+02  0.00000000000E+00 0. -1.
        -13    1    3    3    0    0  0.23656765219E+02  0.18106938146E+02  0.32523948924E+02  0.44105679944E+02  0.00000000000E+00 0.  1.
         13    1    3    3    0    0 -0.31517187584E+02 -0.83015529315E+02 -0.38286641077E+02  0.96699421434E+02  0.00000000000E+00 0. -1.
         21    1    1    2  502  501 -0.34814560875E+02 -0.11948941512E+02 -0.74027942605E+01  0.37545069118E+02  0.00000000000E+00 0.  1.
<scales pt_clust_5="13000.00000" pt_clust_6="13000.00000" pt_clust_7="13000.00000" pt_clust_8="13000.00000" pt_clust_9="36.80803"></scales>
<clustering>
<clus scale="   36.808">  1  9  2 -1</clus>
<clus scale="   92.514">  5  6 -1 -1</clus>
<clus scale="  123.642">  2  5  1 -1</clus>
<clus scale="  124.571">  7  8 -1 -1</clus>
<clus scale="  123.642">  2  5  1 -1</clus>
</clustering>
</event>
<event>
 9    1  0.1713970E-005  0.1494407E+03  0.7546771E-02  0.1203610E+00
         -2   -1    0    0    0  501 -0.00000000000E+00  0.00000000000E+00  0.47534242047E+02  0.47534242047E+02  0.00000000000E+00 0.  1.
          2   -1    0    0  502    0  0.00000000000E+00 -0.00000000000E+00 -0.63312424082E+03  0.63312424082E+03  0.00000000000E+00 0. -1.
         23    2    1    2    0    0  0.26084405405E+02 -0.83718334701E+02 -0.17197140801E+03  0.22144148322E+03  0.10850350017E+03 0.  0.
         23    2    1    2    0    0 -0.29190855484E+02  0.10669861979E+03 -0.41001503397E+03  0.43574938032E+03  0.97613999317E+02 0.  0.
        -11    1    4    4    0    0  0.19998186327E+02  0.50056365587E+02 -0.74535333107E+02  0.91984145772E+02  0.00000000000E+00 0.  1.
         11    1    4    4    0    0 -0.49189041811E+02  0.56642254204E+02 -0.33547970086E+03  0.34376523455E+03  0.00000000000E+00 0. -1.
        -13    1    3    3    0    0  0.56598775443E+02 -0.90788170384E+02 -0.12005252417E+03  0.16080585134E+03  0.00000000000E+00 0.  1.
         13    1    3    3    0    0 -0.30514370039E+02  0.70698356838E+01 -0.51918883834E+02  0.60635631884E+02  0.00000000000E+00 0. -1.
         21    1    1    2  502  501  0.31064500796E+01 -0.22980285090E+02 -0.36035567904E+01  0.23467619318E+02  0.00000000000E+00 0.  1.
<scales pt_clust_5="13000.00000" pt_clust_6="13000.00000" pt_clust_7="13000.00000" pt_clust_8="13000.00000" pt_clust_9="23.18930"></scales>
<clustering>
<clus scale="   23.189">  1  9  2 -1</clus>
<clus scale="   97.614">  5  6 -1 -1</clus>
<clus scale="  108.504">  7  8 -1 -1</clus>
<clus scale="  141.732">  2  5  1 -1</clus>
<clus scale="  141.732">  2  5  1 -1</clus>
</clustering>
</event>
<event>
 9    1  0.1713970E-005  0.1081531E+03  0.7546771E-02  0.1268742E+00
          1   -1    0    0  502    0  0.00000000000E+00  0.00000000000E+00  0.52106037692E+03  0.52106037692E+03  0.00000000000E+00 0. -1.
         -1   -1    0    0    0  501 -0.00000000000E+00 -0.00000000000E+00 -0.26728455888E+02  0.26728455888E+02  0.00000000000E+00 0.  1.
         23    2    1    2    0    0  0.29501910732E+02 -0.17559905028E+02  0.17358573397E+03  0.20328012981E+03  0.10006043742E+03 0.  0.
         23    2    1    2    0    0 -0.46712144791E+02  0.21995873420E+01  0.27945722951E+03  0.29721272504E+03  0.89734041152E+02 0.  0.
        -11    1    4    4    0    0 -0.52716246467E+01 -0.40074980774E+02  0.88580440025E+02  0.97366772903E+02  0.00000000000E+00 0.  1.
         11    1    4    4    0    0 -0.41440520145E+02  0.42274568116E+02  0.19087678949E+03  0.19984595213E+03  0.00000000000E+00 0. -1.
        -13    1    3    3    0    0 -0.25886278480E+02 -0.23924816516E+02  0.21479117614E+02  0.41277702848E+02  0.00000000000E+00 0.  1.
         13    1    3    3    0    0  0.55388189212E+02  0.63649114885E+01  0.15210661635E+03  0.16200242696E+03  0.00000000000E+00 0. -1.
         21    1    1    2  502  501  0.17210234059E+02  0.15360317685E+02  0.41288957552E+02  0.47295977964E+02  0.00000000000E+00 0. -1.
<scales pt_clust_5="13000.00000" pt_clust_6="13000.00000" pt_clust_7="13000.00000" pt_clust_8="13000.00000" pt_clust_9="23.06798"></scales>
<clustering>
<clus scale="   23.068">  2  9  1 -1</clus>
<clus scale="   89.734">  5  6 -1 -1</clus>
<clus scale="   98.677">  1  5  2 -1</clus>
<clus scale="  100.060">  7  8 -1 -1</clus>
<clus scale="   98.677">  1  5  2 -1</clus>
</clustering>
</event>
<event>
 9    1  0.1713970E-005  0.9880325E+02  0.7546771E-02  0.1283366E+00
          2   -1    0    0  502    0  0.00000000000E+00  0.00000000000E+00  0.65779231298E+03  0.65779231298E+03  0.00000000000E+00 0. -1.
         -2   -1    0    0    0  501 -0.00000000000E+00 -0.00000000000E+00 -0.27951249948E+02  0.27951249948E+02  0.00000000000E+00 0.  1.
         23    2    1    2    0    0  0.72137014434E+01 -0.26471130658E+02  0.20158322785E+03  0.22308449320E+03  0.91532153424E+02 0.  0.
         23    2    1    2    0    0  0.20835440953E+02  0.40799821212E+02  0.41709331685E+03  0.42924182520E+03  0.90459761933E+02 0.  0.
        -11    1    3    3    0    0 -0.39100110800E+02 -0.20099471330E+02  0.13304272820E+03  0.14011843183E+03  0.00000000000E+00 0.  1.
         11    1    3    3    0    0  0.46313812244E+02 -0.63716593283E+01  0.68540499653E+02  0.82966061374E+02  0.00000000000E+00 0. -1.
        -13    1    4    4    0    0  0.41492173659E+00 -0.26538390357E+02  0.65444804785E+02  0.70622098497E+02  0.00000000000E+00 0.  1.
         13    1    4    4    0    0  0.20420519216E+02  0.67338211569E+02  0.35164851206E+03  0.35861972670E+03  0.00000000000E+00 0. -1.
         21    1    1    2  502  501 -0.28049142396E+02 -0.14328690553E+02  0.11164518335E+02  0.33417244527E+02  0.00000000000E+00 0. -1.
<scales pt_clust_5="13000.00000" pt_clust_6="13000.00000" pt_clust_7="13000.00000" pt_clust_8="13000.00000" pt_clust_9="31.49708"></scales>
<clustering>
<clus scale="   31.497">  2  9  1 -1</clus>
<clus scale="   90.460">  7  8 -1 -1</clus>
<clus scale="   91.532">  5  6 -1 -1</clus>
<clus scale="   97.811">  1  7  2 -1</clus>
<clus scale="   97.811">  1  5  2 -1</clus>
</clustering>
</event>
<event>
 9    1  0.1713970E-005  0.1544180E+03  0.7546771E-02  0.1195189E+00
         -2   -1    0    0    0  501 -0.00000000000E+00  0.00000000000E+00  0.68335486465E+02  0.68335486465E+02  0.00000000000E+00 0.  1.
          2   -1    0    0  502    0  0.00000000000E+00 -0.00000000000E+00 -0.45974937866E+03  0.45974937866E+03  0.00000000000E+00 0. -1.
         23    2    1    2    0    0  0.45337329805E+02  0.11351801143E+03 -0.17530817024E+03  0.23238528281E+03  0.91258713115E+02 0.  0.
         23    2    1    2    0    0 -0.65121615943E+02 -0.10899450055E+03 -0.22455929603E+03  0.27371451823E+03  0.91499366358E+02 0.  0.
        -11    1    4    4    0    0 -0.34482092432E+02  0.35630821285E+01 -0.25655356696E+02  0.43126645823E+02  0.00000000000E+00 0.  1.
         11    1    4    4    0    0 -0.30639523511E+02 -0.11255758268E+03 -0.19890393933E+03  0.23058787241E+03  0.00000000000E+00 0. -1.
        -11    1    3    3    0    0  0.99473862500E+01  0.56041757495E+02 -0.15626598075E+02  0.59023890449E+02  0.00000000000E+00 0.  1.
         11    1    3    3    0    0  0.35389943555E+02  0.57476253935E+02 -0.15968157216E+03  0.17336139236E+03  0.00000000000E+00 0. -1.
         21    1    1    2  502  501  0.19784286139E+02 -0.45235108829E+01  0.84535740686E+01  0.21985064095E+02  0.00000000000E+00 0. -1.
<scales pt_clust_5="13000.00000" pt_clust_6="13000.00000" pt_clust_7="13000.00000" pt_clust_8="13000.00000" pt_clust_9="20.29483"></scales>
<clustering>
<clus scale="   20.295">  1  9  2 -1</clus>
<clus scale="   91.259">  7  8 -1 -1</clus>
<clus scale="   91.499">  5  6 -1 -1</clus>
<clus scale="  154.275">  1  7  2 -1</clus>
<clus scale="  154.418">  2  5  1 -1</clus>
</clustering>
</event>
<event>
 9    1  0.1713970E-005  0.1459192E+03  0.7546771E-02  0.1224121E+00
          3   -1    0    0  502    0  0.00000000000E+00  0.00000000000E+00  0.16453999702E+03  0.16453999702E+03  0.00000000000E+00 0. -1.
         -3   -1    0    0    0  501 -0.00000000000E+00 -0.00000000000E+00 -0.43267797307E+03  0.43267797307E+03  0.00000000000E+00 0.  1.
         23    2    1    2    0    0 -0.36474216996E+02  0.12337192089E+03 -0.10133426124E+03  0.18806826672E+03  0.92466432172E+02 0.  0.
         23    2    1    2    0    0 -0.99960342981E+01 -0.24654505322E+02  0.87914804415E+02  0.13204658821E+03  0.94865817283E+02 0.  0.
        -11    1    3    3    0    0  0.13490181387E+02  0.99154746210E+02 -0.47644570232E+02  0.11083164603E+03  0.00000000000E+00 0. -1.
         11    1    3    3    0    0 -0.49964398383E+02  0.24217174677E+02 -0.53689691009E+02  0.77236620691E+02  0.00000000000E+00 0.  1.
        -11    1    4    4    0    0 -0.52196122487E+02 -0.65625519518E+01  0.47517515442E+02  0.70890172553E+02  0.00000000000E+00 0.  1.
         11    1    4    4    0    0  0.42200088189E+02 -0.18091953370E+02  0.40397288974E+02  0.61156415659E+02  0.00000000000E+00 0. -1.
         21    1    1    2  502  501  0.46470251294E+02 -0.98717415565E+02 -0.25471851923E+03  0.27710311516E+03  0.00000000000E+00 0. -1.
<scales pt_clust_5="13000.00000" pt_clust_6="13000.00000" pt_clust_7="13000.00000" pt_clust_8="13000.00000" pt_clust_9="112.88209"></scales>
<clustering>
<clus scale="   92.466">  5  6 -1 -1</clus>
<clus scale="   94.866">  7  8 -1 -1</clus>
<clus scale="   98.526">  1  7  2 -1</clus>
<clus scale="  112.882">  2  9  1 -1</clus>
<clus scale="   98.526">  1  5  2 -1</clus>
</clustering>
</event>
<event>
 9    1  0.1713970E-005  0.1004267E+03  0.7546771E-02  0.1281115E+00
         -1   -1    0    0    0  501 -0.00000000000E+00  0.00000000000E+00  0.26885496682E+02  0.26885496682E+02  0.00000000000E+00 0.  1.
          1   -1    0    0  502    0  0.00000000000E+00 -0.00000000000E+00 -0.57289885994E+03  0.57289885994E+03  0.00000000000E+00 0. -1.
         23    2    1    2    0    0 -0.37930896730E+02 -0.45221391792E+02 -0.16390039294E+03  0.19492042497E+03  0.87446589768E+02 0.  0.
         23    2    1    2    0    0  0.70339021676E+01  0.35973664230E+02 -0.32237984955E+03  0.33698027784E+03  0.91012965895E+02 0.  0.
        -11    1    4    4    0    0  0.33694352834E+02  0.40700240702E+02 -0.28998794765E+03  0.29476232593E+03  0.00000000000E+00 0. -1.
         11    1    4    4    0    0 -0.26660450666E+02 -0.47265764724E+01 -0.32391901900E+02  0.42217951911E+02  0.00000000000E+00 0.  1.
        -13    1    3    3    0    0 -0.49174749794E+02 -0.66555386654E+01 -0.13915707295E+03  0.14774012036E+03  0.00000000000E+00 0.  1.
         13    1    3    3    0    0  0.11243853063E+02 -0.38565853126E+02 -0.24743319996E+02  0.47180304614E+02  0.00000000000E+00 0. -1.
         21    1    1    2  502  501  0.30896994563E+02  0.92477275618E+01 -0.59733120770E+02  0.67883653813E+02  0.00000000000E+00 0. -1.
<scales pt_clust_5="13000.00000" pt_clust_6="13000.00000" pt_clust_7="13000.00000" pt_clust_8="13000.00000" pt_clust_9="32.25127"></scales>
<clustering>
<clus scale="   32.251">  1  9  2 -1</clus>
<clus scale="   87.447">  7  8 -1 -1</clus>
<clus scale="   91.013">  5  6 -1 -1</clus>
<clus scale="   97.206">  1  7  2 -1</clus>
<clus scale="  100.427">  2  5  1 -1</clus>
</clustering>
</event>
<event>
 9    1  0.1713970E-005  0.1054096E+03  0.7546771E-02  0.1288195E+00
         -2   -1    0    0    0  501 -0.00000000000E+00  0.00000000000E+00  0.37890153922E+03  0.37890153922E+03  0.00000000000E+00 0.  1.
          2   -1    0    0  502    0  0.00000000000E+00 -0.00000000000E+00 -0.41645732684E+02  0.41645732684E+02  0.00000000000E+00 0. -1.
         23    2    1    2    0    0 -0.22619453258E+02  0.19906921609E+02  0.14079935791E+03  0.15725435287E+03  0.63218249858E+02 0.  0.
         23    2    1    2    0    0  0.12031037150E+01 -0.46832731261E+02  0.64026689769E+02  0.12646711634E+03  0.98487371452E+02 0.  0.
        -11    1    3    3    0    0  0.20425440464E+01 -0.20777383519E+02  0.28818492072E+02  0.35586193073E+02  0.00000000000E+00 0. -1.
         11    1    3    3    0    0 -0.24661997304E+02  0.40684305128E+02  0.11198086584E+03  0.12166815980E+03  0.00000000000E+00 0.  1.
        -13    1    4    4    0    0 -0.45520016098E+02 -0.67425737623E+01  0.37787612263E+02  0.59543579058E+02  0.00000000000E+00 0.  1.
         13    1    4    4    0    0  0.46723119813E+02 -0.40090157499E+02  0.26239077506E+02  0.66923537277E+02  0.00000000000E+00 0. -1.
         21    1    1    2  502  501  0.21416349543E+02  0.26925809652E+02  0.13242975886E+03  0.13682580270E+03  0.00000000000E+00 0.  1.
<scales pt_clust_5="13000.00000" pt_clust_6="13000.00000" pt_clust_7="13000.00000" pt_clust_8="13000.00000" pt_clust_9="34.40435"></scales>
<clustering>
<clus scale="   34.404">  1  9  2 -1</clus>
<clus scale="   63.218">  5  6 -1 -1</clus>
<clus scale="   73.539">  1  5  2 -1</clus>
<clus scale="   98.487">  7  8 -1 -1</clus>
<clus scale="  105.410">  2  5  1 -1</clus>
</clustering>
</event>
<event>
 9    1  0.1713970E-005  0.1227569E+03  0.7546771E-02  0.1239120E+00
         -1   -1    0    0    0  501 -0.00000000000E+00  0.00000000000E+00  0.78343206608E+02  0.78343206608E+02  0.00000000000E+00 0.  1.
          1   -1    0    0  502    0  0.00000000000E+00 -0.00000000000E+00 -0.43678743145E+03  0.43678743145E+03  0.00000000000E+00 0. -1.
         23    2    1    2    0    0  0.75246292928E+02  0.66438961288E+02 -0.29154711173E+02  0.13959970005E+03  0.92530745666E+02 0.  0.
         23    2    1    2    0    0 -0.34650357019E+02 -0.69707929313E+02 -0.30612236032E+03  0.32867548839E+03  0.90867125703E+02 0.  0.
        -11    1    3    3    0    0 -0.10409244220E+02  0.30125509806E+02  0.16583713434E+02  0.35929350921E+02  0.00000000000E+00 0.  1.
         11    1    3    3    0    0  0.85655537148E+02  0.36313451482E+02 -0.45738424608E+02  0.10367034913E+03  0.00000000000E+00 0. -1.
        -13    1    4    4    0    0 -0.25987304401E+02 -0.15738438298E+02 -0.17788089082E+02  0.35205887906E+02  0.00000000000E+00 0.  1.
         13    1    4    4    0    0 -0.86630526181E+01 -0.53969491015E+02 -0.28833427123E+03  0.29346960049E+03  0.00000000000E+00 0. -1.
         21    1    1    2  502  501 -0.40595935910E+02  0.32689680251E+01 -0.23167153351E+02  0.46855449616E+02  0.00000000000E+00 0.  1.
<scales pt_clust_5="13000.00000" pt_clust_6="13000.00000" pt_clust_7="13000.00000" pt_clust_8="13000.00000" pt_clust_9="40.72734"></scales>
<clustering>
<clus scale="   40.727">  1  9  2 -1</clus>
<clus scale="   90.867">  7  8 -1 -1</clus>
<clus scale="   92.531">  5  6 -1 -1</clus>
<clus scale="  121.508">  2  7  1 -1</clus>
<clus scale="  121.508">  2  5  1 -1</clus>
</clustering>
</event>
<event>
 9    1  0.1713970E-005  0.1039339E+03  0.7546771E-02  0.1273810E+00
         -1   -1    0    0    0  501 -0.00000000000E+00  0.00000000000E+00  0.29547994644E+03  0.29547994644E+03  0.00000000000E+00 0.  1.
          1   -1    0    0  502    0  0.00000000000E+00 -0.00000000000E+00 -0.74093811825E+02  0.74093811825E+02  0.00000000000E+00 0. -1.
         23    2    1    2    0    0  0.68271660209E+01 -0.27443559789E+02  0.71826557952E+02  0.12030605990E+03  0.92275318763E+02 0.  0.
         23    2    1    2    0    0 -0.29724905092E+02  0.39385723971E+02  0.10856524035E+02  0.10818099258E+03  0.95658025307E+02 0.  0.
        -11    1    3    3    0    0  0.10759439604E+02  0.31251873081E+02  0.90387096783E+01  0.34265775700E+02  0.00000000000E+00 0. -1.
         11    1    3    3    0    0 -0.39322735831E+01 -0.58695432870E+02  0.62787848274E+02  0.86040284205E+02  0.00000000000E+00 0.  1.
        -11    1    4    4    0    0 -0.53978011109E+02  0.56352890511E+02  0.81732671057E+01  0.78460666881E+02  0.00000000000E+00 0. -1.
         11    1    4    4    0    0  0.24253106017E+02 -0.16967166539E+02  0.26832569296E+01  0.29720325698E+02  0.00000000000E+00 0.  1.
         21    1    1    2  502  501  0.22897739071E+02 -0.11942164183E+02  0.13870305263E+03  0.14108670578E+03  0.00000000000E+00 0.  1.
<scales pt_clust_5="13000.00000" pt_clust_6="13000.00000" pt_clust_7="13000.00000" pt_clust_8="13000.00000" pt_clust_9="25.82483"></scales>
<clustering>
<clus scale="   25.825">  1  9  2 -1</clus>
<clus scale="   92.275">  5  6 -1 -1</clus>
<clus scale="   95.658">  7  8 -1 -1</clus>
<clus scale="  100.829">  1  5  2 -1</clus>
<clus scale="  103.934">  2  5  1 -1</clus>
</clustering>
</event>
<event>
 9    1  0.1713970E-005  0.1863226E+03  0.7546771E-02  0.1162679E+00
          1   -1    0    0  502    0  0.00000000000E+00  0.00000000000E+00  0.60030170413E+03  0.60030170413E+03  0.00000000000E+00 0. -1.
         -1   -1    0    0    0  501 -0.00000000000E+00 -0.00000000000E+00 -0.27314551024E+03  0.27314551024E+03  0.00000000000E+00 0.  1.
         23    2    1    2    0    0  0.35506408890E+01 -0.13303333211E+03 -0.12903702593E+03  0.20478641056E+03  0.87042779063E+02 0.  0.
         23    2    1    2    0    0 -0.34972281951E+02  0.15963428050E+03  0.54175839155E+03  0.57370645374E+03  0.94502784257E+02 0.  0.
        -11    1    4    4    0    0 -0.53971963501E+02  0.58140282018E+02  0.30994060192E+03  0.31993193332E+03  0.00000000000E+00 0.  1.
         11    1    4    4    0    0  0.18999681550E+02  0.10149399848E+03  0.23181778963E+03  0.25377452042E+03  0.00000000000E+00 0. -1.
        -13    1    3    3    0    0 -0.40512435560E+02 -0.71569516383E+02 -0.54890540313E+02  0.98875803543E+02  0.00000000000E+00 0. -1.
         13    1    3    3    0    0  0.44063076449E+02 -0.61463815724E+02 -0.74146485612E+02  0.10591060701E+03  0.00000000000E+00 0.  1.
         21    1    1    2  502  501  0.31421641062E+02 -0.26600948396E+02 -0.85565171742E+02  0.94954350074E+02  0.00000000000E+00 0. -1.
<scales pt_clust_5="13000.00000" pt_clust_6="13000.00000" pt_clust_7="13000.00000" pt_clust_8="13000.00000" pt_clust_9="41.16953"></scales>
<clustering>
<clus scale="   41.170">  2  9  1 -1</clus>
<clus scale="   87.043">  7  8 -1 -1</clus>
<clus scale="   94.503">  5  6 -1 -1</clus>
<clus scale="  182.652">  2  7  1 -1</clus>
<clus scale="  186.323">  1  5  2 -1</clus>
</clustering>
</event>
<event>
 9    1  0.1713970E-005  0.9414091E+02  0.7546771E-02  0.1294082E+00
          1   -1    0    0  502    0  0.00000000000E+00  0.00000000000E+00  0.17824617289E+03  0.17824617289E+03  0.00000000000E+00 0. -1.
         -1   -1    0    0    0  501 -0.00000000000E+00 -0.00000000000E+00 -0.70407295111E+02  0.70407295111E+02  0.00000000000E+00 0.  1.
         23    2    1    2    0    0 -0.33909141170E+02 -0.56366927887E+01  0.49218708364E+02  0.10894463421E+03  0.90911219932E+02 0.  0.
         23    2    1    2    0    0  0.11699738267E+02  0.16616419115E+02  0.67187830294E+02  0.11349401393E+03  0.89183504072E+02 0.  0.
        -11    1    3    3    0    0 -0.47109611295E+02 -0.30619480543E+02  0.56587849881E+02  0.79743669462E+02  0.00000000000E+00 0. -1.
         11    1    3    3    0    0  0.13200470125E+02  0.24982787754E+02 -0.73691415171E+01  0.29200964748E+02  0.00000000000E+00 0.  1.
        -13    1    4    4    0    0 -0.24134670715E+02  0.15610516176E+02 -0.83075693574E+01  0.29919663341E+02  0.00000000000E+00 0. -1.
         13    1    4    4    0    0  0.35834408983E+02  0.10059029396E+01  0.75495399651E+02  0.83574350589E+02  0.00000000000E+00 0.  1.
         21    1    1    2  502  501  0.22209402902E+02 -0.10979726327E+02 -0.85676608779E+01  0.26214819862E+02  0.00000000000E+00 0.  1.
<scales pt_clust_5="13000.00000" pt_clust_6="13000.00000" pt_clust_7="13000.00000" pt_clust_8="13000.00000" pt_clust_9="24.77523"></scales>
<clustering>
<clus scale="   24.775">  2  9  1 -1</clus>
<clus scale="   89.184">  7  8 -1 -1</clus>
<clus scale="   90.911">  5  6 -1 -1</clus>
<clus scale="   92.474">  1  7  2 -1</clus>
<clus scale="   92.474">  1  5  2 -1</clus>
</clustering>
</event>
<event>
 9    1  0.1713970E-005  0.1114374E+03  0.7546771E-02  0.1259520E+00
          1   -1    0    0  502    0  0.00000000000E+00  0.00000000000E+00  0.13286592826E+03  0.13286592826E+03  0.00000000000E+00 0. -1.
         -1   -1    0    0    0  501 -0.00000000000E+00 -0.00000000000E+00 -0.12722712292E+03  0.12722712292E+03  0.00000000000E+00 0.  1.
         23    2    1    2    0    0  0.18443593912E+02 -0.51919853345E+02 -0.41036194077E+02  0.11655934510E+03  0.94160896232E+02 0.  0.
         23    2    1    2    0    0 -0.91451752200E+01  0.70044836108E+02  0.45339465767E+02  0.12311902410E+03  0.90070603659E+02 0.  0.
        -11    1    3    3    0    0 -0.36175026741E+02 -0.10192127344E+02 -0.27335266051E+02  0.46472882304E+02  0.00000000000E+00 0.  1.
         11    1    3    3    0    0  0.54618620653E+02 -0.41727726001E+02 -0.13700928026E+02  0.70086462801E+02  0.00000000000E+00 0. -1.
        -11    1    4    4    0    0  0.17754899420E+02  0.61090083069E+02  0.63148703948E+02  0.89638125332E+02  0.00000000000E+00 0. -1.
         11    1    4    4    0    0 -0.26900074640E+02  0.89547530393E+01 -0.17809238180E+02  0.33480898766E+02  0.00000000000E+00 0.  1.
         21    1    1    2  502  501 -0.92984186915E+01 -0.18124982763E+02  0.13355336500E+01  0.20414681983E+02  0.00000000000E+00 0. -1.
<scales pt_clust_5="13000.00000" pt_clust_6="13000.00000" pt_clust_7="13000.00000" pt_clust_8="13000.00000" pt_clust_9="20.37095"></scales>
<clustering>
<clus scale="   20.371">  1  9  2 -1</clus>
<clus scale="   90.071">  7  8 -1 -1</clus>
<clus scale="   94.161">  5  6 -1 -1</clus>
<clus scale="  108.003">  1  7  2 -1</clus>
<clus scale="   20.371">  1  5  2 -1</clus>
</clustering>
</event>
<event>
 9    1  0.1713970E-005  0.1336134E+03  0.7546771E-02  0.1222425E+00
          3   -1    0    0  502    0  0.00000000000E+00  0.00000000000E+00  0.73966736577E+03  0.73966736577E+03  0.00000000000E+00 0. -1.
         -3   -1    0    0    0  501 -0.00000000000E+00 -0.00000000000E+00 -0.43385411468E+02  0.43385411468E+02  0.00000000000E+00 0.  1.
         23    2    1    2    0    0  0.54726445413E+02  0.10081797331E+03  0.21105803138E+03  0.25734011363E+03  0.92299479434E+02 0.  0.
         23    2    1    2    0    0 -0.81714891248E+02 -0.31494099981E+02  0.27514005349E+03  0.30284631842E+03  0.91349010732E+02 0.  0.
        -13    1    3    3    0    0  0.31360111004E+02  0.53661441681E+02  0.30432368988E+02  0.69203583489E+02  0.00000000000E+00 0.  1.
         13    1    3    3    0    0  0.23366334409E+02  0.47156531625E+02  0.18062566240E+03  0.18813653014E+03  0.00000000000E+00 0. -1.
        -13    1    4    4    0    0 -0.81270575126E+02 -0.11196803213E+02  0.26959448505E+03  0.28180039240E+03  0.00000000000E+00 0. -1.
         13    1    4    4    0    0 -0.44431612224E+00 -0.20297296767E+02  0.55455684328E+01  0.21045926022E+02  0.00000000000E+00 0.  1.
         21    1    1    2  502  501  0.26988445835E+02 -0.69323873326E+02  0.21008386943E+03  0.22286634519E+03  0.00000000000E+00 0. -1.
<scales pt_clust_5="13000.00000" pt_clust_6="13000.00000" pt_clust_7="13000.00000" pt_clust_8="13000.00000" pt_clust_9="74.39204"></scales>
<clustering>
<clus scale="   74.392">  1  9  2 -1</clus>
<clus scale="   91.349">  7  8 -1 -1</clus>
<clus scale="   92.299">  5  6 -1 -1</clus>
<clus scale="  132.959">  1  7  2 -1</clus>
<clus scale="   74.392">  1  5  2 -1</clus>
</clustering>
</event>
<event>
 9    1  0.1713970E-005  0.1165301E+03  0.7546771E-02  0.1251401E+00
         -1   -1    0    0    0  501 -0.00000000000E+00  0.00000000000E+00  0.62819994919E+02  0.62819994919E+02  0.00000000000E+00 0.  1.
          1   -1    0    0  502    0  0.00000000000E+00 -0.00000000000E+00 -0.27010149608E+03  0.27010149608E+03  0.00000000000E+00 0. -1.
         23    2    1    2    0    0 -0.37872028658E+02  0.29313254151E+02 -0.54938304349E+02  0.12631877589E+03  0.10317295399E+03 0.  0.
         23    2    1    2    0    0  0.12349474148E+02 -0.29309780666E+02 -0.12962608336E+03  0.17243448360E+03  0.10917489131E+03 0.  0.
        -11    1    3    3    0    0  0.30876528084E+02 -0.60792701284E+01 -0.33748161240E+02  0.46143860902E+02  0.00000000000E+00 0.  1.
         11    1    3    3    0    0 -0.68748556743E+02  0.35392524279E+02 -0.21190143108E+02  0.80174914992E+02  0.00000000000E+00 0. -1.
        -13    1    4    4    0    0  0.53409804701E+02 -0.38041594476E+02 -0.50144747419E+02  0.82548566566E+02  0.00000000000E+00 0.  1.
         13    1    4    4    0    0 -0.41060330553E+02  0.87318138106E+01 -0.79481335940E+02  0.89885917030E+02  0.00000000000E+00 0. -1.
         21    1    1    2  502  501  0.25522554510E+02 -0.34734850737E-02 -0.22717113455E+02  0.34168231510E+02  0.00000000000E+00 0. -1.
<scales pt_clust_5="13000.00000" pt_clust_6="13000.00000" pt_clust_7="13000.00000" pt_clust_8="13000.00000" pt_clust_9="25.52255"></scales>
<clustering>
<clus scale="   25.523">  2  9  1 -1</clus>
<clus scale="  103.173">  5  6 -1 -1</clus>
<clus scale="  109.175">  7  8 -1 -1</clus>
<clus scale="  110.927">  1  5  2 -1</clus>
<clus scale="   25.523">  2  5  1 -1</clus>
</clustering>
</event>
<event>
 9    1  0.1713970E-005  0.1113767E+03  0.7546771E-02  0.1258276E+00
         -4   -1    0    0    0  501 -0.00000000000E+00  0.00000000000E+00  0.10183434150E+03  0.10183434150E+03  0.00000000000E+00 0.  1.
          4   -1    0    0  502    0  0.00000000000E+00 -0.00000000000E+00 -0.46748237844E+03  0.46748237844E+03  0.00000000000E+00 0. -1.
         23    2    1    2    0    0  0.50845139212E+02  0.72159672776E+02 -0.92745312787E+02  0.15662545105E+03  0.90208604447E+02 0.  0.
         23    2    1    2    0    0  0.18921945888E+02 -0.62035141923E+02 -0.31249947095E+03  0.33183426768E+03  0.90838664644E+02 0.  0.
        -11    1    3    3    0    0  0.56186550562E+00  0.71008897242E+02 -0.75016318539E+02  0.10329582386E+03  0.00000000000E+00 0.  1.
         11    1    3    3    0    0  0.50283273707E+02  0.11507755343E+01 -0.17728994248E+02  0.53329627188E+02  0.00000000000E+00 0. -1.
        -13    1    4    4    0    0  0.41729616316E+02 -0.93456971529E+01 -0.65310198407E+02  0.78064876540E+02  0.00000000000E+00 0.  1.
         13    1    4    4    0    0 -0.22807670428E+02 -0.52689444770E+02 -0.24718927254E+03  0.25376939114E+03  0.00000000000E+00 0. -1.
         21    1    1    2  502  501 -0.69767085100E+02 -0.10124530853E+02  0.39596746797E+02  0.80857001214E+02  0.00000000000E+00 0.  1.
<scales pt_clust_5="13000.00000" pt_clust_6="13000.00000" pt_clust_7="13000.00000" pt_clust_8="13000.00000" pt_clust_9="70.49789"></scales>
<clustering>
<clus scale="   70.498">  1  9  2 -1</clus>
<clus scale="   90.209">  5  6 -1 -1</clus>
<clus scale="   90.839">  7  8 -1 -1</clus>
<clus scale="  110.863">  1  5  2 -1</clus>
<clus scale="  111.377">  2  5  1 -1</clus>
</clustering>
</event>
<event>
 9    1  0.1713970E-005  0.1021871E+03  0.7546771E-02  0.1276963E+00
          1   -1    0    0  502    0  0.00000000000E+00  0.00000000000E+00  0.52518871014E+02  0.52518871014E+02  0.00000000000E+00 0. -1.
         -1   -1    0    0    0  501 -0.00000000000E+00 -0.00000000000E+00 -0.29510619074E+03  0.29510619074E+03  0.00000000000E+00 0.  1.
         23    2    1    2    0    0 -0.39771841525E+02  0.49900201122E+02 -0.11013883836E+03  0.15526948097E+03  0.88916919397E+02 0.  0.
         23    2    1    2    0    0  0.11652361014E+01 -0.34353039886E+02 -0.89267319212E+02  0.13238227864E+03  0.91514612467E+02 0.  0.
        -11    1    3    3    0    0  0.14254904680E+02  0.36642026075E+02 -0.86130752882E+02  0.94680235394E+02  0.00000000000E+00 0.  1.
         11    1    3    3    0    0 -0.54026746205E+02  0.13258175047E+02 -0.24008085476E+02  0.60589245574E+02  0.00000000000E+00 0. -1.
        -13    1    4    4    0    0  0.19931330869E+02 -0.59143997191E+02 -0.40019897086E+02  0.74140828945E+02  0.00000000000E+00 0.  1.
         13    1    4    4    0    0 -0.18766094767E+02  0.24790957305E+02 -0.49247422127E+02  0.58241449699E+02  0.00000000000E+00 0. -1.
         21    1    1    2  502  501  0.38606605424E+02 -0.15547161236E+02 -0.43181162159E+02  0.59973302146E+02  0.00000000000E+00 0.  1.
<scales pt_clust_5="13000.00000" pt_clust_6="13000.00000" pt_clust_7="13000.00000" pt_clust_8="13000.00000" pt_clust_9="41.61952"></scales>
<clustering>
<clus scale="   41.620">  2  9  1 -1</clus>
<clus scale="   88.917">  5  6 -1 -1</clus>
<clus scale="   91.515">  7  8 -1 -1</clus>
<clus scale="   99.867">  2  5  1 -1</clus>
<clus scale="  102.187">  1  5  2 -1</clus>
</clustering>
</event>
<event>
 9    1  0.1713970E-005  0.1096372E+03  0.7546771E-02  0.1269509E+00
         -1   -1    0    0    0  501 -0.00000000000E+00  0.00000000000E+00  0.15390222796E+03  0.15390222796E+03  0.00000000000E+00 0.  1.
          1   -1    0    0  502    0  0.00000000000E+00 -0.00000000000E+00 -0.14208505551E+03  0.14208505551E+03  0.00000000000E+00 0. -1.
         23    2    1    2    0    0 -0.13466803034E+02  0.48810769180E+02  0.17925543120E+02  0.10539849032E+03  0.90684456743E+02 0.  0.
         23    2    1    2    0    0 -0.15817602485E+02 -0.62569301184E+01 -0.52873923375E+02  0.12090793103E+03  0.10739520608E+03 0.  0.
        -11    1    3    3    0    0 -0.17626833499E+02  0.14926435639E+02 -0.35288238288E+02  0.42175389762E+02  0.00000000000E+00 0. -1.
         11    1    3    3    0    0  0.41600304653E+01  0.33884333541E+02  0.53213781408E+02  0.63223100563E+02  0.00000000000E+00 0.  1.
        -11    1    4    4    0    0  0.37929753020E+02  0.21523860150E+02 -0.52811546483E+01  0.43929868135E+02  0.00000000000E+00 0.  1.
         11    1    4    4    0    0 -0.53747355505E+02 -0.27780790269E+02 -0.47592768727E+02  0.76978062894E+02  0.00000000000E+00 0. -1.
         21    1    1    2  502  501  0.29284405519E+02 -0.42553839062E+02  0.46765552703E+02  0.69680862115E+02  0.00000000000E+00 0. -1.
<scales pt_clust_5="13000.00000" pt_clust_6="13000.00000" pt_clust_7="13000.00000" pt_clust_8="13000.00000" pt_clust_9="51.65661"></scales>
<clustering>
<clus scale="   51.657">  1  9  2 -1</clus>
<clus scale="   90.684">  5  6 -1 -1</clus>
<clus scale="   93.329">  1  5  2 -1</clus>
<clus scale="  107.395">  7  8 -1 -1</clus>
<clus scale="  109.637">  2  5  1 -1</clus>
</clustering>
</event>
<event>
 9    1  0.1713970E-005  0.1276556E+03  0.7546771E-02  0.1231109E+00
         -2   -1    0    0    0  501 -0.00000000000E+00  0.00000000000E+00  0.18318482327E+03  0.18318482327E+03  0.00000000000E+00 0.  1.
          2   -1    0    0  502    0  0.00000000000E+00 -0.00000000000E+00 -0.49082553849E+03  0.49082553849E+03  0.00000000000E+00 0. -1.
         23    2    1    2    0    0 -0.11225327292E+03 -0.63551604177E+02 -0.35081545251E+02  0.16250115889E+03  0.92392143320E+02 0.  0.
         23    2    1    2    0    0  0.83346742877E+02 -0.28260570493E+01 -0.36978840585E+03  0.39028583178E+03  0.92870335600E+02 0.  0.
        -13    1    4    4    0    0  0.10172015258E+03  0.99166277241E+01 -0.29332158463E+03  0.31061693605E+03  0.00000000000E+00 0. -1.
         13    1    4    4    0    0 -0.18373409703E+02 -0.12742684773E+02 -0.76466821219E+02  0.79668895729E+02  0.00000000000E+00 0.  1.
        -13    1    3    3    0    0 -0.63523628022E+02 -0.42871435399E+02  0.26688836971E+02  0.81151126357E+02  0.00000000000E+00 0.  1.
         13    1    3    3    0    0 -0.48729644901E+02 -0.20680168778E+02 -0.61770382222E+02  0.81350032530E+02  0.00000000000E+00 0. -1.
         21    1    1    2  502  501  0.28906530046E+02  0.66377661226E+02  0.97229235881E+02  0.12122337109E+03  0.00000000000E+00 0.  1.
<scales pt_clust_5="13000.00000" pt_clust_6="13000.00000" pt_clust_7="13000.00000" pt_clust_8="13000.00000" pt_clust_9="72.39877"></scales>
<clustering>
<clus scale="   72.399">  1  9  2 -1</clus>
<clus scale="   92.392">  7  8 -1 -1</clus>
<clus scale="   92.870">  5  6 -1 -1</clus>
<clus scale="  127.308">  1  7  2 -1</clus>
<clus scale="  127.656">  2  5  1 -1</clus>
</clustering>
</event>
<event>
 9    1  0.1713970E-005  0.1372877E+03  0.7546771E-02  0.1217225E+00
          1   -1    0    0  502    0  0.00000000000E+00  0.00000000000E+00  0.25601442970E+03  0.25601442970E+03  0.00000000000E+00 0. -1.
         -1   -1    0    0    0  501 -0.00000000000E+00 -0.00000000000E+00 -0.11391992905E+03  0.11391992905E+03  0.00000000000E+00 0.  1.
         23    2    1    2    0    0 -0.11815514977E+03  0.25690864377E+02  0.25124324761E+01  0.15130243392E+03  0.90914543748E+02 0.  0.
         23    2    1    2    0    0  0.94364430248E+02 -0.20597657898E+02  0.14232612620E+03  0.19414786998E+03  0.90043100865E+02 0.  0.
        -11    1    3    3    0    0 -0.62195358689E+02  0.58646799686E+02 -0.65242149661E+01  0.85733745613E+02  0.00000000000E+00 0.  1.
         11    1    3    3    0    0 -0.55959791077E+02 -0.32955935310E+02  0.90366474422E+01  0.65568688308E+02  0.00000000000E+00 0. -1.
        -11    1    4    4    0    0  0.91181473033E+02 -0.47233557903E+02  0.12675208239E+03  0.16312927513E+03  0.00000000000E+00 0. -1.
         11    1    4    4    0    0  0.31829572148E+01  0.26635900004E+02  0.15574043810E+02  0.31018594847E+02  0.00000000000E+00 0.  1.
         21    1    1    2  502  501  0.23790719517E+02 -0.50932064782E+01 -0.27440580281E+01  0.24484054849E+02  0.00000000000E+00 0.  1.
<scales pt_clust_5="13000.00000" pt_clust_6="13000.00000" pt_clust_7="13000.00000" pt_clust_8="13000.00000" pt_clust_9="24.32980"></scales>
<clustering>
<clus scale="   24.330">  2  9  1 -1</clus>
<clus scale="   90.043">  7  8 -1 -1</clus>
<clus scale="   90.915">  5  6 -1 -1</clus>
<clus scale="  136.712">  1  7  2 -1</clus>
<clus scale="  136.712">  1  5  2 -1</clus>
</clustering>
</event>
<event>
 9    1  0.1713970E-005  0.2764019E+03  0.7546771E-02  0.1098120E+00
          1   -1    0    0  502    0  0.00000000000E+00  0.00000000000E+00  0.32660479362E+03  0.32660479362E+03  0.00000000000E+00 0. -1.
         -1   -1    0    0    0  501 -0.00000000000E+00 -0.00000000000E+00 -0.41302025415E+03  0.41302025415E+03  0.00000000000E+00 0.  1.
         23    2    1    2    0    0 -0.23771335539E+03  0.42465549180E+02 -0.32631286597E+02  0.26308049937E+03  0.99174523377E+02 0.  0.
         23    2    1    2    0    0  0.25570307251E+03 -0.86684097205E+02  0.11066547836E+03  0.30530612383E+03  0.89815294647E+02 0.  0.
        -11    1    4    4    0    0  0.97094322107E+02 -0.59633226526E+02  0.75373716778E+01  0.11419387489E+03  0.00000000000E+00 0.  1.
         11    1    4    4    0    0  0.15860875040E+03 -0.27050870679E+02  0.10312810668E+03  0.19111224894E+03  0.00000000000E+00 0. -1.
        -13    1    3    3    0    0 -0.44790902391E+02 -0.28157576583E+02 -0.22193911484E+02  0.57372848656E+02  0.00000000000E+00 0. -1.
         13    1    3    3    0    0 -0.19292245300E+03  0.70623125763E+02 -0.10437375113E+02  0.20570765072E+03  0.00000000000E+00 0.  1.
         21    1    1    2  502  501 -0.17989717114E+02  0.44218548024E+02 -0.16444965229E+03  0.17123842457E+03  0.00000000000E+00 0.  1.
<scales pt_clust_5="13000.00000" pt_clust_6="13000.00000" pt_clust_7="13000.00000" pt_clust_8="13000.00000" pt_clust_9="47.73793"></scales>
<clustering>
<clus scale="   47.738">  2  9  1 -1</clus>
<clus scale="   89.815">  5  6 -1 -1</clus>
<clus scale="   99.175">  7  8 -1 -1</clus>
<clus scale="  273.183">  1  5  2 -1</clus>
<clus scale="  273.183">  1  5  2 -1</clus>
</clustering>
</event>
<event>
 9    1  0.1713970E-005  0.1116954E+03  0.7546771E-02  0.1261608E+00
          1   -1    0    0  502    0  0.00000000000E+00  0.00000000000E+00  0.81683941820E+03  0.81683941820E+03  0.00000000000E+00 0. -1.
         -1   -1    0    0    0  501 -0.00000000000E+00 -0.00000000000E+00 -0.22228975212E+02  0.22228975212E+02  0.00000000000E+00 0.  1.
         23    2    1    2    0    0 -0.23671042198E+01 -0.74102120424E+02  0.19904677282E+03  0.22675459926E+03  0.79380747571E+02 0.  0.
         23    2    1    2    0    0 -0.22083404245E+02  0.45811154318E+02  0.46912086462E+03  0.48045785305E+03  0.90437958464E+02 0.  0.
        -11    1    3    3    0    0 -0.24380830961E+02 -0.74541652303E+02  0.18419262718E+03  0.20019442238E+03  0.00000000000E+00 0. -1.
         11    1    3    3    0    0  0.22013726741E+02  0.43953187858E+00  0.14854145637E+02  0.26560176880E+02  0.00000000000E+00 0.  1.
        -11    1    4    4    0    0 -0.56057615077E+02  0.15349173419E+02  0.26061398530E+03  0.26701629663E+03  0.00000000000E+00 0. -1.
         11    1    4    4    0    0  0.33974210832E+02  0.30461980898E+02  0.20850687932E+03  0.21344155642E+03  0.00000000000E+00 0.  1.
         21    1    1    2  502  501  0.24450508465E+02  0.28290966107E+02  0.12644280555E+03  0.13185594110E+03  0.00000000000E+00 0.  1.
<scales pt_clust_5="13000.00000" pt_clust_6="13000.00000" pt_clust_7="13000.00000" pt_clust_8="13000.00000" pt_clust_9="37.39259"></scales>
<clustering>
<clus scale="   37.393">  1  9  2 -1</clus>
<clus scale="   79.381">  5  6 -1 -1</clus>
<clus scale="   90.438">  7  8 -1 -1</clus>
<clus scale="  102.947">  2  5  1 -1</clus>
<clus scale="   37.393">  1  5  2 -1</clus>
</clustering>
</event>
<event>
 9    1  0.1713970E-005  0.1346484E+03  0.7546771E-02  0.1220958E+00
          1   -1    0    0  502    0  0.00000000000E+00  0.00000000000E+00  0.46893778681E+03  0.46893778681E+03  0.00000000000E+00 0. -1.
         -1   -1    0    0    0  501 -0.00000000000E+00 -0.00000000000E+00 -0.78121692224E+02  0.78121692224E+02  0.00000000000E+00 0.  1.
         23    2    1    2    0    0 -0.57661425420E+02 -0.56994021529E+02  0.10194551180E+02  0.12158783610E+03  0.90036184632E+02 0.  0.
         23    2    1    2    0    0  0.63198321805E+02  0.81742463083E+02  0.37501275145E+03  0.39949855824E+03  0.91042166806E+02 0.  0.
        -11    1    4    4    0    0  0.38806266232E+02  0.76332995799E+02  0.36065683945E+03  0.37068316443E+03  0.00000000000E+00 0. -1.
         11    1    4    4    0    0  0.24392055573E+02  0.54094672838E+01  0.14355912000E+02  0.28815393815E+02  0.00000000000E+00 0.  1.
        -13    1    3    3    0    0 -0.69750954625E+02 -0.77487453500E+01  0.18953509310E+01  0.70205634252E+02  0.00000000000E+00 0. -1.
         13    1    3    3    0    0  0.12089529205E+02 -0.49245276179E+02  0.82992002488E+01  0.51382201852E+02  0.00000000000E+00 0.  1.
         21    1    1    2  502  501 -0.55368963851E+01 -0.24748441554E+02  0.56087919525E+01  0.25973084686E+02  0.00000000000E+00 0. -1.
<scales pt_clust_5="13000.00000" pt_clust_6="13000.00000" pt_clust_7="13000.00000" pt_clust_8="13000.00000" pt_clust_9="25.36026"></scales>
<clustering>
<clus scale="   25.360">  2  9  1 -1</clus>
<clus scale="   90.036">  7  8 -1 -1</clus>
<clus scale="   91.042">  5  6 -1 -1</clus>
<clus scale="  133.970">  2  7  1 -1</clus>
<clus scale="  134.648">  1  5  2 -1</clus>
</clustering>
</event>
<event>
 9    1  0.1713970E-005  0.1164992E+03  0.7546771E-02  0.1251936E+00
         -2   -1    0    0    0  501 -0.00000000000E+00  0.00000000000E+00  0.40441174432E+03  0.40441174432E+03  0.00000000000E+00 0.  1.
          2   -1    0    0  502    0  0.00000000000E+00 -0.00000000000E+00 -0.12659433050E+03  0.12659433050E+03  0.00000000000E+00 0. -1.
         23    2    1    2    0    0 -0.44215890975E+00 -0.56038762656E+02  0.28453924915E+03  0.30385718431E+03  0.90697661063E+02 0.  0.
         23    2    1    2    0    0 -0.90283682660E+01  0.11979116903E+03 -0.30563969307E+02  0.15842838736E+03  0.98660843754E+02 0.  0.
        -11    1    4    4    0    0 -0.37972191745E+02  0.42257459951E+02 -0.47381483237E+02  0.73976923571E+02  0.00000000000E+00 0. -1.
         11    1    4    4    0    0  0.28943823479E+02  0.77533709075E+02  0.16817513930E+02  0.84451463784E+02  0.00000000000E+00 0.  1.
        -13    1    3    3    0    0 -0.32262006365E+02 -0.58915047466E+02  0.13315005054E+03  0.14913334916E+03  0.00000000000E+00 0. -1.
         13    1    3    3    0    0  0.31819847456E+02  0.28762848102E+01  0.15138919861E+03  0.15472383514E+03  0.00000000000E+00 0.  1.
         21    1    1    2  502  501  0.94705271757E+01 -0.63752406369E+02  0.23842133975E+02  0.68720503166E+02  0.00000000000E+00 0. -1.
<scales pt_clust_5="13000.00000" pt_clust_6="13000.00000" pt_clust_7="13000.00000" pt_clust_8="13000.00000" pt_clust_9="64.45200"></scales>
<clustering>
<clus scale="   64.452">  2  9  1 -1</clus>
<clus scale="   90.698">  7  8 -1 -1</clus>
<clus scale="   98.661">  5  6 -1 -1</clus>
<clus scale="  109.837">  1  7  2 -1</clus>
<clus scale="   64.452">  2  5  1 -1</clus>
</clustering>
</event>
<event>
 9    1  0.1713970E-005  0.9540952E+02  0.7546771E-02  0.1290370E+00
         -1   -1    0    0    0  501 -0.00000000000E+00  0.00000000000E+00  0.23493789507E+02  0.23493789507E+02  0.00000000000E+00 0.  1.
          1   -1    0    0  502    0  0.00000000000E+00 -0.00000000000E+00 -0.10247479556E+04  0.10247479556E+04  0.00000000000E+00 0. -1.
         23    2    1    2    0    0 -0.48678577125E+02 -0.60965978513E+01 -0.46454633590E+03  0.47602323828E+03  0.91586313426E+02 0.  0.
         23    2    1    2    0    0 -0.55318025017E+01 -0.38430662124E+02 -0.44930836586E+03  0.46014661693E+03  0.91374968199E+02 0.  0.
        -11    1    3    3    0    0 -0.74100211715E+02 -0.16824745588E+02 -0.32363052566E+03  0.33243139229E+03  0.00000000000E+00 0. -1.
         11    1    3    3    0    0  0.25421634590E+02  0.10728147737E+02 -0.14091581023E+03  0.14359184598E+03  0.00000000000E+00 0.  1.
        -13    1    4    4    0    0 -0.16834100642E+02 -0.66719654377E+02 -0.30871095518E+03  0.31628682090E+03  0.00000000000E+00 0. -1.
         13    1    4    4    0    0  0.11302298140E+02  0.28288992253E+02 -0.14059741067E+03  0.14385979603E+03  0.00000000000E+00 0.  1.
         21    1    1    2  502  501  0.54210379627E+02  0.44527259975E+02 -0.87399464363E+02  0.11207188992E+03  0.00000000000E+00 0.  1.
<scales pt_clust_5="13000.00000" pt_clust_6="13000.00000" pt_clust_7="13000.00000" pt_clust_8="13000.00000" pt_clust_9="70.15299"></scales>
<clustering>
<clus scale="   70.153">  1  9  2 -1</clus>
<clus scale="   91.375">  7  8 -1 -1</clus>
<clus scale="   91.586">  5  6 -1 -1</clus>
<clus scale="   95.207">  2  7  1 -1</clus>
<clus scale="   95.207">  2  5  1 -1</clus>
</clustering>
</event>
<event>
 9    1  0.1713970E-005  0.1081091E+03  0.7546771E-02  0.1265885E+00
         -1   -1    0    0    0  501 -0.00000000000E+00  0.00000000000E+00  0.24522377857E+02  0.24522377857E+02  0.00000000000E+00 0.  1.
          1   -1    0    0  502    0  0.00000000000E+00 -0.00000000000E+00 -0.94959280954E+03  0.94959280954E+03  0.00000000000E+00 0. -1.
         23    2    1    2    0    0 -0.16986627244E+02 -0.58034091938E+02 -0.17157743038E+03  0.20407943794E+03  0.92482977051E+02 0.  0.
         23    2    1    2    0    0 -0.33172591371E+02  0.50601947026E+02 -0.46649981095E+03  0.47859746216E+03  0.88161665755E+02 0.  0.
        -11    1    4    4    0    0  0.29336408485E+02  0.20635729289E+02 -0.12063219882E+03  0.12585144249E+03  0.00000000000E+00 0.  1.
         11    1    4    4    0    0 -0.62508999856E+02  0.29966217737E+02 -0.34586761214E+03  0.35274601967E+03  0.00000000000E+00 0. -1.
        -13    1    3    3    0    0  0.21283192140E+02 -0.14765241074E+02 -0.32381277211E+01  0.26105020260E+02  0.00000000000E+00 0.  1.
         13    1    3    3    0    0 -0.38269819384E+02 -0.43268850864E+02 -0.16833930266E+03  0.17797441768E+03  0.00000000000E+00 0. -1.
         21    1    1    2  502  501  0.50159218615E+02  0.74321449124E+01 -0.28699319036E+03  0.29143828730E+03  0.00000000000E+00 0. -1.
<scales pt_clust_5="13000.00000" pt_clust_6="13000.00000" pt_clust_7="13000.00000" pt_clust_8="13000.00000" pt_clust_9="50.70684"></scales>
<clustering>
<clus scale="   50.707">  2  9  1 -1</clus>
<clus scale="   88.162">  5  6 -1 -1</clus>
<clus scale="   92.483">  7  8 -1 -1</clus>
<clus scale="  104.436">  2  5  1 -1</clus>
<clus scale="   50.707">  2  5  1 -1</clus>
</clustering>
</event>
<event>
 9    1  0.1713970E-005  0.1723867E+03  0.7546771E-02  0.1175515E+00
         -1   -1    0    0    0  501 -0.00000000000E+00  0.00000000000E+00  0.32280356131E+03  0.32280356131E+03  0.00000000000E+00 0.  1.
          1   -1    0    0  502    0  0.00000000000E+00 -0.00000000000E+00 -0.15756565748E+03  0.15756565748E+03  0.00000000000E+00 0. -1.
         23    2    1    2    0    0 -0.65407148400E+02 -0.96466217348E+02  0.16159587871E+03  0.21965215294E+03  0.92466286427E+02 0.  0.
         23    2    1    2    0    0  0.98882783041E+02  0.12036474811E+03 -0.55221638711E+02  0.18890697738E+03  0.91492837709E+02 0.  0.
        -11    1    4    4    0    0  0.29012361705E+02  0.93362771533E+01  0.21163409532E+02  0.37104893286E+02  0.00000000000E+00 0.  1.
         11    1    4    4    0    0  0.69870421336E+02  0.11102847095E+03 -0.76385048243E+02  0.15180208409E+03  0.00000000000E+00 0. -1.
        -13    1    3    3    0    0 -0.35032725626E+02 -0.10911997177E+03  0.13673097441E+03  0.17840913504E+03  0.00000000000E+00 0.  1.
         13    1    3    3    0    0 -0.30374422774E+02  0.12653754419E+02  0.24864904296E+02  0.41243017899E+02  0.00000000000E+00 0. -1.
         21    1    1    2  502  501 -0.33475634641E+02 -0.23898530757E+02  0.58863663825E+02  0.71810088469E+02  0.00000000000E+00 0.  1.
<scales pt_clust_5="13000.00000" pt_clust_6="13000.00000" pt_clust_7="13000.00000" pt_clust_8="13000.00000" pt_clust_9="41.13098"></scales>
<clustering>
<clus scale="   41.131">  1  9  2 -1</clus>
<clus scale="   91.493">  5  6 -1 -1</clus>
<clus scale="   92.466">  7  8 -1 -1</clus>
<clus scale="  171.867">  2  5  1 -1</clus>
<clus scale="  171.867">  2  5  1 -1</clus>
</clustering>
</event>
<event>
 9    1  0.1713970E-005  0.1280141E+03  0.7546771E-02  0.1232997E+00
          1   -1    0    0  502    0  0.00000000000E+00  0.00000000000E+00  0.29504965666E+03  0.29504965666E+03  0.00000000000E+00 0. -1.
         -1   -1    0    0    0  501 -0.00000000000E+00 -0.00000000000E+00 -0.73537648533E+02  0.73537648533E+02  0.00000000000E+00 0.  1.
         23    2    1    2    0    0  0.77682513898E+01  0.72992404789E+02  0.34266105385E+02  0.12232502808E+03  0.91657021713E+02 0.  0.
         23    2    1    2    0    0 -0.24261723801E+02 -0.94013721761E+02  0.17624611861E+03  0.21736719708E+03  0.82210661823E+02 0.  0.
        -13    1    3    3    0    0 -0.26342597898E+02  0.76405465059E+02  0.12664009688E+02  0.81805285259E+02  0.00000000000E+00 0.  1.
         13    1    3    3    0    0  0.34110849288E+02 -0.34130602698E+01  0.21602095697E+02  0.40519742818E+02  0.00000000000E+00 0. -1.
        -13    1    4    4    0    0  0.19418048000E+02 -0.58071068259E+02  0.13213997904E+03  0.14563750759E+03  0.00000000000E+00 0. -1.
         13    1    4    4    0    0 -0.43679771802E+02 -0.35942653502E+02  0.44106139571E+02  0.71729689483E+02  0.00000000000E+00 0.  1.
         21    1    1    2  502  501  0.16493472412E+02  0.21021316972E+02  0.10999784125E+02  0.28895080035E+02  0.00000000000E+00 0.  1.
<scales pt_clust_5="13000.00000" pt_clust_6="13000.00000" pt_clust_7="13000.00000" pt_clust_8="13000.00000" pt_clust_9="26.71948"></scales>
<clustering>
<clus scale="   26.719">  2  9  1 -1</clus>
<clus scale="   82.211">  7  8 -1 -1</clus>
<clus scale="   91.657">  5  6 -1 -1</clus>
<clus scale="  121.430">  1  7  2 -1</clus>
<clus scale="  121.430">  1  5  2 -1</clus>
</clustering>
</event>
<event>
 9    1  0.1713970E-005  0.1026865E+03  0.7546771E-02  0.1274971E+00
          2   -1    0    0  502    0  0.00000000000E+00  0.00000000000E+00  0.13837943019E+03  0.13837943019E+03  0.00000000000E+00 0. -1.
         -2   -1    0    0    0  501 -0.00000000000E+00 -0.00000000000E+00 -0.15380377754E+03  0.15380377754E+03  0.00000000000E+00 0.  1.
         23    2    1    2    0    0 -0.42927779122E+01 -0.19932147755E+01 -0.58686620176E+02  0.10807266955E+03  0.90626605740E+02 0.  0.
         23    2    1    2    0    0  0.60964586024E+02  0.26911657919E+02  0.46554382041E+02  0.12211488812E+03  0.91125283717E+02 0.  0.
        -11    1    4    4    0    0 -0.13745442999E+02  0.23600586708E+02  0.38067543464E+02  0.46851496899E+02  0.00000000000E+00 0.  1.
         11    1    4    4    0    0  0.74710029023E+02  0.33110712107E+01  0.84868385768E+01  0.75263391222E+02  0.00000000000E+00 0. -1.
        -11    1    3    3    0    0 -0.25620029688E+02 -0.27736679916E+01 -0.76216144559E+02  0.80454831097E+02  0.00000000000E+00 0.  1.
         11    1    3    3    0    0  0.21327251776E+02  0.78045321611E+00  0.17529524383E+02  0.27617838450E+02  0.00000000000E+00 0. -1.
         21    1    1    2  502  501 -0.56671808112E+02 -0.24918443144E+02 -0.32921092113E+01  0.61995650061E+02  0.00000000000E+00 0.  1.
<scales pt_clust_5="13000.00000" pt_clust_6="13000.00000" pt_clust_7="13000.00000" pt_clust_8="13000.00000" pt_clust_9="61.90818"></scales>
<clustering>
<clus scale="   61.908">  2  9  1 -1</clus>
<clus scale="   90.627">  7  8 -1 -1</clus>
<clus scale="   91.125">  5  6 -1 -1</clus>
<clus scale="  102.244">  2  7  1 -1</clus>
<clus scale="  102.686">  1  5  2 -1</clus>
</clustering>
</event>
<event>
 9    1  0.1713970E-005  0.4393991E+03  0.7546771E-02  0.1031093E+00
         -2   -1    0    0    0  501 -0.00000000000E+00  0.00000000000E+00  0.82600777737E+02  0.82600777737E+02  0.00000000000E+00 0.  1.
          2   -1    0    0  502    0  0.00000000000E+00 -0.00000000000E+00 -0.25127515437E+04  0.25127515437E+04  0.00000000000E+00 0. -1.
         23    2    1    2    0    0  0.41514927255E+03 -0.98774064986E+02 -0.11506104501E+04  0.12299594162E+04  0.82404631482E+02 0.  0.
         23    2    1    2    0    0 -0.42490603626E+03  0.79579938249E+02 -0.12632355806E+04  0.13383845115E+04  0.92902434460E+02 0.  0.
        -11    1    3    3    0    0  0.13966928885E+03 -0.38041456900E+02 -0.50658888434E+03  0.52686522036E+03  0.00000000000E+00 0.  1.
         11    1    3    3    0    0  0.27547998370E+03 -0.60732608086E+02 -0.64402156578E+03  0.70309419588E+03  0.00000000000E+00 0. -1.
        -13    1    4    4    0    0 -0.16441820635E+03 -0.26608645355E+00 -0.37902139048E+03  0.41314722778E+03  0.00000000000E+00 0. -1.
         13    1    4    4    0    0 -0.26048782992E+03  0.79846024702E+02 -0.88421419007E+03  0.92523728368E+03  0.00000000000E+00 0.  1.
         21    1    1    2  502  501  0.97567637161E+01  0.19194126737E+02 -0.16304735333E+02  0.27008393764E+02  0.00000000000E+00 0. -1.
<scales pt_clust_5="13000.00000" pt_clust_6="13000.00000" pt_clust_7="13000.00000" pt_clust_8="13000.00000" pt_clust_9="21.53158"></scales>
<clustering>
<clus scale="   21.532">  1  9  2 -1</clus>
<clus scale="   82.405">  5  6 -1 -1</clus>
<clus scale="   92.902">  7  8 -1 -1</clus>
<clus scale="  437.300">  1  5  2 -1</clus>
<clus scale="  439.399">  2  5  1 -1</clus>
</clustering>
</event>
<event>
 9    1  0.1713970E-005  0.9809143E+02  0.7546771E-02  0.1284678E+00
         -3   -1    0    0    0  501 -0.00000000000E+00  0.00000000000E+00  0.54350855674E+03  0.54350855674E+03  0.00000000000E+00 0.  1.
          3   -1    0    0  502    0  0.00000000000E+00 -0.00000000000E+00 -0.26324379361E+02  0.26324379361E+02  0.00000000000E+00 0. -1.
         23    2    1    2    0    0  0.30228368358E+02 -0.60298220912E+01  0.30445146885E+03  0.31926867884E+03  0.91058659091E+02 0.  0.
         23    2    1    2    0    0 -0.43849742337E+02 -0.19470687682E+02  0.16654888220E+03  0.19607789528E+03  0.91684803933E+02 0.  0.
        -11    1    3    3    0    0  0.26793546920E+02  0.33905312568E+02  0.23617614491E+03  0.24009713826E+03  0.00000000000E+00 0.  1.
         11    1    3    3    0    0  0.34348214379E+01 -0.39935134659E+02  0.68275323944E+02  0.79171540582E+02  0.00000000000E+00 0. -1.
        -13    1    4    4    0    0  0.22786880278E+02 -0.21800322644E+02  0.85476831251E+02  0.91108642076E+02  0.00000000000E+00 0. -1.
         13    1    4    4    0    0 -0.66636622615E+02  0.23296349620E+01  0.81072050952E+02  0.10496925320E+03  0.00000000000E+00 0.  1.
         21    1    1    2  502  501  0.13621373979E+02  0.25500509774E+02  0.46183826325E+02  0.54486361980E+02  0.00000000000E+00 0.  1.
<scales pt_clust_5="13000.00000" pt_clust_6="13000.00000" pt_clust_7="13000.00000" pt_clust_8="13000.00000" pt_clust_9="28.91051"></scales>
<clustering>
<clus scale="   28.911">  2  9  1 -1</clus>
<clus scale="   91.059">  5  6 -1 -1</clus>
<clus scale="   91.685">  7  8 -1 -1</clus>
<clus scale="   97.506">  1  5  2 -1</clus>
<clus scale="   28.911">  2  5  1 -1</clus>
</clustering>
</event>
<event>
 9    1  0.1713970E-005  0.1282574E+03  0.7546771E-02  0.1235205E+00
         -1   -1    0    0    0  501 -0.00000000000E+00  0.00000000000E+00  0.23822141711E+03  0.23822141711E+03  0.00000000000E+00 0.  1.
          1   -1    0    0  502    0  0.00000000000E+00 -0.00000000000E+00 -0.33030640975E+03  0.33030640975E+03  0.00000000000E+00 0. -1.
         23    2    1    2    0    0 -0.60280306368E+02  0.74410933266E+01  0.69292696295E+02  0.11721827987E+03  0.72453862362E+02 0.  0.
         23    2    1    2    0    0  0.88128552105E+02 -0.34165277459E+02 -0.28922930130E+03  0.31775902624E+03  0.91560374341E+02 0.  0.
        -11    1    3    3    0    0 -0.56953293635E+02 -0.24481369823E+02  0.51009490307E+02  0.80280652873E+02  0.00000000000E+00 0. -1.
         11    1    3    3    0    0 -0.33270127326E+01  0.31922463150E+02  0.18283205988E+02  0.36937627001E+02  0.00000000000E+00 0.  1.
        -13    1    4    4    0    0  0.62975623414E+02 -0.40874365749E+02 -0.28038919832E+03  0.29026667989E+03  0.00000000000E+00 0. -1.
         13    1    4    4    0    0  0.25152928692E+02  0.67090882893E+01 -0.88401029805E+01  0.27492346356E+02  0.00000000000E+00 0.  1.
         21    1    1    2  502  501 -0.27848245737E+02  0.26724184133E+02  0.12785161236E+03  0.13355052074E+03  0.00000000000E+00 0.  1.
<scales pt_clust_5="13000.00000" pt_clust_6="13000.00000" pt_clust_7="13000.00000" pt_clust_8="13000.00000" pt_clust_9="38.59672"></scales>
<clustering>
<clus scale="   38.597">  1  9  2 -1</clus>
<clus scale="   72.454">  5  6 -1 -1</clus>
<clus scale="   91.560">  7  8 -1 -1</clus>
<clus scale="  115.396">  1  5  2 -1</clus>
<clus scale="  128.257">  2  5  1 -1</clus>
</clustering>
</event>
<event>
 9    1  0.1713970E-005  0.1030958E+03  0.7546771E-02  0.1274942E+00
         -2   -1    0    0    0  501 -0.00000000000E+00  0.00000000000E+00  0.53144949928E+02  0.53144949928E+02  0.00000000000E+00 0.  1.
          2   -1    0    0  502    0  0.00000000000E+00 -0.00000000000E+00 -0.33883962012E+03  0.33883962012E+03  0.00000000000E+00 0. -1.
         23    2    1    2    0    0 -0.11089335910E+02  0.16289219129E+02 -0.73615509213E+02  0.11732695335E+03  0.89207952301E+02 0.  0.
         23    2    1    2    0    0  0.15016608672E+02 -0.72392580040E+02 -0.15440683848E+03  0.19410262084E+03  0.91477710207E+02 0.  0.
        -11    1    4    4    0    0  0.43167515696E+02 -0.55129974184E+02 -0.54055361705E+02  0.88457507279E+02  0.00000000000E+00 0. -1.
         11    1    4    4    0    0 -0.28150907024E+02 -0.17262605856E+02 -0.10035147678E+03  0.10564511356E+03  0.00000000000E+00 0.  1.
        -11    1    3    3    0    0  0.13124300828E+02  0.46450811896E+02 -0.22577126336E+02  0.53288383646E+02  0.00000000000E+00 0.  1.
         11    1    3    3    0    0 -0.24213636738E+02 -0.30161592767E+02 -0.51038382878E+02  0.64038569699E+02  0.00000000000E+00 0. -1.
         21    1    1    2  502  501 -0.39272727618E+01  0.56103360911E+02 -0.57672322492E+02  0.80554995863E+02  0.00000000000E+00 0.  1.
<scales pt_clust_5="13000.00000" pt_clust_6="13000.00000" pt_clust_7="13000.00000" pt_clust_8="13000.00000" pt_clust_9="56.24065"></scales>
<clustering>
<clus scale="   56.241">  1  9  2 -1</clus>
<clus scale="   89.208">  7  8 -1 -1</clus>
<clus scale="   91.478">  5  6 -1 -1</clus>
<clus scale="  101.087">  1  7  2 -1</clus>
<clus scale="  103.096">  2  5  1 -1</clus>
</clustering>
</event>
<event>
 9    1  0.1713970E-005  0.9687232E+02  0.7546771E-02  0.1289929E+00
         -3   -1    0    0    0  501 -0.00000000000E+00  0.00000000000E+00  0.67967884358E+02  0.67967884358E+02  0.00000000000E+00 0.  1.
          3   -1    0    0  502    0  0.00000000000E+00 -0.00000000000E+00 -0.24066317135E+03  0.24066317135E+03  0.00000000000E+00 0. -1.
         23    2    1    2    0    0  0.26502889258E+02  0.28978817812E+02 -0.10623261886E+02  0.10004470806E+03  0.91399753260E+02 0.  0.
         23    2    1    2    0    0 -0.33621486820E+00 -0.32235999433E+02 -0.15682812053E+03  0.18170135898E+03  0.85913047704E+02 0.  0.
        -13    1    4    4    0    0  0.34320003279E+02 -0.41919023047E+02 -0.77119621724E+02  0.94247032702E+02  0.00000000000E+00 0.  1.
         13    1    4    4    0    0 -0.34656218148E+02  0.96830236132E+01 -0.79708498804E+02  0.87454326275E+02  0.00000000000E+00 0. -1.
        -13    1    3    3    0    0 -0.10371018627E+02 -0.28953557735E+02 -0.47852087333E+01  0.31124986032E+02  0.00000000000E+00 0. -1.
         13    1    3    3    0    0  0.36873907885E+02  0.57932375547E+02 -0.58380531525E+01  0.68919722024E+02  0.00000000000E+00 0.  1.
         21    1    1    2  502  501 -0.26166674390E+02  0.32571816214E+01 -0.52439045750E+01  0.26884988673E+02  0.00000000000E+00 0.  1.
<scales pt_clust_5="13000.00000" pt_clust_6="13000.00000" pt_clust_7="13000.00000" pt_clust_8="13000.00000" pt_clust_9="26.36862"></scales>
<clustering>
<clus scale="   26.369">  1  9  2 -1</clus>
<clus scale="   85.913">  5  6 -1 -1</clus>
<clus scale="   91.400">  7  8 -1 -1</clus>
<clus scale="   91.714">  2  5  1 -1</clus>
<clus scale="   91.714">  2  5  1 -1</clus>
</clustering>
</event>
<event>
 9    1  0.1713970E-005  0.9449948E+02  0.7546771E-02  0.1293614E+00
         -1   -1    0    0    0  501 -0.00000000000E+00  0.00000000000E+00  0.14302737593E+03  0.14302737593E+03  0.00000000000E+00 0.  1.
          1   -1    0    0  502    0  0.00000000000E+00 -0.00000000000E+00 -0.31163858486E+03  0.31163858486E+03  0.00000000000E+00 0. -1.
         23    2    1    2    0    0 -0.17229839333E+02 -0.16719599270E+02 -0.13047746263E+03  0.16103144476E+03  0.91270726865E+02 0.  0.
         23    2    1    2    0    0 -0.15311990521E+02  0.10053923161E+02 -0.14955780001E+03  0.17736447831E+03  0.93568606904E+02 0.  0.
        -11    1    3    3    0    0 -0.48627632360E+02 -0.15113664707E+01 -0.36599546078E+02  0.60880683559E+02  0.00000000000E+00 0.  1.
         11    1    3    3    0    0  0.31397793027E+02 -0.15208232799E+02 -0.93877916556E+02  0.10015076120E+03  0.00000000000E+00 0. -1.
        -11    1    4    4    0    0 -0.63633779520E+01  0.45582843052E+02 -0.12513869691E+03  0.13333409776E+03  0.00000000000E+00 0.  1.
         11    1    4    4    0    0 -0.89486125688E+01 -0.35528919891E+02 -0.24419103095E+02  0.44030380551E+02  0.00000000000E+00 0. -1.
         21    1    1    2  502  501  0.32541829853E+02  0.66656761093E+01  0.11142405371E+03  0.11627003773E+03  0.00000000000E+00 0.  1.
<scales pt_clust_5="13000.00000" pt_clust_6="13000.00000" pt_clust_7="13000.00000" pt_clust_8="13000.00000" pt_clust_9="33.21749"></scales>
<clustering>
<clus scale="   33.217">  1  9  2 -1</clus>
<clus scale="   91.271">  5  6 -1 -1</clus>
<clus scale="   92.225">  1  5  2 -1</clus>
<clus scale="   93.569">  7  8 -1 -1</clus>
<clus scale="   94.499">  2  5  1 -1</clus>
</clustering>
</event>
<event>
 9    1  0.1713970E-005  0.1191075E+03  0.7546771E-02  0.1244792E+00
         -1   -1    0    0    0  501 -0.00000000000E+00  0.00000000000E+00  0.59261356393E+03  0.59261356393E+03  0.00000000000E+00 0.  1.
          1   -1    0    0  502    0  0.00000000000E+00 -0.00000000000E+00 -0.39733556564E+02  0.39733556564E+02  0.00000000000E+00 0. -1.
         23    2    1    2    0    0  0.23615951187E+02 -0.47599270612E+02  0.30838140321E+03  0.32587504416E+03  0.90950815557E+02 0.  0.
         23    2    1    2    0    0 -0.27995806340E+02  0.81504494347E+02  0.10809274278E+03  0.16584737599E+03  0.91621849519E+02 0.  0.
        -11    1    4    4    0    0 -0.40414621982E+01 -0.20552550502E+02  0.18611747402E+02  0.28020312100E+02  0.00000000000E+00 0.  1.
         11    1    4    4    0    0 -0.23954344141E+02  0.10205704485E+03  0.89480995375E+02  0.13782706389E+03  0.00000000000E+00 0. -1.
        -13    1    3    3    0    0 -0.12774471123E+01  0.24985972574E+02  0.44363060285E+02  0.50931442297E+02  0.00000000000E+00 0. -1.
         13    1    3    3    0    0  0.24893398299E+02 -0.72585243186E+02  0.26401834292E+03  0.27494360187E+03  0.00000000000E+00 0.  1.
         21    1    1    2  502  501  0.43798551527E+01 -0.33905223735E+02  0.13640586138E+03  0.14062470034E+03  0.00000000000E+00 0. -1.
<scales pt_clust_5="13000.00000" pt_clust_6="13000.00000" pt_clust_7="13000.00000" pt_clust_8="13000.00000" pt_clust_9="34.18695"></scales>
<clustering>
<clus scale="   34.187">  1  9  2 -1</clus>
<clus scale="   90.951">  7  8 -1 -1</clus>
<clus scale="   91.622">  5  6 -1 -1</clus>
<clus scale="  118.592">  1  7  2 -1</clus>
<clus scale="  119.108">  2  5  1 -1</clus>
</clustering>
</event>
<event>
 9    1  0.1713970E-005  0.3869618E+03  0.7546771E-02  0.1048471E+00
         -2   -1    0    0    0  501 -0.00000000000E+00  0.00000000000E+00  0.83447042302E+02  0.83447042302E+02  0.00000000000E+00 0.  1.
          2   -1    0    0  502    0  0.00000000000E+00 -0.00000000000E+00 -0.20819773914E+04  0.20819773914E+04  0.00000000000E+00 0. -1.
         23    2    1    2    0    0  0.34883440233E+03  0.16863801661E+03 -0.86756595734E+03  0.95449546696E+03  0.90921313305E+02 0.  0.
         23    2    1    2    0    0 -0.32681083387E+03 -0.16946357573E+03 -0.11266661372E+04  0.11884746997E+04  0.87018977879E+02 0.  0.
        -11    1    3    3    0    0  0.22481105436E+03  0.15523017841E+03 -0.60191842907E+03  0.66101604648E+03  0.00000000000E+00 0.  1.
         11    1    3    3    0    0  0.12402334797E+03  0.13407838195E+02 -0.26564752828E+03  0.29347942048E+03  0.00000000000E+00 0. -1.
        -13    1    4    4    0    0 -0.91476282552E+02 -0.48583246600E+02 -0.20635767951E+03  0.23089333903E+03  0.00000000000E+00 0.  1.
         13    1    4    4    0    0 -0.23533455132E+03 -0.12088032913E+03 -0.92030845769E+03  0.95758136068E+03  0.00000000000E+00 0. -1.
         21    1    1    2  502  501 -0.22023568462E+02  0.82555911933E+00 -0.42982545606E+01  0.22454267032E+02  0.00000000000E+00 0.  1.
<scales pt_clust_5="13000.00000" pt_clust_6="13000.00000" pt_clust_7="13000.00000" pt_clust_8="13000.00000" pt_clust_9="22.03904"></scales>
<clustering>
<clus scale="   22.039">  1  9  2 -1</clus>
<clus scale="   87.019">  7  8 -1 -1</clus>
<clus scale="   90.921">  5  6 -1 -1</clus>
<clus scale="  386.064">  2  7  1 -1</clus>
<clus scale="  386.064">  2  5  1 -1</clus>
</clustering>
</event>
<event>
 9    1  0.1713970E-005  0.9804625E+02  0.7546771E-02  0.1287506E+00
         -2   -1    0    0    0  501 -0.00000000000E+00  0.00000000000E+00  0.84994688513E+02  0.84994688513E+02  0.00000000000E+00 0.  1.
          2   -1    0    0  502    0  0.00000000000E+00 -0.00000000000E+00 -0.19998032059E+03  0.19998032059E+03  0.00000000000E+00 0. -1.
         23    2    1    2    0    0  0.10813071912E+00  0.11564746745E+01 -0.58843117627E+02  0.10879183637E+03  0.91497552115E+02 0.  0.
         23    2    1    2    0    0  0.26532963217E+02 -0.39166224696E+01 -0.88597358082E+02  0.13410368631E+03  0.97030761900E+02 0.  0.
        -11    1    4    4    0    0 -0.10907796376E+02  0.36389775221E+02 -0.62674615776E+02  0.73289175361E+02  0.00000000000E+00 0. -1.
         11    1    4    4    0    0  0.37440759593E+02 -0.40306397690E+02 -0.25922742305E+02  0.60814510951E+02  0.00000000000E+00 0.  1.
        -13    1    3    3    0    0  0.44156805708E+02  0.99755568239E+01 -0.20351461695E+02  0.49633831379E+02  0.00000000000E+00 0.  1.
         13    1    3    3    0    0 -0.44048674989E+02 -0.88190821494E+01 -0.38491655933E+02  0.59158004992E+02  0.00000000000E+00 0. -1.
         21    1    1    2  502  501 -0.26641093936E+02  0.27601477951E+01  0.32454843634E+02  0.42079486418E+02  0.00000000000E+00 0. -1.
<scales pt_clust_5="13000.00000" pt_clust_6="13000.00000" pt_clust_7="13000.00000" pt_clust_8="13000.00000" pt_clust_9="26.78369"></scales>
<clustering>
<clus scale="   26.784">  1  9  2 -1</clus>
<clus scale="   91.498">  7  8 -1 -1</clus>
<clus scale="   92.574">  1  7  2 -1</clus>
<clus scale="   97.031">  5  6 -1 -1</clus>
<clus scale="   98.046">  2  5  1 -1</clus>
</clustering>
</event>
<event>
 9    1  0.1713970E-005  0.1061726E+03  0.7546771E-02  0.1268127E+00
          1   -1    0    0  502    0  0.00000000000E+00  0.00000000000E+00  0.91735484680E+02  0.91735484680E+02  0.00000000000E+00 0. -1.
         -1   -1    0    0    0  501 -0.00000000000E+00 -0.00000000000E+00 -0.36044840118E+03  0.36044840118E+03  0.00000000000E+00 0.  1.
         23    2    1    2    0    0 -0.52614271274E+02  0.62430629714E+02 -0.10518416747E+03  0.16146503762E+03  0.91331288289E+02 0.  0.
         23    2    1    2    0    0  0.30200067797E+02 -0.31813652951E+02  0.19489919166E+02  0.10380809763E+03  0.92044074092E+02 0.  0.
        -11    1    4    4    0    0  0.15602054792E+02  0.21999254827E+02 -0.21593320663E+02  0.34549425812E+02  0.00000000000E+00 0.  1.
         11    1    4    4    0    0  0.14598013004E+02 -0.53812907778E+02  0.41083239829E+02  0.69258671818E+02  0.00000000000E+00 0. -1.
        -11    1    3    3    0    0 -0.16598994481E+02  0.53850662460E+02 -0.73107023912E+01  0.56823118840E+02  0.00000000000E+00 0. -1.
         11    1    3    3    0    0 -0.36015276793E+02  0.85799672532E+01 -0.97873465077E+02  0.10464191878E+03  0.00000000000E+00 0.  1.
         21    1    1    2  502  501  0.22414203477E+02 -0.30616976763E+02 -0.18301866820E+03  0.18691075061E+03  0.00000000000E+00 0.  1.
<scales pt_clust_5="13000.00000" pt_clust_6="13000.00000" pt_clust_7="13000.00000" pt_clust_8="13000.00000" pt_clust_9="37.94464"></scales>
<clustering>
<clus scale="   37.945">  2  9  1 -1</clus>
<clus scale="   91.331">  7  8 -1 -1</clus>
<clus scale="   92.044">  5  6 -1 -1</clus>
<clus scale="  105.555">  2  7  1 -1</clus>
<clus scale="  106.173">  1  5  2 -1</clus>
</clustering>
</event>
<event>
 9    1  0.1713970E-005  0.9495814E+02  0.7546771E-02  0.1293859E+00
          2   -1    0    0  502    0  0.00000000000E+00  0.00000000000E+00  0.84678867239E+02  0.84678867239E+02  0.00000000000E+00 0. -1.
         -2   -1    0    0    0  501 -0.00000000000E+00 -0.00000000000E+00 -0.19555064524E+03  0.19555064524E+03  0.00000000000E+00 0.  1.
         23    2    1    2    0    0  0.23292787741E+02 -0.20391745674E+02 -0.13014317432E+03  0.16176558079E+03  0.90953175063E+02 0.  0.
         23    2    1    2    0    0 -0.20677505406E+02 -0.47299001499E+01  0.25545632564E+02  0.92438889303E+02  0.86269564316E+02 0.  0.
        -11    1    3    3    0    0  0.24175467766E+02 -0.51605615794E+02 -0.50217503218E+02  0.75956503689E+02  0.00000000000E+00 0.  1.
         11    1    3    3    0    0 -0.88268002444E+00  0.31213870120E+02 -0.79925671101E+02  0.85809077100E+02  0.00000000000E+00 0. -1.
        -13    1    4    4    0    0 -0.21238393984E+02 -0.35946770834E+02 -0.12157866642E+02  0.43486244189E+02  0.00000000000E+00 0.  1.
         13    1    4    4    0    0  0.56088857736E+00  0.31216870684E+02  0.37703499205E+02  0.48952645114E+02  0.00000000000E+00 0. -1.
         21    1    1    2  502  501 -0.26152823347E+01  0.25121645824E+02 -0.62742362421E+01  0.26025042382E+02  0.00000000000E+00 0. -1.
<scales pt_clust_5="13000.00000" pt_clust_6="13000.00000" pt_clust_7="13000.00000" pt_clust_8="13000.00000" pt_clust_9="25.25741"></scales>
<clustering>
<clus scale="   25.257">  1  9  2 -1</clus>
<clus scale="   86.270">  7  8 -1 -1</clus>
<clus scale="   90.482">  1  7  2 -1</clus>
<clus scale="   90.953">  5  6 -1 -1</clus>
<clus scale="   25.257">  1  5  2 -1</clus>
</clustering>
</event>
<event>
 9    1  0.1713970E-005  0.1059387E+03  0.7546771E-02  0.1268291E+00
          2   -1    0    0  502    0  0.00000000000E+00  0.00000000000E+00  0.34678943172E+03  0.34678943172E+03  0.00000000000E+00 0. -1.
         -2   -1    0    0    0  501 -0.00000000000E+00 -0.00000000000E+00 -0.40764628487E+02  0.40764628487E+02  0.00000000000E+00 0.  1.
         23    2    1    2    0    0 -0.36524817328E+02 -0.25031691207E+02  0.12491520305E+03  0.16106023482E+03  0.91520180503E+02 0.  0.
         23    2    1    2    0    0  0.42443619984E+02  0.45391353808E+02  0.16923071557E+03  0.20219041029E+03  0.91542837201E+02 0.  0.
        -13    1    4    4    0    0  0.62039470180E+02  0.30789965472E+01  0.77795538665E+02  0.99551604287E+02  0.00000000000E+00 0.  1.
         13    1    4    4    0    0 -0.19595850197E+02  0.42312357261E+02  0.91435176907E+02  0.10263880600E+03  0.00000000000E+00 0. -1.
        -13    1    3    3    0    0 -0.19592858679E+02 -0.59080988744E+02  0.90052299472E+02  0.10947081795E+03  0.00000000000E+00 0.  1.
         13    1    3    3    0    0 -0.16931958649E+02  0.34049297537E+02  0.34862903583E+02  0.51589416867E+02  0.00000000000E+00 0. -1.
         21    1    1    2  502  501 -0.59188026555E+01 -0.20359662601E+02  0.11878884612E+02  0.24303415104E+02  0.00000000000E+00 0.  1.
<scales pt_clust_5="13000.00000" pt_clust_6="13000.00000" pt_clust_7="13000.00000" pt_clust_8="13000.00000" pt_clust_9="21.20255"></scales>
<clustering>
<clus scale="   21.203">  2  9  1 -1</clus>
<clus scale="   91.520">  7  8 -1 -1</clus>
<clus scale="   91.543">  5  6 -1 -1</clus>
<clus scale="  105.919">  2  7  1 -1</clus>
<clus scale="  105.939">  1  5  2 -1</clus>
</clustering>
</event>
<event>
 9    1  0.1713970E-005  0.1117436E+03  0.7546771E-02  0.1259066E+00
         -2   -1    0    0    0  501 -0.00000000000E+00  0.00000000000E+00  0.16020205546E+03  0.16020205546E+03  0.00000000000E+00 0.  1.
          2   -1    0    0  502    0  0.00000000000E+00 -0.00000000000E+00 -0.32471258826E+03  0.32471258826E+03  0.00000000000E+00 0. -1.
         23    2    1    2    0    0  0.50214715602E+02 -0.35592584927E+02  0.80271839944E+02  0.13673940888E+03  0.92009498908E+02 0.  0.
         23    2    1    2    0    0 -0.36275728623E+02  0.52604303219E+02 -0.28357860105E+03  0.30357880843E+03  0.87522161465E+02 0.  0.
        -13    1    4    4    0    0  0.10763460166E+02  0.21463895208E+02 -0.13245848830E+02  0.27422680093E+02  0.00000000000E+00 0.  1.
         13    1    4    4    0    0 -0.47039188789E+02  0.31140408011E+02 -0.27033275222E+03  0.27615612834E+03  0.00000000000E+00 0. -1.
        -13    1    3    3    0    0  0.73950220541E+02 -0.12040863229E+02  0.67815551131E+02  0.10105724358E+03  0.00000000000E+00 0.  1.
         13    1    3    3    0    0 -0.23735504939E+02 -0.23551721698E+02  0.12456288813E+02  0.35682165302E+02  0.00000000000E+00 0. -1.
         21    1    1    2  502  501 -0.13938986979E+02 -0.17011718292E+02  0.38796228307E+02  0.44596426405E+02  0.00000000000E+00 0.  1.
<scales pt_clust_5="13000.00000" pt_clust_6="13000.00000" pt_clust_7="13000.00000" pt_clust_8="13000.00000" pt_clust_9="21.99304"></scales>
<clustering>
<clus scale="   21.993">  1  9  2 -1</clus>
<clus scale="   87.522">  5  6 -1 -1</clus>
<clus scale="   92.009">  7  8 -1 -1</clus>
<clus scale="  108.079">  2  5  1 -1</clus>
<clus scale="  108.079">  2  5  1 -1</clus>
</clustering>
</event>
<event>
 9    1  0.1713970E-005  0.1001297E+03  0.7546771E-02  0.1282589E+00
          2   -1    0    0  502    0  0.00000000000E+00  0.00000000000E+00  0.52775384434E+03  0.52775384434E+03  0.00000000000E+00 0. -1.
         -2   -1    0    0    0  501 -0.00000000000E+00 -0.00000000000E+00 -0.32174054383E+02  0.32174054383E+02  0.00000000000E+00 0.  1.
         23    2    1    2    0    0 -0.24137851302E+02  0.13238298631E+02  0.12006509951E+03  0.15545591273E+03  0.94831557340E+02 0.  0.
         23    2    1    2    0    0  0.32683450876E+02  0.19773513912E+02  0.34559759843E+03  0.35910857084E+03  0.89789007096E+02 0.  0.
        -11    1    3    3    0    0 -0.59638098775E+02  0.19372504278E+02  0.77543115413E+02  0.99724277363E+02  0.00000000000E+00 0. -1.
         11    1    3    3    0    0  0.35500247474E+02 -0.61342056468E+01  0.42521984097E+02  0.55731635372E+02  0.00000000000E+00 0.  1.
        -11    1    4    4    0    0 -0.17159703557E+02 -0.22951544882E+02  0.15214589232E+03  0.15482119166E+03  0.00000000000E+00 0.  1.
         11    1    4    4    0    0  0.49843154433E+02  0.42725058794E+02  0.19345170611E+03  0.20428737918E+03  0.00000000000E+00 0. -1.
         21    1    1    2  502  501 -0.85455995738E+01 -0.33011812543E+02  0.29917092019E+02  0.45363415153E+02  0.00000000000E+00 0.  1.
<scales pt_clust_5="13000.00000" pt_clust_6="13000.00000" pt_clust_7="13000.00000" pt_clust_8="13000.00000" pt_clust_9="34.09996"></scales>
<clustering>
<clus scale="   34.100">  2  9  1 -1</clus>
<clus scale="   89.789">  7  8 -1 -1</clus>
<clus scale="   94.832">  5  6 -1 -1</clus>
<clus scale="   95.368">  1  7  2 -1</clus>
<clus scale="   95.368">  1  5  2 -1</clus>
</clustering>
</event>
<event>
 9    1  0.1713970E-005  0.1730779E+03  0.7546771E-02  0.1174711E+00
         -1   -1    0    0    0  501 -0.00000000000E+00  0.00000000000E+00  0.42161244392E+02  0.42161244392E+02  0.00000000000E+00 0.  1.
          1   -1    0    0  502    0  0.00000000000E+00 -0.00000000000E+00 -0.11179408319E+04  0.11179408319E+04  0.00000000000E+00 0. -1.
         23    2    1    2    0    0 -0.91740598964E+02  0.12848159698E+03 -0.39232739796E+03  0.43264432401E+03  0.91304247687E+02 0.  0.
         23    2    1    2    0    0  0.93338417073E+02 -0.10641541829E+03 -0.68484541594E+03  0.70528997511E+03  0.91566390649E+02 0.  0.
        -11    1    3    3    0    0 -0.59124853322E+02  0.11720195882E+03 -0.21435357210E+03  0.25135532878E+03  0.00000000000E+00 0. -1.
         11    1    3    3    0    0 -0.32615745642E+02  0.11279638157E+02 -0.17797382586E+03  0.18128899523E+03  0.00000000000E+00 0.  1.
        -13    1    4    4    0    0  0.87757789302E+02 -0.76298200502E+02 -0.64300774264E+03  0.65343844551E+03  0.00000000000E+00 0.  1.
         13    1    4    4    0    0  0.55806277709E+01 -0.30117217788E+02 -0.41837673308E+02  0.51851529596E+02  0.00000000000E+00 0. -1.
         21    1    1    2  502  501 -0.15978181089E+01 -0.22066178691E+02  0.13932264050E+01  0.22167777168E+02  0.00000000000E+00 0.  1.
<scales pt_clust_5="13000.00000" pt_clust_6="13000.00000" pt_clust_7="13000.00000" pt_clust_8="13000.00000" pt_clust_9="22.12395"></scales>
<clustering>
<clus scale="   22.124">  1  9  2 -1</clus>
<clus scale="   91.304">  5  6 -1 -1</clus>
<clus scale="   91.566">  7  8 -1 -1</clus>
<clus scale="  172.939">  1  5  2 -1</clus>
<clus scale="  173.078">  2  5  1 -1</clus>
</clustering>
</event>
<event>
 9    1  0.1713970E-005  0.3358433E+03  0.7546771E-02  0.1068650E+00
          4   -1    0    0  502    0  0.00000000000E+00  0.00000000000E+00  0.72552535610E+03  0.72552535610E+03  0.00000000000E+00 0. -1.
         -4   -1    0    0    0  501 -0.00000000000E+00 -0.00000000000E+00 -0.35655571792E+03  0.35655571792E+03  0.00000000000E+00 0.  1.
         23    2    1    2    0    0  0.14772819417E+03  0.29260219681E+03 -0.14729897132E+03  0.37181439154E+03  0.95442599889E+02 0.  0.
         23    2    1    2    0    0 -0.18690549990E+03 -0.26163410519E+03  0.55426731335E+03  0.64751490580E+03  0.93151638178E+02 0.  0.
        -11    1    4    4    0    0 -0.17609518411E+03 -0.21780387807E+03  0.52073209169E+03  0.59127823779E+03  0.00000000000E+00 0. -1.
         11    1    4    4    0    0 -0.10810315795E+02 -0.43830227124E+02  0.33535221655E+02  0.56236668009E+02  0.00000000000E+00 0.  1.
        -13    1    3    3    0    0  0.56130585753E+02  0.79108159757E+02 -0.48898158559E+00  0.96999910825E+02  0.00000000000E+00 0. -1.
         13    1    3    3    0    0  0.91597608417E+02  0.21349403705E+03 -0.14680998973E+03  0.27481448071E+03  0.00000000000E+00 0.  1.
         21    1    1    2  502  501  0.39177305733E+02 -0.30968091617E+02 -0.37998703848E+02  0.62751776684E+02  0.00000000000E+00 0. -1.
<scales pt_clust_5="13000.00000" pt_clust_6="13000.00000" pt_clust_7="13000.00000" pt_clust_8="13000.00000" pt_clust_9="49.93880"></scales>
<clustering>
<clus scale="   49.939">  2  9  1 -1</clus>
<clus scale="   93.152">  5  6 -1 -1</clus>
<clus scale="   95.443">  7  8 -1 -1</clus>
<clus scale="  335.199">  1  5  2 -1</clus>
<clus scale="  335.199">  1  5  2 -1</clus>
</clustering>
</event>
<event>
 9    1  0.1713970E-005  0.1176658E+03  0.7546771E-02  0.1247279E+00
         -1   -1    0    0    0  501 -0.00000000000E+00  0.00000000000E+00  0.25040863921E+02  0.25040863921E+02  0.00000000000E+00 0.  1.
          1   -1    0    0  502    0  0.00000000000E+00 -0.00000000000E+00 -0.73861886800E+03  0.73861886800E+03  0.00000000000E+00 0. -1.
         23    2    1    2    0    0 -0.51106026850E+02  0.29525114018E+02 -0.27538866249E+03  0.29584844692E+03  0.90574995303E+02 0.  0.
         23    2    1    2    0    0  0.81427507706E+02 -0.43728626496E+02 -0.33588416396E+03  0.36016612099E+03  0.91426644471E+02 0.  0.
        -11    1    3    3    0    0  0.22924950593E+02  0.21601768512E+02 -0.57103556524E+02  0.65215074409E+02  0.00000000000E+00 0.  1.
         11    1    3    3    0    0 -0.74030977444E+02  0.79233455054E+01 -0.21828510597E+03  0.23063337251E+03  0.00000000000E+00 0. -1.
        -13    1    4    4    0    0 -0.19422265326E+02 -0.14133359851E+02 -0.47534892182E+02  0.53259198509E+02  0.00000000000E+00 0. -1.
         13    1    4    4    0    0  0.10084977303E+03 -0.29595266645E+02 -0.28834927178E+03  0.30690692248E+03  0.00000000000E+00 0.  1.
         21    1    1    2  502  501 -0.30321480856E+02  0.14203512478E+02 -0.10230517762E+03  0.10764516401E+03  0.00000000000E+00 0. -1.
<scales pt_clust_5="13000.00000" pt_clust_6="13000.00000" pt_clust_7="13000.00000" pt_clust_8="13000.00000" pt_clust_9="33.48331"></scales>
<clustering>
<clus scale="   33.483">  2  9  1 -1</clus>
<clus scale="   90.575">  5  6 -1 -1</clus>
<clus scale="   91.427">  7  8 -1 -1</clus>
<clus scale="  117.005">  1  5  2 -1</clus>
<clus scale="   33.483">  2  5  1 -1</clus>
</clustering>
</event>
<event>
 9    1  0.1713970E-005  0.1708734E+03  0.7546771E-02  0.1177503E+00
          3   -1    0    0  502    0  0.00000000000E+00  0.00000000000E+00  0.44887923543E+03  0.44887923543E+03  0.00000000000E+00 0. -1.
         -3   -1    0    0    0  501 -0.00000000000E+00 -0.00000000000E+00 -0.10317398693E+03  0.10317398693E+03  0.00000000000E+00 0.  1.
         23    2    1    2    0    0  0.12974121556E+03  0.19346132430E+02  0.87593978926E+02  0.18070760083E+03  0.88178659543E+02 0.  0.
         23    2    1    2    0    0 -0.14706910138E+03 -0.33398746395E+02  0.28563413602E+03  0.33591625851E+03  0.92239233695E+02 0.  0.
        -11    1    4    4    0    0 -0.10096853746E+03 -0.38943384274E+01  0.99145384693E+02  0.14156136031E+03  0.00000000000E+00 0.  1.
         11    1    4    4    0    0 -0.46100563929E+02 -0.29504407967E+02  0.18648875132E+03  0.19435489820E+03  0.00000000000E+00 0. -1.
        -13    1    3    3    0    0  0.10399794555E+03  0.51805431430E+02  0.70412058460E+02  0.13585740091E+03  0.00000000000E+00 0.  1.
         13    1    3    3    0    0  0.25743270008E+02 -0.32459298999E+02  0.17181920465E+02  0.44850199923E+02  0.00000000000E+00 0. -1.
         21    1    1    2  502  501  0.17327885825E+02  0.14052613964E+02 -0.27522866447E+02  0.35429363018E+02  0.00000000000E+00 0. -1.
<scales pt_clust_5="13000.00000" pt_clust_6="13000.00000" pt_clust_7="13000.00000" pt_clust_8="13000.00000" pt_clust_9="22.30990"></scales>
<clustering>
<clus scale="   22.310">  2  9  1 -1</clus>
<clus scale="   88.179">  7  8 -1 -1</clus>
<clus scale="   92.239">  5  6 -1 -1</clus>
<clus scale="  168.716">  2  7  1 -1</clus>
<clus scale="  170.873">  1  5  2 -1</clus>
</clustering>
</event>
<event>
 9    1  0.1713970E-005  0.1235573E+03  0.7546771E-02  0.1237874E+00
         -1   -1    0    0    0  501 -0.00000000000E+00  0.00000000000E+00  0.82709596474E+02  0.82709596474E+02  0.00000000000E+00 0.  1.
          1   -1    0    0  502    0  0.00000000000E+00 -0.00000000000E+00 -0.58506873414E+03  0.58506873414E+03  0.00000000000E+00 0. -1.
         23    2    1    2    0    0  0.99361830605E+02 -0.14146520913E+01 -0.70497211604E+02  0.15325969102E+03  0.92972584262E+02 0.  0.
         23    2    1    2    0    0 -0.76919596897E+02 -0.14803928970E+02 -0.45975748957E+03  0.47521394918E+03  0.91189733959E+02 0.  0.
        -11    1    4    4    0    0 -0.87753693680E+02  0.14492461306E+02 -0.34529033302E+03  0.35656157430E+03  0.00000000000E+00 0. -1.
         11    1    4    4    0    0  0.10834096783E+02 -0.29296390276E+02 -0.11446715655E+03  0.11865237488E+03  0.00000000000E+00 0.  1.
        -13    1    3    3    0    0  0.60648595895E+02 -0.21274666801E+02  0.67256773339E+01  0.64622738778E+02  0.00000000000E+00 0. -1.
         13    1    3    3    0    0  0.38713234710E+02  0.19860014710E+02 -0.77222888938E+02  0.88636952238E+02  0.00000000000E+00 0.  1.
         21    1    1    2  502  501 -0.22442233708E+02  0.16218581061E+02  0.27895563509E+02  0.39304690419E+02  0.00000000000E+00 0. -1.
<scales pt_clust_5="13000.00000" pt_clust_6="13000.00000" pt_clust_7="13000.00000" pt_clust_8="13000.00000" pt_clust_9="27.68928"></scales>
<clustering>
<clus scale="   27.689">  1  9  2 -1</clus>
<clus scale="   91.190">  5  6 -1 -1</clus>
<clus scale="   92.973">  7  8 -1 -1</clus>
<clus scale="  122.221">  2  5  1 -1</clus>
<clus scale="  122.221">  2  5  1 -1</clus>
</clustering>
</event>
<event>
 9    1  0.1713970E-005  0.1986760E+03  0.7546771E-02  0.1151021E+00
          2   -1    0    0  502    0  0.00000000000E+00  0.00000000000E+00  0.83317497543E+03  0.83317497543E+03  0.00000000000E+00 0. -1.
         -2   -1    0    0    0  501 -0.00000000000E+00 -0.00000000000E+00 -0.74108308779E+02  0.74108308779E+02  0.00000000000E+00 0.  1.
         23    2    1    2    0    0  0.14244314800E+03  0.12129508532E+03  0.35124102313E+03  0.40783761160E+03  0.89211619066E+02 0.  0.
         23    2    1    2    0    0 -0.72422522852E+02 -0.15978455770E+03  0.34593670367E+03  0.39837852509E+03  0.90868694343E+02 0.  0.
        -11    1    3    3    0    0  0.11332452792E+03  0.55163465897E+02  0.27653797990E+03  0.30390575994E+03  0.00000000000E+00 0. -1.
         11    1    3    3    0    0  0.29118620087E+02  0.66131619421E+02  0.74703043225E+02  0.10393185166E+03  0.00000000000E+00 0.  1.
        -13    1    4    4    0    0 -0.73067855631E+02 -0.89669303692E+02  0.27639784039E+03  0.29962520208E+03  0.00000000000E+00 0.  1.
         13    1    4    4    0    0  0.64533277889E+00 -0.70115254005E+02  0.69538863282E+02  0.98753323008E+02  0.00000000000E+00 0. -1.
         21    1    1    2  502  501 -0.70020625150E+02  0.38489472380E+02  0.61888939852E+02  0.10106714751E+03  0.00000000000E+00 0.  1.
<scales pt_clust_5="13000.00000" pt_clust_6="13000.00000" pt_clust_7="13000.00000" pt_clust_8="13000.00000" pt_clust_9="79.90199"></scales>
<clustering>
<clus scale="   79.902">  2  9  1 -1</clus>
<clus scale="   89.212">  5  6 -1 -1</clus>
<clus scale="   90.869">  7  8 -1 -1</clus>
<clus scale="  197.924">  2  5  1 -1</clus>
<clus scale="  198.676">  1  5  2 -1</clus>
</clustering>
</event>
<event>
 9    1  0.1713970E-005  0.1638249E+03  0.7546771E-02  0.1185381E+00
          3   -1    0    0  502    0  0.00000000000E+00  0.00000000000E+00  0.18803973897E+03  0.18803973897E+03  0.00000000000E+00 0. -1.
         -3   -1    0    0    0  501 -0.00000000000E+00 -0.00000000000E+00 -0.70071066294E+03  0.70071066294E+03  0.00000000000E+00 0.  1.
         23    2    1    2    0    0 -0.62552691450E+02  0.11577195184E+02 -0.10738675256E+03  0.15510723368E+03  0.92084030431E+02 0.  0.
         23    2    1    2    0    0  0.14151954594E+03 -0.77866520630E+02  0.10292308042E+03  0.21508299853E+03  0.97859893993E+02 0.  0.
        -13    1    4    4    0    0  0.15507690613E+03 -0.61165210528E+02  0.85215944300E+02  0.18722122464E+03  0.00000000000E+00 0. -1.
         13    1    4    4    0    0 -0.13557360186E+02 -0.16701310102E+02  0.17707136122E+02  0.27861773884E+02  0.00000000000E+00 0.  1.
        -13    1    3    3    0    0 -0.79801797790E+02  0.29361068294E+02 -0.94698576361E+02  0.12727222645E+03  0.00000000000E+00 0.  1.
         13    1    3    3    0    0  0.17249106340E+02 -0.17783873110E+02 -0.12688176195E+02  0.27835007229E+02  0.00000000000E+00 0. -1.
         21    1    1    2  502  501 -0.78966854494E+02  0.66289325446E+02 -0.50820725184E+03  0.51856016970E+03  0.00000000000E+00 0.  1.
<scales pt_clust_5="13000.00000" pt_clust_6="13000.00000" pt_clust_7="13000.00000" pt_clust_8="13000.00000" pt_clust_9="103.10208"></scales>
<clustering>
<clus scale="   92.084">  7  8 -1 -1</clus>
<clus scale="   97.860">  5  6 -1 -1</clus>
<clus scale="  103.102">  2  9  1 -1</clus>
<clus scale="  160.442">  2  7  1 -1</clus>
<clus scale="  163.825">  1  5  2 -1</clus>
</clustering>
</event>
<event>
 9    1  0.1713970E-005  0.1009607E+03  0.7546771E-02  0.1279017E+00
         -1   -1    0    0    0  501 -0.00000000000E+00  0.00000000000E+00  0.41483560778E+03  0.41483560778E+03  0.00000000000E+00 0.  1.
          1   -1    0    0  502    0  0.00000000000E+00 -0.00000000000E+00 -0.39572155801E+02  0.39572155801E+02  0.00000000000E+00 0. -1.
         23    2    1    2    0    0 -0.19080506634E+01 -0.30815530940E+02  0.13708526383E+03  0.16755881114E+03  0.91270740249E+02 0.  0.
         23    2    1    2    0    0  0.79308362224E+01  0.51884030400E+02  0.91323418348E+02  0.13836838460E+03  0.89727322170E+02 0.  0.
        -13    1    3    3    0    0  0.20251434311E+02 -0.57039980925E+02  0.10101269432E+03  0.11775926473E+03  0.00000000000E+00 0.  1.
         13    1    3    3    0    0 -0.22159484974E+02  0.26224449985E+02  0.36072569509E+02  0.49799546407E+02  0.00000000000E+00 0. -1.
        -13    1    4    4    0    0  0.21217408108E+01 -0.20038532755E+02 -0.21714335669E+01  0.20267207572E+02  0.00000000000E+00 0.  1.
         13    1    4    4    0    0  0.58090954116E+01  0.71922563155E+02  0.93494851915E+02  0.11810117703E+03  0.00000000000E+00 0. -1.
         21    1    1    2  502  501 -0.60227855590E+01 -0.21068499461E+02  0.14685476980E+03  0.14848056784E+03  0.00000000000E+00 0.  1.
<scales pt_clust_5="13000.00000" pt_clust_6="13000.00000" pt_clust_7="13000.00000" pt_clust_8="13000.00000" pt_clust_9="21.91245"></scales>
<clustering>
<clus scale="   21.912">  1  9  2 -1</clus>
<clus scale="   89.727">  7  8 -1 -1</clus>
<clus scale="   91.271">  5  6 -1 -1</clus>
<clus scale="   99.568">  2  7  1 -1</clus>
<clus scale="   99.568">  2  5  1 -1</clus>
</clustering>
</event>
<event>
 9    1  0.1713970E-005  0.1035232E+03  0.7546771E-02  0.1274508E+00
          1   -1    0    0  502    0  0.00000000000E+00  0.00000000000E+00  0.23679546968E+03  0.23679546968E+03  0.00000000000E+00 0. -1.
         -1   -1    0    0    0  501 -0.00000000000E+00 -0.00000000000E+00 -0.20437158469E+03  0.20437158469E+03  0.00000000000E+00 0.  1.
         23    2    1    2    0    0 -0.53718548792E+01  0.33618589296E+02 -0.13110035193E+03  0.16211890383E+03  0.89085185801E+02 0.  0.
         23    2    1    2    0    0  0.35507301801E+02 -0.33163287797E+02  0.20368547464E+03  0.22883582660E+03  0.92290253092E+02 0.  0.
        -11    1    4    4    0    0  0.54905543193E+02 -0.17242247202E+01  0.17066300599E+03  0.17928595382E+03  0.00000000000E+00 0. -1.
         11    1    4    4    0    0 -0.19398241392E+02 -0.31439063077E+02  0.33022468653E+02  0.49549872777E+02  0.00000000000E+00 0.  1.
        -13    1    3    3    0    0  0.15455560441E+02  0.40186338962E+02 -0.13338438088E+03  0.14016136861E+03  0.00000000000E+00 0.  1.
         13    1    3    3    0    0 -0.20827415320E+02 -0.65677496663E+01  0.22840289441E+01  0.21957535217E+02  0.00000000000E+00 0. -1.
         21    1    1    2  502  501 -0.30135446922E+02 -0.45530149871E+00 -0.40161237715E+02  0.50212323940E+02  0.00000000000E+00 0.  1.
<scales pt_clust_5="13000.00000" pt_clust_6="13000.00000" pt_clust_7="13000.00000" pt_clust_8="13000.00000" pt_clust_9="30.13889"></scales>
<clustering>
<clus scale="   30.139">  2  9  1 -1</clus>
<clus scale="   89.085">  7  8 -1 -1</clus>
<clus scale="   92.290">  5  6 -1 -1</clus>
<clus scale="  100.676">  2  7  1 -1</clus>
<clus scale="  103.523">  1  5  2 -1</clus>
</clustering>
</event>
<event>
 9    1  0.1713970E-005  0.1666159E+03  0.7546771E-02  0.1181790E+00
         -1   -1    0    0    0  501 -0.00000000000E+00  0.00000000000E+00  0.49214564435E+02  0.49214564435E+02  0.00000000000E+00 0.  1.
          1   -1    0    0  502    0  0.00000000000E+00 -0.00000000000E+00 -0.92617520534E+03  0.92617520534E+03  0.00000000000E+00 0. -1.
         23    2    1    2    0    0  0.13611379008E+03  0.31852838738E+02 -0.39431365646E+03  0.42833674558E+03  0.91910504051E+02 0.  0.
         23    2    1    2    0    0 -0.14034470729E+03  0.39742979798E+01 -0.48310082538E+03  0.51097407802E+03  0.89418504940E+02 0.  0.
        -11    1    3    3    0    0  0.24434604684E+01  0.32318357817E+02 -0.99225226407E+02  0.10438434895E+03  0.00000000000E+00 0.  1.
         11    1    3    3    0    0  0.13367032961E+03 -0.46551907927E+00 -0.29508843005E+03  0.32395239662E+03  0.00000000000E+00 0. -1.
        -13    1    4    4    0    0 -0.18870273308E+02 -0.31996159081E+02 -0.75577615164E+02  0.84212928488E+02  0.00000000000E+00 0. -1.
         13    1    4    4    0    0 -0.12147443398E+03  0.35970457061E+02 -0.40752321021E+03  0.42676114954E+03  0.00000000000E+00 0.  1.
         21    1    1    2  502  501  0.42309172067E+01 -0.35827136717E+02  0.45384092570E+00  0.36078946179E+02  0.00000000000E+00 0. -1.
<scales pt_clust_5="13000.00000" pt_clust_6="13000.00000" pt_clust_7="13000.00000" pt_clust_8="13000.00000" pt_clust_9="36.07609"></scales>
<clustering>
<clus scale="   36.076">  1  9  2 -1</clus>
<clus scale="   89.419">  7  8 -1 -1</clus>
<clus scale="   91.911">  5  6 -1 -1</clus>
<clus scale="  165.254">  2  7  1 -1</clus>
<clus scale="  165.254">  2  5  1 -1</clus>
</clustering>
</event>
<event>
 9    1  0.1713970E-005  0.1309544E+03  0.7546771E-02  0.1226186E+00
          2   -1    0    0  502    0  0.00000000000E+00  0.00000000000E+00  0.47420326198E+03  0.47420326198E+03  0.00000000000E+00 0. -1.
         -2   -1    0    0    0  501 -0.00000000000E+00 -0.00000000000E+00 -0.79907999024E+02  0.79907999024E+02  0.00000000000E+00 0.  1.
         23    2    1    2    0    0  0.14119033118E+02 -0.10675055402E+03  0.30714807656E+02  0.14419026185E+03  0.90842745016E+02 0.  0.
         23    2    1    2    0    0  0.26722930021E+02  0.88488764253E+02  0.32780797169E+03  0.35263898188E+03  0.91388231487E+02 0.  0.
        -13    1    3    3    0    0 -0.37894465989E+02 -0.43341587674E+02  0.22328219026E+02  0.61749762264E+02  0.00000000000E+00 0. -1.
         13    1    3    3    0    0  0.52013499107E+02 -0.63408966349E+02  0.83865886299E+01  0.82440499584E+02  0.00000000000E+00 0.  1.
        -13    1    4    4    0    0  0.47098065680E+02  0.11009860566E+02  0.15027527151E+03  0.15786735587E+03  0.00000000000E+00 0.  1.
         13    1    4    4    0    0 -0.20375135659E+02  0.77478903687E+02  0.17753270017E+03  0.19477162602E+03  0.00000000000E+00 0. -1.
         21    1    1    2  502  501 -0.40841963139E+02  0.18261789770E+02  0.35772483607E+02  0.57282017266E+02  0.00000000000E+00 0.  1.
<scales pt_clust_5="13000.00000" pt_clust_6="13000.00000" pt_clust_7="13000.00000" pt_clust_8="13000.00000" pt_clust_9="44.73879"></scales>
<clustering>
<clus scale="   44.739">  2  9  1 -1</clus>
<clus scale="   90.843">  5  6 -1 -1</clus>
<clus scale="   91.388">  7  8 -1 -1</clus>
<clus scale="  130.574">  2  5  1 -1</clus>
<clus scale="  130.954">  1  5  2 -1</clus>
</clustering>
</event>
<event>
 9    1  0.1713970E-005  0.1638949E+03  0.7546771E-02  0.1184490E+00
          1   -1    0    0  502    0  0.00000000000E+00  0.00000000000E+00  0.22558826747E+03  0.22558826747E+03  0.00000000000E+00 0. -1.
         -1   -1    0    0    0  501 -0.00000000000E+00 -0.00000000000E+00 -0.18024781408E+03  0.18024781408E+03  0.00000000000E+00 0.  1.
         23    2    1    2    0    0 -0.13579568289E+03  0.62229559365E+02 -0.16805462080E+02  0.17641198146E+03  0.92335140091E+02 0.  0.
         23    2    1    2    0    0  0.13084528455E+03 -0.89343623891E+01  0.71319574666E+02  0.17511903138E+03  0.91541695966E+02 0.  0.
        -13    1    4    4    0    0  0.58786125078E+02 -0.49594130411E+02  0.39607581743E+02  0.86510963493E+02  0.00000000000E+00 0.  1.
         13    1    4    4    0    0  0.72059159476E+02  0.40659768022E+02  0.31711992923E+02  0.88608067890E+02  0.00000000000E+00 0. -1.
        -13    1    3    3    0    0 -0.19090756136E+02  0.17480123864E+02 -0.41590997288E+02  0.48987985829E+02  0.00000000000E+00 0.  1.
         13    1    3    3    0    0 -0.11670492675E+03  0.44749435501E+02  0.24785535209E+02  0.12742399563E+03  0.00000000000E+00 0. -1.
         21    1    1    2  502  501  0.49503983361E+01 -0.53295196976E+02 -0.91736591962E+01  0.54305068709E+02  0.00000000000E+00 0.  1.
<scales pt_clust_5="13000.00000" pt_clust_6="13000.00000" pt_clust_7="13000.00000" pt_clust_8="13000.00000" pt_clust_9="53.52462"></scales>
<clustering>
<clus scale="   53.525">  2  9  1 -1</clus>
<clus scale="   91.542">  5  6 -1 -1</clus>
<clus scale="   92.335">  7  8 -1 -1</clus>
<clus scale="  163.449">  1  5  2 -1</clus>
<clus scale="  163.449">  1  5  2 -1</clus>
</clustering>
</event>
<event>
 9    1  0.1713970E-005  0.1338238E+03  0.7546771E-02  0.1231205E+00
         -1   -1    0    0    0  501 -0.00000000000E+00  0.00000000000E+00  0.33891419433E+03  0.33891419433E+03  0.00000000000E+00 0.  1.
          1   -1    0    0  502    0  0.00000000000E+00 -0.00000000000E+00 -0.95466133247E+02  0.95466133247E+02  0.00000000000E+00 0. -1.
         23    2    1    2    0    0  0.24936867534E+02 -0.34421868845E+01  0.18964687167E+03  0.22591456086E+03  0.12015721727E+03 0.  0.
         23    2    1    2    0    0 -0.25916164032E+02 -0.69529418505E+02  0.23562196549E+01  0.11917747450E+03  0.93229453823E+02 0.  0.
        -11    1    4    4    0    0  0.16994103769E+02  0.15799947637E+02  0.45263502985E+01  0.23641610674E+02  0.00000000000E+00 0.  1.
         11    1    4    4    0    0 -0.42910267801E+02 -0.85329366142E+02 -0.21701306436E+01  0.95535863821E+02  0.00000000000E+00 0. -1.
        -11    1    3    3    0    0 -0.27364646469E+02  0.44210639520E+02  0.78489193248E+02  0.94148595209E+02  0.00000000000E+00 0.  1.
         11    1    3    3    0    0  0.52301514003E+02 -0.47652826405E+02  0.11115767843E+03  0.13176596565E+03  0.00000000000E+00 0. -1.
         21    1    1    2  502  501  0.97929649743E+00  0.72971605390E+02  0.51444969758E+02  0.89288292223E+02  0.00000000000E+00 0.  1.
<scales pt_clust_5="13000.00000" pt_clust_6="13000.00000" pt_clust_7="13000.00000" pt_clust_8="13000.00000" pt_clust_9="72.97818"></scales>
<clustering>
<clus scale="   72.978">  1  9  2 -1</clus>
<clus scale="   93.229">  5  6 -1 -1</clus>
<clus scale="  110.285">  2  5  1 -1</clus>
<clus scale="  120.157">  7  8 -1 -1</clus>
<clus scale="  110.285">  2  5  1 -1</clus>
</clustering>
</event>
<event>
 9    1  0.1713970E-005  0.1374593E+03  0.7546771E-02  0.1217981E+00
          1   -1    0    0  502    0  0.00000000000E+00  0.00000000000E+00  0.93856827614E+03  0.93856827614E+03  0.00000000000E+00 0. -1.
         -1   -1    0    0    0  501 -0.00000000000E+00 -0.00000000000E+00 -0.62629991472E+02  0.62629991472E+02  0.00000000000E+00 0.  1.
         23    2    1    2    0    0  0.58798133410E+01 -0.75010215700E+02  0.19847741148E+03  0.23034925053E+03  0.89478431411E+02 0.  0.
         23    2    1    2    0    0  0.10848339874E+02  0.11126794944E+03  0.70647966642E+03  0.72148764831E+03  0.94512774552E+02 0.  0.
        -11    1    4    4    0    0 -0.19054521806E+02 -0.72300156254E+01  0.55233349931E+02  0.58873346022E+02  0.00000000000E+00 0.  1.
         11    1    4    4    0    0  0.29902861679E+02  0.11849796507E+03  0.65124631649E+03  0.66261430229E+03  0.00000000000E+00 0. -1.
        -13    1    3    3    0    0  0.53990678895E+00 -0.94976885820E+02  0.17466243597E+03  0.19881616352E+03  0.00000000000E+00 0.  1.
         13    1    3    3    0    0  0.53399065520E+01  0.19966670120E+02  0.23814975515E+02  0.31533087010E+02  0.00000000000E+00 0. -1.
         21    1    1    2  502  501 -0.16728153215E+02 -0.36257733741E+02 -0.29018793232E+02  0.49361368768E+02  0.00000000000E+00 0.  1.
<scales pt_clust_5="13000.00000" pt_clust_6="13000.00000" pt_clust_7="13000.00000" pt_clust_8="13000.00000" pt_clust_9="39.93062"></scales>
<clustering>
<clus scale="   39.931">  2  9  1 -1</clus>
<clus scale="   89.478">  7  8 -1 -1</clus>
<clus scale="   94.513">  5  6 -1 -1</clus>
<clus scale="  134.048">  2  7  1 -1</clus>
<clus scale="  137.459">  1  5  2 -1</clus>
</clustering>
</event>
<event>
 9    1  0.1713970E-005  0.9651506E+02  0.7546771E-02  0.1288189E+00
          2   -1    0    0  502    0  0.00000000000E+00  0.00000000000E+00  0.22074346217E+03  0.22074346217E+03  0.00000000000E+00 0. -1.
         -2   -1    0    0    0  501 -0.00000000000E+00 -0.00000000000E+00 -0.63006124932E+02  0.63006124932E+02  0.00000000000E+00 0.  1.
         23    2    1    2    0    0  0.22512872258E+02 -0.31378904123E+02  0.53345924481E+02  0.11343212088E+03  0.92355797586E+02 0.  0.
         23    2    1    2    0    0  0.55814212335E+01  0.25225462018E+02  0.10476551385E+03  0.14155474507E+03  0.91621268070E+02 0.  0.
        -11    1    4    4    0    0  0.46478109881E+02  0.11911682694E+02  0.34222892652E+02  0.58934788234E+02  0.00000000000E+00 0.  1.
         11    1    4    4    0    0 -0.40896688648E+02  0.13313779324E+02  0.70542621194E+02  0.82619956834E+02  0.00000000000E+00 0. -1.
        -13    1    3    3    0    0 -0.36101490916E+02 -0.15535682520E+02  0.18687944023E+02  0.43519126020E+02  0.00000000000E+00 0. -1.
         13    1    3    3    0    0  0.58614363174E+02 -0.15843221603E+02  0.34657980458E+02  0.69912994862E+02  0.00000000000E+00 0.  1.
         21    1    1    2  502  501 -0.28094293492E+02  0.61534421048E+01 -0.37410108812E+00  0.28762721153E+02  0.00000000000E+00 0. -1.
<scales pt_clust_5="13000.00000" pt_clust_6="13000.00000" pt_clust_7="13000.00000" pt_clust_8="13000.00000" pt_clust_9="28.76029"></scales>
<clustering>
<clus scale="   28.760">  2  9  1 -1</clus>
<clus scale="   91.621">  5  6 -1 -1</clus>
<clus scale="   92.356">  7  8 -1 -1</clus>
<clus scale="   95.812">  1  5  2 -1</clus>
<clus scale="   95.812">  1  5  2 -1</clus>
</clustering>
</event>
<event>
 9    1  0.1713970E-005  0.9353511E+02  0.7546771E-02  0.1296090E+00
          1   -1    0    0  502    0  0.00000000000E+00  0.00000000000E+00  0.27886554830E+02  0.27886554830E+02  0.00000000000E+00 0. -1.
         -1   -1    0    0    0  501 -0.00000000000E+00 -0.00000000000E+00 -0.48349074760E+03  0.48349074760E+03  0.00000000000E+00 0.  1.
         23    2    1    2    0    0  0.97380313399E+01  0.22959809259E+01 -0.29625274256E+03  0.30968191935E+03  0.89649890773E+02 0.  0.
         23    2    1    2    0    0 -0.93276078230E+00  0.20718827931E+02 -0.10147649163E+03  0.13879287878E+03  0.92389636722E+02 0.  0.
        -13    1    3    3    0    0 -0.29994843330E+02  0.25779530329E+02 -0.18599922892E+03  0.19015779755E+03  0.00000000000E+00 0.  1.
         13    1    3    3    0    0  0.39732874670E+02 -0.23483549403E+02 -0.11025351363E+03  0.11952412179E+03  0.00000000000E+00 0. -1.
        -13    1    4    4    0    0 -0.35206614223E+02  0.27395854253E+02 -0.92567755541E+02  0.10275615739E+03  0.00000000000E+00 0. -1.
         13    1    4    4    0    0  0.34273853440E+02 -0.66770263218E+01 -0.89087360895E+01  0.36036721394E+02  0.00000000000E+00 0.  1.
         21    1    1    2  502  501 -0.88052705576E+01 -0.23014808857E+02 -0.57874958589E+02  0.62902504306E+02  0.00000000000E+00 0.  1.
<scales pt_clust_5="13000.00000" pt_clust_6="13000.00000" pt_clust_7="13000.00000" pt_clust_8="13000.00000" pt_clust_9="24.64172"></scales>
<clustering>
<clus scale="   24.642">  2  9  1 -1</clus>
<clus scale="   89.650">  5  6 -1 -1</clus>
<clus scale="   90.830">  2  5  1 -1</clus>
<clus scale="   92.390">  7  8 -1 -1</clus>
<clus scale="   93.535">  1  5  2 -1</clus>
</clustering>
</event>
<event>
 9    1  0.1713970E-005  0.2136933E+03  0.7546771E-02  0.1138698E+00
          1   -1    0    0  502    0  0.00000000000E+00  0.00000000000E+00  0.12800125673E+03  0.12800125673E+03  0.00000000000E+00 0. -1.
         -1   -1    0    0    0  501 -0.00000000000E+00 -0.00000000000E+00 -0.76847623767E+03  0.76847623767E+03  0.00000000000E+00 0.  1.
         23    2    1    2    0    0 -0.12990574520E+03  0.12982350908E+03 -0.52149721710E+03  0.56028861950E+03  0.90743283776E+02 0.  0.
         23    2    1    2    0    0  0.12400684116E+03 -0.15102924114E+03 -0.39275808992E+00  0.21557841214E+03  0.91029496244E+02 0.  0.
        -11    1    4    4    0    0  0.13345910289E+03 -0.12201548658E+03  0.14908223372E+02  0.18144245984E+03  0.00000000000E+00 0. -1.
         11    1    4    4    0    0 -0.94522617261E+01 -0.29013754562E+02 -0.15300981462E+02  0.34135952297E+02  0.00000000000E+00 0.  1.
        -11    1    3    3    0    0 -0.53047662794E+02  0.13413750027E+02 -0.23956933659E+03  0.24573858113E+03  0.00000000000E+00 0.  1.
         11    1    3    3    0    0 -0.76858082402E+02  0.11640975905E+03 -0.28192788051E+03  0.31455003838E+03  0.00000000000E+00 0. -1.
         21    1    1    2  502  501  0.58989040317E+01  0.21205732065E+02 -0.11858500574E+03  0.12061046277E+03  0.00000000000E+00 0.  1.
<scales pt_clust_5="13000.00000" pt_clust_6="13000.00000" pt_clust_7="13000.00000" pt_clust_8="13000.00000" pt_clust_9="22.01091"></scales>
<clustering>
<clus scale="   22.011">  2  9  1 -1</clus>
<clus scale="   90.743">  7  8 -1 -1</clus>
<clus scale="   91.029">  5  6 -1 -1</clus>
<clus scale="  213.572">  2  7  1 -1</clus>
<clus scale="  213.693">  1  5  2 -1</clus>
</clustering>
</event>
<event>
 9    1  0.1713970E-005  0.1063210E+03  0.7546771E-02  0.1267930E+00
         -1   -1    0    0    0  501 -0.00000000000E+00  0.00000000000E+00  0.89703566057E+02  0.89703566057E+02  0.00000000000E+00 0.  1.
          1   -1    0    0  502    0  0.00000000000E+00 -0.00000000000E+00 -0.27055597967E+03  0.27055597967E+03  0.00000000000E+00 0. -1.
         23    2    1    2    0    0 -0.55110589756E+02 -0.22242166478E+02  0.21011840966E+02  0.11077665588E+03  0.91093792076E+02 0.  0.
         23    2    1    2    0    0  0.38915950863E+02  0.38393380730E+02 -0.20054699778E+03  0.22657299643E+03  0.90153876673E+02 0.  0.
        -13    1    4    4    0    0 -0.14070597948E+02 -0.21274095844E+02 -0.43901558491E+02  0.50773179126E+02  0.00000000000E+00 0. -1.
         13    1    4    4    0    0  0.52986548811E+02  0.59667476574E+02 -0.15664543928E+03  0.17579981730E+03  0.00000000000E+00 0.  1.
        -13    1    3    3    0    0 -0.39757703379E+02  0.24149681776E+02  0.36917704830E+02  0.59386859134E+02  0.00000000000E+00 0. -1.
         13    1    3    3    0    0 -0.15352886377E+02 -0.46391848254E+02 -0.15905863864E+02  0.51389796748E+02  0.00000000000E+00 0.  1.
         21    1    1    2  502  501  0.16194638894E+02 -0.16151214252E+02 -0.13172568018E+01  0.22909893413E+02  0.00000000000E+00 0.  1.
<scales pt_clust_5="13000.00000" pt_clust_6="13000.00000" pt_clust_7="13000.00000" pt_clust_8="13000.00000" pt_clust_9="22.87199"></scales>
<clustering>
<clus scale="   22.872">  1  9  2 -1</clus>
<clus scale="   90.154">  5  6 -1 -1</clus>
<clus scale="   91.094">  7  8 -1 -1</clus>
<clus scale="  105.517">  2  5  1 -1</clus>
<clus scale="  105.517">  2  5  1 -1</clus>
</clustering>
</event>
<event>
 9    1  0.1713970E-005  0.1834768E+03  0.7546771E-02  0.1164572E+00
          1   -1    0    0  502    0  0.00000000000E+00  0.00000000000E+00  0.61023563756E+03  0.61023563756E+03  0.00000000000E+00 0. -1.
         -1   -1    0    0    0  501 -0.00000000000E+00 -0.00000000000E+00 -0.74488273668E+02  0.74488273668E+02  0.00000000000E+00 0.  1.
         23    2    1    2    0    0 -0.35185303157E+02  0.14541618409E+03  0.12510063813E+03  0.21411060380E+03  0.88370293919E+02 0.  0.
         23    2    1    2    0    0  0.71848204691E+02 -0.15143981283E+03  0.37010878097E+03  0.41562442291E+03  0.87561234242E+02 0.  0.
        -13    1    4    4    0    0  0.84488900734E+02 -0.13332404789E+03  0.35597606724E+03  0.38940035508E+03  0.00000000000E+00 0. -1.
         13    1    4    4    0    0 -0.12640696043E+02 -0.18115764948E+02  0.14132713730E+02  0.26224067829E+02  0.00000000000E+00 0.  1.
        -13    1    3    3    0    0 -0.58091795294E+02  0.96089959726E+02  0.54000893793E+02  0.12459547974E+03  0.00000000000E+00 0.  1.
         13    1    3    3    0    0  0.22906492137E+02  0.49326224362E+02  0.71099744332E+02  0.89515124062E+02  0.00000000000E+00 0. -1.
         21    1    1    2  502  501 -0.36662901533E+02  0.60236287451E+01  0.40537944800E+02  0.54988884519E+02  0.00000000000E+00 0.  1.
<scales pt_clust_5="13000.00000" pt_clust_6="13000.00000" pt_clust_7="13000.00000" pt_clust_8="13000.00000" pt_clust_9="37.15444"></scales>
<clustering>
<clus scale="   37.154">  2  9  1 -1</clus>
<clus scale="   87.561">  5  6 -1 -1</clus>
<clus scale="   88.370">  7  8 -1 -1</clus>
<clus scale="  183.089">  1  5  2 -1</clus>
<clus scale="  183.089">  1  5  2 -1</clus>
</clustering>
</event>
<event>
 9    1  0.1713970E-005  0.1820645E+03  0.7546771E-02  0.1166149E+00
         -3   -1    0    0    0  501 -0.00000000000E+00  0.00000000000E+00  0.49320866301E+02  0.49320866301E+02  0.00000000000E+00 0.  1.
          3   -1    0    0  502    0  0.00000000000E+00 -0.00000000000E+00 -0.83256253178E+03  0.83256253178E+03  0.00000000000E+00 0. -1.
         23    2    1    2    0    0  0.10617916449E+03  0.91058085380E+02 -0.24142822845E+03  0.29331179278E+03  0.90435769496E+02 0.  0.
         23    2    1    2    0    0 -0.12700625845E+03 -0.10900331312E+03 -0.51771284366E+03  0.55201155003E+03  0.93154983287E+02 0.  0.
        -11    1    4    4    0    0  0.11860837736E+02 -0.28085265734E+02 -0.71166015900E+02  0.77421337125E+02  0.00000000000E+00 0.  1.
         11    1    4    4    0    0 -0.13886709618E+03 -0.80918047385E+02 -0.44654682776E+03  0.47459021290E+03  0.00000000000E+00 0. -1.
        -13    1    3    3    0    0  0.71594186682E+02  0.57904413546E+02 -0.70989541200E+02  0.11626763795E+03  0.00000000000E+00 0.  1.
         13    1    3    3    0    0  0.34584977804E+02  0.33153671834E+02 -0.17043868725E+03  0.17704415483E+03  0.00000000000E+00 0. -1.
         21    1    1    2  502  501  0.20827093962E+02  0.17945227738E+02 -0.24100593359E+02  0.36560055276E+02  0.00000000000E+00 0.  1.
<scales pt_clust_5="13000.00000" pt_clust_6="13000.00000" pt_clust_7="13000.00000" pt_clust_8="13000.00000" pt_clust_9="27.49180"></scales>
<clustering>
<clus scale="   27.492">  1  9  2 -1</clus>
<clus scale="   90.436">  7  8 -1 -1</clus>
<clus scale="   93.155">  5  6 -1 -1</clus>
<clus scale="  180.688">  1  7  2 -1</clus>
<clus scale="  182.064">  2  5  1 -1</clus>
</clustering>
</event>
<event>
 9    1  0.1713970E-005  0.9232964E+02  0.7546771E-02  0.1297315E+00
         -3   -1    0    0    0  501 -0.00000000000E+00  0.00000000000E+00  0.24382593933E+03  0.24382593933E+03  0.00000000000E+00 0.  1.
          3   -1    0    0  502    0  0.00000000000E+00 -0.00000000000E+00 -0.69812111841E+02  0.69812111841E+02  0.00000000000E+00 0. -1.
         23    2    1    2    0    0  0.10692909669E+02 -0.23721541692E+02  0.74825788803E+02  0.12121067099E+03  0.91739185926E+02 0.  0.
         23    2    1    2    0    0 -0.29395439427E+01  0.16055455714E+01  0.13545054360E+01  0.91826027344E+02  0.91754923125E+02 0.  0.
        -11    1    3    3    0    0 -0.17938869298E+02  0.16180232263E+02  0.67327203121E+02  0.71530100152E+02  0.00000000000E+00 0.  1.
         11    1    3    3    0    0  0.28631778967E+02 -0.39901773954E+02  0.74985856822E+01  0.49680570837E+02  0.00000000000E+00 0. -1.
        -11    1    4    4    0    0 -0.45095515562E+02  0.14801887115E+02 -0.21720468209E+01  0.47512305495E+02  0.00000000000E+00 0.  1.
         11    1    4    4    0    0  0.42155971620E+02 -0.13196341544E+02  0.35265522569E+01  0.44313721850E+02  0.00000000000E+00 0. -1.
         21    1    1    2  502  501 -0.77533657266E+01  0.22115996120E+02  0.97833533255E+02  0.10060135284E+03  0.00000000000E+00 0.  1.
<scales pt_clust_5="13000.00000" pt_clust_6="13000.00000" pt_clust_7="13000.00000" pt_clust_8="13000.00000" pt_clust_9="23.43570"></scales>
<clustering>
<clus scale="   23.436">  1  9  2 -1</clus>
<clus scale="   91.739">  5  6 -1 -1</clus>
<clus scale="   91.755">  7  8 -1 -1</clus>
<clus scale="   92.314">  1  5  2 -1</clus>
<clus scale="   92.330">  2  5  1 -1</clus>
</clustering>
</event>
<event>
 9    1  0.1713970E-005  0.1303633E+03  0.7546771E-02  0.1226969E+00
         -2   -1    0    0    0  501 -0.00000000000E+00  0.00000000000E+00  0.56582697145E+02  0.56582697145E+02  0.00000000000E+00 0.  1.
          2   -1    0    0  502    0  0.00000000000E+00 -0.00000000000E+00 -0.43672971468E+03  0.43672971468E+03  0.00000000000E+00 0. -1.
         23    2    1    2    0    0 -0.93562434063E+02 -0.26477401934E+02 -0.15082394910E+03  0.20045948666E+03  0.89337339826E+02 0.  0.
         23    2    1    2    0    0  0.81901864050E+02  0.47292258769E+02 -0.23480683375E+03  0.26837234429E+03  0.89134689802E+02 0.  0.
        -11    1    4    4    0    0  0.64053116498E+02  0.73254574315E+02 -0.19164939247E+03  0.21493841915E+03  0.00000000000E+00 0.  1.
         11    1    4    4    0    0  0.17848747552E+02 -0.25962315546E+02 -0.43157441283E+02  0.53433925139E+02  0.00000000000E+00 0. -1.
        -13    1    3    3    0    0 -0.77538238493E+02 -0.57860302598E+02 -0.11323532910E+03  0.14893700951E+03  0.00000000000E+00 0. -1.
         13    1    3    3    0    0 -0.16024195570E+02  0.31382900664E+02 -0.37588620004E+02  0.51522477149E+02  0.00000000000E+00 0.  1.
         21    1    1    2  502  501  0.11660570012E+02 -0.20814856835E+02  0.54837653229E+01  0.24480580879E+02  0.00000000000E+00 0. -1.
<scales pt_clust_5="13000.00000" pt_clust_6="13000.00000" pt_clust_7="13000.00000" pt_clust_8="13000.00000" pt_clust_9="23.85848"></scales>
<clustering>
<clus scale="   23.858">  1  9  2 -1</clus>
<clus scale="   89.135">  5  6 -1 -1</clus>
<clus scale="   89.337">  7  8 -1 -1</clus>
<clus scale="  130.225">  2  5  1 -1</clus>
<clus scale="  130.225">  2  5  1 -1</clus>
</clustering>
</event>
<event>
 9    1  0.1713970E-005  0.9469736E+02  0.7546771E-02  0.1293617E+00
         -1   -1    0    0    0  501 -0.00000000000E+00  0.00000000000E+00  0.24964542143E+03  0.24964542143E+03  0.00000000000E+00 0.  1.
          1   -1    0    0  502    0  0.00000000000E+00 -0.00000000000E+00 -0.89359430570E+02  0.89359430570E+02  0.00000000000E+00 0. -1.
         23    2    1    2    0    0  0.11304772926E+02  0.35658243522E+01  0.15186220624E+03  0.17733830982E+03  0.90808774102E+02 0.  0.
         23    2    1    2    0    0  0.14055935083E+02 -0.78321423107E+01 -0.42736873401E+02  0.10440591077E+03  0.93889520667E+02 0.  0.
        -13    1    4    4    0    0 -0.40377671715E+01  0.36106979812E+02  0.54402963847E+01  0.36737098139E+02  0.00000000000E+00 0.  1.
         13    1    4    4    0    0  0.18093702254E+02 -0.43939122123E+02 -0.48177169786E+02  0.67668812630E+02  0.00000000000E+00 0. -1.
        -13    1    3    3    0    0 -0.34892989369E+02 -0.19427546473E+02  0.68821210717E+02  0.79569525031E+02  0.00000000000E+00 0.  1.
         13    1    3    3    0    0  0.46197762295E+02  0.22993370825E+02  0.83040995520E+02  0.97768784793E+02  0.00000000000E+00 0. -1.
         21    1    1    2  502  501 -0.25360708009E+02  0.42663179585E+01  0.51160658029E+02  0.57260631411E+02  0.00000000000E+00 0.  1.
<scales pt_clust_5="13000.00000" pt_clust_6="13000.00000" pt_clust_7="13000.00000" pt_clust_8="13000.00000" pt_clust_9="25.71706"></scales>
<clustering>
<clus scale="   25.717">  1  9  2 -1</clus>
<clus scale="   90.809">  7  8 -1 -1</clus>
<clus scale="   91.644">  1  7  2 -1</clus>
<clus scale="   93.890">  5  6 -1 -1</clus>
<clus scale="   94.697">  2  5  1 -1</clus>
</clustering>
</event>
<event>
 9    1  0.1713970E-005  0.1107241E+03  0.7546771E-02  0.1260471E+00
          2   -1    0    0  502    0  0.00000000000E+00  0.00000000000E+00  0.23257363464E+03  0.23257363464E+03  0.00000000000E+00 0. -1.
         -2   -1    0    0    0  501 -0.00000000000E+00 -0.00000000000E+00 -0.50089278404E+03  0.50089278404E+03  0.00000000000E+00 0.  1.
         23    2    1    2    0    0  0.35499475640E+02  0.48253475246E+01 -0.11749246443E+03  0.15465222015E+03  0.93964531875E+02 0.  0.
         23    2    1    2    0    0  0.22835208258E+01 -0.64368218920E+02  0.19571635347E+03  0.22516891601E+03  0.90816670537E+02 0.  0.
        -11    1    4    4    0    0  0.24695272418E+02 -0.11359543019E+02  0.72811400858E+01  0.28140907916E+02  0.00000000000E+00 0.  1.
         11    1    4    4    0    0 -0.22411751593E+02 -0.53008675902E+02  0.18843521339E+03  0.19702800809E+03  0.00000000000E+00 0. -1.
        -13    1    3    3    0    0  0.31145022290E+02  0.47965840073E+02 -0.68034111894E+02  0.88878426002E+02  0.00000000000E+00 0.  1.
         13    1    3    3    0    0  0.43544533507E+01 -0.43140492549E+02 -0.49458352532E+02  0.65773794147E+02  0.00000000000E+00 0. -1.
         21    1    1    2  502  501 -0.37782996466E+02  0.59542871396E+02 -0.34654303845E+03  0.35364528252E+03  0.00000000000E+00 0.  1.
<scales pt_clust_5="13000.00000" pt_clust_6="13000.00000" pt_clust_7="13000.00000" pt_clust_8="13000.00000" pt_clust_9="70.51885"></scales>
<clustering>
<clus scale="   70.519">  2  9  1 -1</clus>
<clus scale="   90.817">  5  6 -1 -1</clus>
<clus scale="   93.965">  7  8 -1 -1</clus>
<clus scale="  108.066">  1  5  2 -1</clus>
<clus scale="  108.066">  1  5  2 -1</clus>
</clustering>
</event>
<event>
 9    1  0.1713970E-005  0.1000778E+03  0.7546771E-02  0.1281291E+00
         -1   -1    0    0    0  501 -0.00000000000E+00  0.00000000000E+00  0.18035246530E+03  0.18035246530E+03  0.00000000000E+00 0.  1.
          1   -1    0    0  502    0  0.00000000000E+00 -0.00000000000E+00 -0.12049036105E+03  0.12049036105E+03  0.00000000000E+00 0. -1.
         23    2    1    2    0    0  0.40922225275E+01  0.23965296711E+02  0.11736153267E+03  0.15079368401E+03  0.91509147378E+02 0.  0.
         23    2    1    2    0    0  0.10863344020E+02 -0.42595230264E+02 -0.71442199473E+02  0.12238790124E+03  0.89120393964E+02 0.  0.
        -11    1    4    4    0    0 -0.73299561234E+01 -0.53729518024E+02 -0.72071998536E+01  0.54704050065E+02  0.00000000000E+00 0.  1.
         11    1    4    4    0    0  0.18193300144E+02  0.11134287759E+02 -0.64234999619E+02  0.67683851177E+02  0.00000000000E+00 0. -1.
        -11    1    3    3    0    0  0.32284580090E+02 -0.19542768986E+02  0.74551965542E+02  0.83559616427E+02  0.00000000000E+00 0.  1.
         11    1    3    3    0    0 -0.28192357562E+02  0.43508065697E+02  0.42809567129E+02  0.67234067580E+02  0.00000000000E+00 0. -1.
         21    1    1    2  502  501 -0.14955566548E+02  0.18629933553E+02  0.13942771045E+02  0.27661241103E+02  0.00000000000E+00 0. -1.
<scales pt_clust_5="13000.00000" pt_clust_6="13000.00000" pt_clust_7="13000.00000" pt_clust_8="13000.00000" pt_clust_9="23.89024"></scales>
<clustering>
<clus scale="   23.890">  1  9  2 -1</clus>
<clus scale="   89.120">  5  6 -1 -1</clus>
<clus scale="   91.509">  7  8 -1 -1</clus>
<clus scale="   97.898">  2  5  1 -1</clus>
<clus scale="   97.898">  2  5  1 -1</clus>
</clustering>
</event>
<event>
 9    1  0.1713970E-005  0.9806872E+02  0.7546771E-02  0.1285489E+00
          1   -1    0    0  502    0  0.00000000000E+00  0.00000000000E+00  0.17629557285E+03  0.17629557285E+03  0.00000000000E+00 0. -1.
         -1   -1    0    0    0  501 -0.00000000000E+00 -0.00000000000E+00 -0.10598622834E+03  0.10598622834E+03  0.00000000000E+00 0.  1.
         23    2    1    2    0    0 -0.50947962507E+02 -0.40466384756E+01 -0.16941396620E+02  0.10486840930E+03  0.89990567188E+02 0.  0.
         23    2    1    2    0    0  0.25540328744E+02  0.14401436118E+02  0.10655956140E+03  0.14386342574E+03  0.92097966240E+02 0.  0.
        -11    1    3    3    0    0  0.10164295427E+01 -0.36264825594E+02  0.10620291972E+02  0.37801604542E+02  0.00000000000E+00 0. -1.
         11    1    3    3    0    0 -0.51964392050E+02  0.32218187118E+02 -0.27561688591E+02  0.67066804757E+02  0.00000000000E+00 0.  1.
        -13    1    4    4    0    0 -0.21699387325E+02  0.37394153134E+02  0.38555455559E+02  0.57928483945E+02  0.00000000000E+00 0.  1.
         13    1    4    4    0    0  0.47239716069E+02 -0.22992717016E+02  0.68004105845E+02  0.85934941798E+02  0.00000000000E+00 0. -1.
         21    1    1    2  502  501  0.25407633763E+02 -0.10354797642E+02 -0.19308820274E+02  0.33549966140E+02  0.00000000000E+00 0. -1.
<scales pt_clust_5="13000.00000" pt_clust_6="13000.00000" pt_clust_7="13000.00000" pt_clust_8="13000.00000" pt_clust_9="27.43665"></scales>
<clustering>
<clus scale="   27.437">  2  9  1 -1</clus>
<clus scale="   89.991">  5  6 -1 -1</clus>
<clus scale="   92.098">  7  8 -1 -1</clus>
<clus scale="   96.092">  2  5  1 -1</clus>
<clus scale="   98.069">  1  5  2 -1</clus>
</clustering>
</event>
<event>
 9    1  0.1713970E-005  0.1095238E+03  0.7546771E-02  0.1267831E+00
         -1   -1    0    0    0  501 -0.00000000000E+00  0.00000000000E+00  0.80605517396E+02  0.80605517396E+02  0.00000000000E+00 0.  1.
          1   -1    0    0  502    0  0.00000000000E+00 -0.00000000000E+00 -0.51563298447E+03  0.51563298447E+03  0.00000000000E+00 0. -1.
         23    2    1    2    0    0  0.34510819104E+02  0.71395028951E+01 -0.81194488133E+02  0.12979278566E+03  0.94929727529E+02 0.  0.
         23    2    1    2    0    0  0.36579615017E+02  0.75307121118E+01 -0.37404297131E+03  0.39109647054E+03  0.10795149382E+03 0.  0.
        -11    1    3    3    0    0  0.37098128346E+02  0.46427300707E+02 -0.62374953057E+02  0.86153352497E+02  0.00000000000E+00 0. -1.
         11    1    3    3    0    0 -0.25873092423E+01 -0.39287797812E+02 -0.18819535077E+02  0.43639433160E+02  0.00000000000E+00 0.  1.
        -13    1    4    4    0    0  0.36917092320E+02  0.53024124760E+02 -0.26852722626E+03  0.27619069636E+03  0.00000000000E+00 0. -1.
         13    1    4    4    0    0 -0.33747730282E+00 -0.45493412648E+02 -0.10551574506E+03  0.11490577418E+03  0.00000000000E+00 0.  1.
         21    1    1    2  502  501 -0.71090434121E+02 -0.14670215007E+02  0.20209992371E+02  0.75349245673E+02  0.00000000000E+00 0. -1.
<scales pt_clust_5="13000.00000" pt_clust_6="13000.00000" pt_clust_7="13000.00000" pt_clust_8="13000.00000" pt_clust_9="72.58833"></scales>
<clustering>
<clus scale="   72.588">  1  9  2 -1</clus>
<clus scale="   94.930">  5  6 -1 -1</clus>
<clus scale="   96.714">  1  5  2 -1</clus>
<clus scale="  107.951">  7  8 -1 -1</clus>
<clus scale="  109.524">  2  5  1 -1</clus>
</clustering>
</event>
<event>
 9    1  0.1713970E-005  0.1186070E+03  0.7546771E-02  0.1248399E+00
         -2   -1    0    0    0  501 -0.00000000000E+00  0.00000000000E+00  0.12634796002E+03  0.12634796002E+03  0.00000000000E+00 0.  1.
          2   -1    0    0  502    0  0.00000000000E+00 -0.00000000000E+00 -0.24877467899E+03  0.24877467899E+03  0.00000000000E+00 0. -1.
         23    2    1    2    0    0  0.38177019368E+02 -0.95087989859E+02  0.17147545629E+02  0.13765925981E+03  0.90315130888E+02 0.  0.
         23    2    1    2    0    0  0.26772369179E+02  0.70539558400E+02 -0.12412083063E+03  0.16633070611E+03  0.81039090237E+02 0.  0.
        -11    1    3    3    0    0  0.65372812250E+02 -0.48450739946E+02  0.19305035535E+02  0.83628722218E+02  0.00000000000E+00 0. -1.
         11    1    3    3    0    0 -0.27195792882E+02 -0.46637249913E+02 -0.21574899061E+01  0.54030537593E+02  0.00000000000E+00 0.  1.
        -13    1    4    4    0    0 -0.23925676260E+02  0.50616716441E+02 -0.57147520010E+02  0.80002056293E+02  0.00000000000E+00 0. -1.
         13    1    4    4    0    0  0.50698045439E+02  0.19922841960E+02 -0.66973310622E+02  0.86328649814E+02  0.00000000000E+00 0.  1.
         21    1    1    2  502  501 -0.64949388547E+02  0.24548431459E+02 -0.15453433960E+02  0.71132673089E+02  0.00000000000E+00 0.  1.
<scales pt_clust_5="13000.00000" pt_clust_6="13000.00000" pt_clust_7="13000.00000" pt_clust_8="13000.00000" pt_clust_9="69.43377"></scales>
<clustering>
<clus scale="   69.434">  1  9  2 -1</clus>
<clus scale="   81.039">  7  8 -1 -1</clus>
<clus scale="   90.315">  5  6 -1 -1</clus>
<clus scale="  111.706">  2  7  1 -1</clus>
<clus scale="  111.706">  2  5  1 -1</clus>
</clustering>
</event>
<event>
 9    1  0.1713970E-005  0.1009786E+03  0.7546771E-02  0.1279222E+00
         -4   -1    0    0    0  501 -0.00000000000E+00  0.00000000000E+00  0.49077146501E+03  0.49077146501E+03  0.00000000000E+00 0.  1.
          4   -1    0    0  502    0  0.00000000000E+00 -0.00000000000E+00 -0.25393051040E+03  0.25393051040E+03  0.00000000000E+00 0. -1.
         23    2    1    2    0    0  0.23583104589E+02 -0.59787673255E+02  0.76644459996E+02  0.13487998523E+03  0.90484852170E+02 0.  0.
         23    2    1    2    0    0  0.18964476145E+02  0.35284759580E+02 -0.21181674363E+03  0.23458268143E+03  0.92509653158E+02 0.  0.
        -11    1    3    3    0    0  0.41085502207E+01 -0.81604524801E+02  0.57929972964E+02  0.10016017382E+03  0.00000000000E+00 0.  1.
         11    1    3    3    0    0  0.19474554369E+02  0.21816851545E+02  0.18714487033E+02  0.34719811406E+02  0.00000000000E+00 0. -1.
        -13    1    4    4    0    0  0.23537078192E+02 -0.22238113733E+02 -0.31177832511E+02  0.44950917591E+02  0.00000000000E+00 0.  1.
         13    1    4    4    0    0 -0.45726020469E+01  0.57522873313E+02 -0.18063891112E+03  0.18963176383E+03  0.00000000000E+00 0. -1.
         21    1    1    2  502  501 -0.42547580734E+02  0.24502913675E+02  0.37201323824E+03  0.37523930875E+03  0.00000000000E+00 0.  1.
<scales pt_clust_5="13000.00000" pt_clust_6="13000.00000" pt_clust_7="13000.00000" pt_clust_8="13000.00000" pt_clust_9="49.09877"></scales>
<clustering>
<clus scale="   49.099">  1  9  2 -1</clus>
<clus scale="   90.485">  5  6 -1 -1</clus>
<clus scale="   92.510">  7  8 -1 -1</clus>
<clus scale="   99.127">  1  5  2 -1</clus>
<clus scale="  100.979">  2  5  1 -1</clus>
</clustering>
</event>
<event>
 9    1  0.1713970E-005  0.9644012E+02  0.7546771E-02  0.1289186E+00
          1   -1    0    0  502    0  0.00000000000E+00  0.00000000000E+00  0.19768420683E+03  0.19768420683E+03  0.00000000000E+00 0. -1.
         -1   -1    0    0    0  501 -0.00000000000E+00 -0.00000000000E+00 -0.14172374994E+03  0.14172374994E+03  0.00000000000E+00 0.  1.
         23    2    1    2    0    0  0.13299771768E+02  0.53908191412E+01 -0.70620497826E+02  0.11821942692E+03  0.93715704813E+02 0.  0.
         23    2    1    2    0    0  0.21827413629E+02  0.17962221882E+02  0.14612996503E+03  0.17469715986E+03  0.91466133534E+02 0.  0.
        -13    1    3    3    0    0 -0.34153292895E+02  0.21116162335E+02 -0.50038225422E+02  0.64157335751E+02  0.00000000000E+00 0.  1.
         13    1    3    3    0    0  0.47453064663E+02 -0.15725343193E+02 -0.20582272404E+02  0.54062091171E+02  0.00000000000E+00 0. -1.
        -13    1    4    4    0    0 -0.20142207893E+02  0.42395657431E+02  0.77925335908E+02  0.90969545916E+02  0.00000000000E+00 0.  1.
         13    1    4    4    0    0  0.41969621522E+02 -0.24433435549E+02  0.68204629123E+02  0.83727613947E+02  0.00000000000E+00 0. -1.
         21    1    1    2  502  501 -0.35127185398E+02 -0.23353041023E+02 -0.19549010306E+02  0.46491369984E+02  0.00000000000E+00 0.  1.
<scales pt_clust_5="13000.00000" pt_clust_6="13000.00000" pt_clust_7="13000.00000" pt_clust_8="13000.00000" pt_clust_9="42.18156"></scales>
<clustering>
<clus scale="   42.182">  2  9  1 -1</clus>
<clus scale="   91.466">  7  8 -1 -1</clus>
<clus scale="   93.716">  5  6 -1 -1</clus>
<clus scale="   94.256">  1  7  2 -1</clus>
<clus scale="   94.256">  1  5  2 -1</clus>
</clustering>
</event>
<event>
 9    1  0.1713970E-005  0.2276241E+03  0.7546771E-02  0.1136676E+00
         -1   -1    0    0    0  501 -0.00000000000E+00  0.00000000000E+00  0.66231406569E+02  0.66231406569E+02  0.00000000000E+00 0.  1.
          1   -1    0    0  502    0  0.00000000000E+00 -0.00000000000E+00 -0.16077839395E+04  0.16077839395E+04  0.00000000000E+00 0. -1.
         23    2    1    2    0    0  0.14545849074E+03  0.11440921657E+03 -0.58131891592E+03  0.61743395676E+03  0.95107137478E+02 0.  0.
         23    2    1    2    0    0 -0.98617422097E+02  0.12881852581E+03 -0.50991212243E+03  0.54263268675E+03  0.90112438645E+02 0.  0.
        -11    1    3    3    0    0  0.80115583873E+02  0.11574342988E+03 -0.43428781943E+03  0.45653144300E+03  0.00000000000E+00 0.  1.
         11    1    3    3    0    0  0.65342906868E+02 -0.13342133063E+01 -0.14703109649E+03  0.16090251377E+03  0.00000000000E+00 0. -1.
        -13    1    4    4    0    0 -0.64076525083E+02  0.13885333056E+02 -0.17829884885E+03  0.18997126899E+03  0.00000000000E+00 0.  1.
         13    1    4    4    0    0 -0.34540897013E+02  0.11493319276E+03 -0.33161327358E+03  0.35266141776E+03  0.00000000000E+00 0. -1.
         21    1    1    2  502  501 -0.46841068645E+02 -0.24322774238E+03 -0.45032149463E+03  0.51394870260E+03  0.00000000000E+00 0. -1.
<scales pt_clust_5="13000.00000" pt_clust_6="13000.00000" pt_clust_7="13000.00000" pt_clust_8="13000.00000" pt_clust_9="206.80275"></scales>
<clustering>
<clus scale="   90.112">  7  8 -1 -1</clus>
<clus scale="   95.107">  5  6 -1 -1</clus>
<clus scale="  185.580">  2  7  1 -1</clus>
<clus scale="  206.803">  1  9  2 -1</clus>
<clus scale="  185.580">  2  5  1 -1</clus>
</clustering>
</event>
<event>
 9    1  0.1713970E-005  0.9611060E+02  0.7546771E-02  0.1290185E+00
          2   -1    0    0  502    0  0.00000000000E+00  0.00000000000E+00  0.30328206440E+03  0.30328206440E+03  0.00000000000E+00 0. -1.
         -2   -1    0    0    0  501 -0.00000000000E+00 -0.00000000000E+00 -0.40515887154E+02  0.40515887154E+02  0.00000000000E+00 0.  1.
         23    2    1    2    0    0 -0.14204161112E+02 -0.26494745542E+02  0.73733026812E+02  0.12287453677E+03  0.93583453719E+02 0.  0.
         23    2    1    2    0    0  0.50574163621E+01  0.58836219323E+01  0.15999631950E+03  0.18415904471E+03  0.90859985845E+02 0.  0.
        -11    1    4    4    0    0 -0.33477305495E+02 -0.16405823477E+02  0.33730533951E+02  0.50275540253E+02  0.00000000000E+00 0. -1.
         11    1    4    4    0    0  0.38534721857E+02  0.22289445409E+02  0.12626578555E+03  0.13388350446E+03  0.00000000000E+00 0.  1.
        -13    1    3    3    0    0 -0.27370979515E+02  0.29571083773E+02  0.35911110427E+02  0.53974321369E+02  0.00000000000E+00 0.  1.
         13    1    3    3    0    0  0.13166818403E+02 -0.56065829315E+02  0.37821916384E+02  0.68900215403E+02  0.00000000000E+00 0. -1.
         21    1    1    2  502  501  0.91467447502E+01  0.20611123610E+02  0.29036830930E+02  0.36764370068E+02  0.00000000000E+00 0. -1.
<scales pt_clust_5="13000.00000" pt_clust_6="13000.00000" pt_clust_7="13000.00000" pt_clust_8="13000.00000" pt_clust_9="22.54953"></scales>
<clustering>
<clus scale="   22.550">  1  9  2 -1</clus>
<clus scale="   90.860">  5  6 -1 -1</clus>
<clus scale="   93.461">  1  5  2 -1</clus>
<clus scale="   93.583">  7  8 -1 -1</clus>
<clus scale="   22.550">  1  5  2 -1</clus>
</clustering>
</event>
<event>
 9    1  0.1713970E-005  0.1015198E+03  0.7546771E-02  0.1279445E+00
         -1   -1    0    0    0  501 -0.00000000000E+00  0.00000000000E+00  0.74028508891E+02  0.74028508891E+02  0.00000000000E+00 0.  1.
          1   -1    0    0  502    0  0.00000000000E+00 -0.00000000000E+00 -0.25706067755E+03  0.25706067755E+03  0.00000000000E+00 0. -1.
         23    2    1    2    0    0  0.11448838966E+01 -0.24025622717E+02 -0.64029977504E+01  0.10272198951E+03  0.99660761805E+02 0.  0.
         23    2    1    2    0    0 -0.14551866470E+02  0.86192549147E+01 -0.68905051836E+02  0.11872418903E+03  0.95191798592E+02 0.  0.
        -11    1    3    3    0    0 -0.20361659327E+02 -0.56805067129E+02  0.81731803733E+01  0.60895104069E+02  0.00000000000E+00 0.  1.
         11    1    3    3    0    0  0.21506543224E+02  0.32779444412E+02 -0.14576178124E+02  0.41826885446E+02  0.00000000000E+00 0. -1.
        -11    1    4    4    0    0  0.38501228902E+02  0.18350891723E+02 -0.33025642990E+02  0.53942496688E+02  0.00000000000E+00 0. -1.
         11    1    4    4    0    0 -0.53053095372E+02 -0.97316368088E+01 -0.35879408847E+02  0.64781692342E+02  0.00000000000E+00 0.  1.
         21    1    1    2  502  501  0.13406982574E+02  0.15406367802E+02 -0.10772411907E+03  0.10964300790E+03  0.00000000000E+00 0. -1.
<scales pt_clust_5="13000.00000" pt_clust_6="13000.00000" pt_clust_7="13000.00000" pt_clust_8="13000.00000" pt_clust_9="20.42311"></scales>
<clustering>
<clus scale="   20.423">  2  9  1 -1</clus>
<clus scale="   95.192">  7  8 -1 -1</clus>
<clus scale="   97.136">  2  7  1 -1</clus>
<clus scale="   99.661">  5  6 -1 -1</clus>
<clus scale="   20.423">  2  5  1 -1</clus>
</clustering>
</event>
<event>
 9    1  0.1713970E-005  0.9629058E+02  0.7546771E-02  0.1288594E+00
          2   -1    0    0  502    0  0.00000000000E+00  0.00000000000E+00  0.60102172267E+03  0.60102172267E+03  0.00000000000E+00 0. -1.
         -2   -1    0    0    0  501 -0.00000000000E+00 -0.00000000000E+00 -0.21449213560E+02  0.21449213560E+02  0.00000000000E+00 0.  1.
         23    2    1    2    0    0 -0.48825691509E+01 -0.42826164114E+02  0.29173555857E+03  0.30840951897E+03  0.90271121848E+02 0.  0.
         23    2    1    2    0    0  0.25658814239E+01  0.21309533951E+02  0.27105131612E+03  0.28667364740E+03  0.90842083618E+02 0.  0.
        -11    1    3    3    0    0 -0.33276261436E+02 -0.56266764123E+02  0.23044374039E+03  0.23953616805E+03  0.00000000000E+00 0. -1.
         11    1    3    3    0    0  0.28393692285E+02  0.13440600008E+02  0.61291818180E+02  0.68873350913E+02  0.00000000000E+00 0.  1.
        -13    1    4    4    0    0 -0.16693327494E+02  0.51807205479E+02  0.19579368498E+03  0.20321865269E+03  0.00000000000E+00 0.  1.
         13    1    4    4    0    0  0.19259208918E+02 -0.30497671528E+02  0.75257631139E+02  0.83454994707E+02  0.00000000000E+00 0. -1.
         21    1    1    2  502  501  0.23166877270E+01  0.21516630164E+02  0.16785634421E+02  0.27387769871E+02  0.00000000000E+00 0.  1.
<scales pt_clust_5="13000.00000" pt_clust_6="13000.00000" pt_clust_7="13000.00000" pt_clust_8="13000.00000" pt_clust_9="21.64099"></scales>
<clustering>
<clus scale="   21.641">  2  9  1 -1</clus>
<clus scale="   90.271">  5  6 -1 -1</clus>
<clus scale="   90.842">  7  8 -1 -1</clus>
<clus scale="   95.752">  2  5  1 -1</clus>
<clus scale="   96.291">  1  5  2 -1</clus>
</clustering>
</event>
<event>
 9    1  0.1713970E-005  0.1553329E+03  0.7546771E-02  0.1197369E+00
         -1   -1    0    0    0  501 -0.00000000000E+00  0.00000000000E+00  0.63453312887E+02  0.63453312887E+02  0.00000000000E+00 0.  1.
          1   -1    0    0  502    0  0.00000000000E+00 -0.00000000000E+00 -0.77207322539E+03  0.77207322539E+03  0.00000000000E+00 0. -1.
         23    2    1    2    0    0 -0.15251929795E+02 -0.11089625214E+03 -0.25684074276E+03  0.29601169662E+03  0.95525689160E+02 0.  0.
         23    2    1    2    0    0  0.35197740221E+02  0.12419792754E+03 -0.47973732725E+03  0.50268511870E+03  0.76683891922E+02 0.  0.
        -11    1    4    4    0    0 -0.16051625118E+00  0.90539503239E+02 -0.39161215841E+03  0.40194217249E+03  0.00000000000E+00 0. -1.
         11    1    4    4    0    0  0.35358256472E+02  0.33658424305E+02 -0.88125168844E+02  0.10074294621E+03  0.00000000000E+00 0.  1.
        -11    1    3    3    0    0  0.31437920222E+02 -0.85815989873E+02 -0.13372304523E+03  0.16197092261E+03  0.00000000000E+00 0.  1.
         11    1    3    3    0    0 -0.46689850018E+02 -0.25080262263E+02 -0.12311769753E+03  0.13404077400E+03  0.00000000000E+00 0. -1.
         21    1    1    2  502  501 -0.19945810425E+02 -0.13301675408E+02  0.27958157511E+02  0.36829722964E+02  0.00000000000E+00 0.  1.
<scales pt_clust_5="13000.00000" pt_clust_6="13000.00000" pt_clust_7="13000.00000" pt_clust_8="13000.00000" pt_clust_9="23.97436"></scales>
<clustering>
<clus scale="   23.974">  1  9  2 -1</clus>
<clus scale="   76.684">  5  6 -1 -1</clus>
<clus scale="   95.526">  7  8 -1 -1</clus>
<clus scale="  144.512">  2  5  1 -1</clus>
<clus scale="  144.512">  2  5  1 -1</clus>
</clustering>
</event>
<event>
 9    1  0.1713970E-005  0.1197395E+03  0.7546771E-02  0.1245507E+00
         -3   -1    0    0    0  501 -0.00000000000E+00  0.00000000000E+00  0.39171084440E+03  0.39171084440E+03  0.00000000000E+00 0.  1.
          3   -1    0    0  502    0  0.00000000000E+00 -0.00000000000E+00 -0.54293666413E+02  0.54293666413E+02  0.00000000000E+00 0. -1.
         23    2    1    2    0    0 -0.93172115153E+02 -0.15752178400E+02  0.20120084219E+03  0.23920395922E+03  0.88360517460E+02 0.  0.
         23    2    1    2    0    0  0.44711789037E+02  0.21304102986E+02  0.98690890852E+02  0.14525880891E+03  0.94378073432E+02 0.  0.
        -11    1    4    4    0    0 -0.92416834535E+00  0.33877948647E+02  0.91251006266E+02  0.97341232970E+02  0.00000000000E+00 0.  1.
         11    1    4    4    0    0  0.45635957382E+02 -0.12573845661E+02  0.74398845861E+01  0.47917575935E+02  0.00000000000E+00 0. -1.
        -13    1    3    3    0    0 -0.54151970126E+02 -0.49876601404E+02  0.14580255253E+03  0.16333553061E+03  0.00000000000E+00 0.  1.
         13    1    3    3    0    0 -0.39020145027E+02  0.34124423004E+02  0.55398289656E+02  0.75868428612E+02  0.00000000000E+00 0. -1.
         21    1    1    2  502  501  0.48460326116E+02 -0.55519245862E+01  0.37525444948E+02  0.61541742683E+02  0.00000000000E+00 0. -1.
<scales pt_clust_5="13000.00000" pt_clust_6="13000.00000" pt_clust_7="13000.00000" pt_clust_8="13000.00000" pt_clust_9="48.77732"></scales>
<clustering>
<clus scale="   48.777">  2  9  1 -1</clus>
<clus scale="   88.361">  7  8 -1 -1</clus>
<clus scale="   94.378">  5  6 -1 -1</clus>
<clus scale="  115.056">  1  7  2 -1</clus>
<clus scale="   48.777">  2  5  1 -1</clus>
</clustering>
</event>
<event>
 9    1  0.1713970E-005  0.2236193E+03  0.7546771E-02  0.1131374E+00
         -1   -1    0    0    0  501 -0.00000000000E+00  0.00000000000E+00  0.84562429472E+03  0.84562429472E+03  0.00000000000E+00 0.  1.
          1   -1    0    0  502    0  0.00000000000E+00 -0.00000000000E+00 -0.16035266321E+03  0.16035266321E+03  0.00000000000E+00 0. -1.
         23    2    1    2    0    0  0.76873172752E+02  0.13109999753E+03  0.43708451734E+03  0.47206275340E+03  0.93293482125E+02 0.  0.
         23    2    1    2    0    0 -0.96289753511E+02 -0.19012649145E+03 -0.41928305460E+02  0.23721892769E+03  0.95367905893E+02 0.  0.
        -11    1    3    3    0    0  0.10345760443E+02  0.31259674827E+02  0.21064460626E+02  0.39088534519E+02  0.00000000000E+00 0. -1.
         11    1    3    3    0    0  0.66527412309E+02  0.99840322700E+02  0.41602005671E+03  0.43297421888E+03  0.00000000000E+00 0.  1.
        -11    1    4    4    0    0 -0.10555454061E+03 -0.13522404052E+03 -0.54776422678E+02  0.18007709088E+03  0.00000000000E+00 0. -1.
         11    1    4    4    0    0  0.92647871007E+01 -0.54902450932E+02  0.12848117218E+02  0.57141836814E+02  0.00000000000E+00 0.  1.
         21    1    1    2  502  501  0.19416580760E+02  0.59026493922E+02  0.29011541963E+03  0.29669527684E+03  0.00000000000E+00 0.  1.
<scales pt_clust_5="13000.00000" pt_clust_6="13000.00000" pt_clust_7="13000.00000" pt_clust_8="13000.00000" pt_clust_9="62.13800"></scales>
<clustering>
<clus scale="   62.138">  1  9  2 -1</clus>
<clus scale="   93.293">  5  6 -1 -1</clus>
<clus scale="   95.368">  7  8 -1 -1</clus>
<clus scale="  222.742">  1  5  2 -1</clus>
<clus scale="  223.619">  2  5  1 -1</clus>
</clustering>
</event>
<event>
 9    1  0.1713970E-005  0.9358872E+02  0.7546771E-02  0.1294925E+00
         -3   -1    0    0    0  501 -0.00000000000E+00  0.00000000000E+00  0.43182321453E+03  0.43182321453E+03  0.00000000000E+00 0.  1.
          3   -1    0    0  502    0  0.00000000000E+00 -0.00000000000E+00 -0.33704947473E+02  0.33704947473E+02  0.00000000000E+00 0. -1.
         23    2    1    2    0    0 -0.38946358926E+02 -0.19479427522E+02  0.22394795608E+03  0.24534788921E+03  0.90258698947E+02 0.  0.
         23    2    1    2    0    0  0.16402671468E+02  0.47396910835E+01  0.76345125188E+02  0.11871478778E+03  0.89292275116E+02 0.  0.
        -11    1    4    4    0    0  0.53089928667E+02  0.23929157983E+01  0.53627997270E+02  0.75499858696E+02  0.00000000000E+00 0.  1.
         11    1    4    4    0    0 -0.36687257200E+02  0.23467752852E+01  0.22717127918E+02  0.43214929086E+02  0.00000000000E+00 0. -1.
        -11    1    3    3    0    0 -0.16250105393E+02  0.36093243479E+02  0.10241981379E+03  0.10980257924E+03  0.00000000000E+00 0.  1.
         11    1    3    3    0    0 -0.22696253533E+02 -0.55572671001E+02  0.12152814228E+03  0.13554530997E+03  0.00000000000E+00 0. -1.
         21    1    1    2  502  501  0.22543687458E+02  0.14739736439E+02  0.97825185788E+02  0.10146548501E+03  0.00000000000E+00 0.  1.
<scales pt_clust_5="13000.00000" pt_clust_6="13000.00000" pt_clust_7="13000.00000" pt_clust_8="13000.00000" pt_clust_9="26.93469"></scales>
<clustering>
<clus scale="   26.935">  1  9  2 -1</clus>
<clus scale="   89.292">  5  6 -1 -1</clus>
<clus scale="   90.259">  7  8 -1 -1</clus>
<clus scale="   92.657">  2  5  1 -1</clus>
<clus scale="   92.657">  2  5  1 -1</clus>
</clustering>
</event>
<event>
 9    1  0.1713970E-005  0.2058628E+03  0.7546771E-02  0.1145157E+00
         -1   -1    0    0    0  501 -0.00000000000E+00  0.00000000000E+00  0.14286963971E+03  0.14286963971E+03  0.00000000000E+00 0.  1.
          1   -1    0    0  502    0  0.00000000000E+00 -0.00000000000E+00 -0.10153456647E+04  0.10153456647E+04  0.00000000000E+00 0. -1.
         23    2    1    2    0    0 -0.97161086314E+02  0.11761335541E+03 -0.11555209045E+03  0.21255873641E+03  0.92497312132E+02 0.  0.
         23    2    1    2    0    0  0.14500762786E+03 -0.12469677714E+03 -0.83052513008E+03  0.85758499264E+03  0.95412418173E+02 0.  0.
        -11    1    3    3    0    0 -0.37225009852E+02  0.10663605588E+03 -0.51436795058E+02  0.12410758904E+03  0.00000000000E+00 0.  1.
         11    1    3    3    0    0 -0.59936076462E+02  0.10977299526E+02 -0.64115295393E+02  0.88451147363E+02  0.00000000000E+00 0. -1.
        -11    1    4    4    0    0  0.87376165012E+02 -0.59409988479E+02 -0.63239485493E+03  0.64116097314E+03  0.00000000000E+00 0. -1.
         11    1    4    4    0    0  0.57631462849E+02 -0.65286788656E+02 -0.19813027515E+03  0.21642401949E+03  0.00000000000E+00 0.  1.
         21    1    1    2  502  501 -0.47846541546E+02  0.70834217273E+01  0.73601195544E+02  0.88071575362E+02  0.00000000000E+00 0. -1.
<scales pt_clust_5="13000.00000" pt_clust_6="13000.00000" pt_clust_7="13000.00000" pt_clust_8="13000.00000" pt_clust_9="48.36803"></scales>
<clustering>
<clus scale="   48.368">  1  9  2 -1</clus>
<clus scale="   92.497">  5  6 -1 -1</clus>
<clus scale="   95.412">  7  8 -1 -1</clus>
<clus scale="  204.528">  1  5  2 -1</clus>
<clus scale="  205.863">  2  5  1 -1</clus>
</clustering>
</event>
<event>
 9    1  0.1713970E-005  0.1017508E+03  0.7546771E-02  0.1277048E+00
         -2   -1    0    0    0  501 -0.00000000000E+00  0.00000000000E+00  0.14225526365E+02  0.14225526365E+02  0.00000000000E+00 0.  1.
          2   -1    0    0  502    0  0.00000000000E+00 -0.00000000000E+00 -0.90772400464E+03  0.90772400464E+03  0.00000000000E+00 0. -1.
         23    2    1    2    0    0  0.92564391859E+01 -0.25950857052E+02 -0.31676657534E+03  0.33193886234E+03  0.95305909747E+02 0.  0.
         23    2    1    2    0    0  0.29106284230E+01  0.42307457140E+02 -0.50014176942E+03  0.51075396893E+03  0.94495685466E+02 0.  0.
        -13    1    3    3    0    0 -0.47516370511E+01 -0.58112273635E+02 -0.24775306203E+03  0.25452150036E+03  0.00000000000E+00 0.  1.
         13    1    3    3    0    0  0.14008076237E+02  0.32161416583E+02 -0.69013513306E+02  0.77417361976E+02  0.00000000000E+00 0. -1.
        -13    1    4    4    0    0 -0.38835074465E+02  0.47124612489E+02 -0.32016419887E+03  0.32593558619E+03  0.00000000000E+00 0. -1.
         13    1    4    4    0    0  0.41745702888E+02 -0.48171553491E+01 -0.17997757056E+03  0.18481838274E+03  0.00000000000E+00 0.  1.
         21    1    1    2  502  501 -0.12167067609E+02 -0.16356600088E+02 -0.76590133516E+02  0.79256699733E+02  0.00000000000E+00 0.  1.
<scales pt_clust_5="13000.00000" pt_clust_6="13000.00000" pt_clust_7="13000.00000" pt_clust_8="13000.00000" pt_clust_9="20.38568"></scales>
<clustering>
<clus scale="   20.386">  1  9  2 -1</clus>
<clus scale="   94.496">  7  8 -1 -1</clus>
<clus scale="   95.306">  5  6 -1 -1</clus>
<clus scale="  100.992">  2  7  1 -1</clus>
<clus scale="  100.992">  2  5  1 -1</clus>
</clustering>
</event>
<event>
 9    1  0.1713970E-005  0.1661829E+03  0.7546771E-02  0.1205894E+00
          2   -1    0    0  502    0  0.00000000000E+00  0.00000000000E+00  0.58300882616E+03  0.58300882616E+03  0.00000000000E+00 0. -1.
         -2   -1    0    0    0  501 -0.00000000000E+00 -0.00000000000E+00 -0.89967981061E+02  0.89967981061E+02  0.00000000000E+00 0.  1.
         23    2    1    2    0    0 -0.11110469125E+02  0.33124311936E+02  0.84116955287E+02  0.12923953227E+03  0.91687141791E+02 0.  0.
         23    2    1    2    0    0 -0.86332818252E+02  0.73407871549E+02  0.46620303106E+02  0.15372677597E+03  0.92824554275E+02 0.  0.
        -11    1    3    3    0    0 -0.30450787346E+02  0.52848184783E+02  0.81064234394E+02  0.10144747992E+03  0.00000000000E+00 0.  1.
         11    1    3    3    0    0  0.19340318221E+02 -0.19723872846E+02  0.30527208928E+01  0.27792052349E+02  0.00000000000E+00 0. -1.
        -13    1    4    4    0    0  0.13718201591E+02  0.36319692371E+02  0.47980218426E+01  0.39119434076E+02  0.00000000000E+00 0.  1.
         13    1    4    4    0    0 -0.10005101984E+03  0.37088179177E+02  0.41822281264E+02  0.11460734190E+03  0.00000000000E+00 0. -1.
         21    1    1    2  502  501  0.97443287377E+02 -0.10653218348E+03  0.36230358671E+03  0.39001049898E+03  0.00000000000E+00 0. -1.
<scales pt_clust_5="13000.00000" pt_clust_6="13000.00000" pt_clust_7="13000.00000" pt_clust_8="13000.00000" pt_clust_9="137.84182"></scales>
<clustering>
<clus scale="   91.687">  5  6 -1 -1</clus>
<clus scale="   92.825">  7  8 -1 -1</clus>
<clus scale="   98.118">  2  5  1 -1</clus>
<clus scale="  137.842">  1  9  2 -1</clus>
<clus scale="  137.842">  1  5  2 -1</clus>
</clustering>
</event>
<event>
 9    1  0.1713970E-005  0.1044722E+03  0.7546771E-02  0.1272629E+00
          1   -1    0    0  502    0  0.00000000000E+00  0.00000000000E+00  0.38045748427E+02  0.38045748427E+02  0.00000000000E+00 0. -1.
         -1   -1    0    0    0  501 -0.00000000000E+00 -0.00000000000E+00 -0.55353225049E+03  0.55353225049E+03  0.00000000000E+00 0.  1.
         23    2    1    2    0    0 -0.65019049310E+02  0.26919309780E+02 -0.33445465661E+03  0.35323121132E+03  0.89220206876E+02 0.  0.
         23    2    1    2    0    0  0.43379746882E+02  0.81521504063E+01 -0.82638160985E+02  0.13167165519E+03  0.92520803791E+02 0.  0.
        -11    1    3    3    0    0 -0.13180896072E+02  0.52765340430E+02 -0.18892805455E+03  0.19660042463E+03  0.00000000000E+00 0. -1.
         11    1    3    3    0    0 -0.51838153238E+02 -0.25846030650E+02 -0.14552660206E+03  0.15663078669E+03  0.00000000000E+00 0.  1.
        -13    1    4    4    0    0  0.40606085124E+02  0.35546643218E+02 -0.11208155705E+02  0.55118424755E+02  0.00000000000E+00 0. -1.
         13    1    4    4    0    0  0.27736617577E+01 -0.27394492812E+02 -0.71430005280E+02  0.76553230437E+02  0.00000000000E+00 0.  1.
         21    1    1    2  502  501  0.21639302428E+02 -0.35071460186E+02 -0.98393684471E+02  0.10667513240E+03  0.00000000000E+00 0.  1.
<scales pt_clust_5="13000.00000" pt_clust_6="13000.00000" pt_clust_7="13000.00000" pt_clust_8="13000.00000" pt_clust_9="41.21003"></scales>
<clustering>
<clus scale="   41.210">  2  9  1 -1</clus>
<clus scale="   89.220">  5  6 -1 -1</clus>
<clus scale="   92.521">  7  8 -1 -1</clus>
<clus scale="  101.561">  2  5  1 -1</clus>
<clus scale="  104.472">  1  5  2 -1</clus>
</clustering>
</event>
<event>
 9    1  0.1997861E-005  0.1247102E+03  0.7546771E-02  0.1235612E+00
          3   -1    0    0  502    0  0.00000000000E+00  0.00000000000E+00  0.87445144338E+02  0.87445144338E+02  0.00000000000E+00 0. -1.
         -3   -1    0    0    0  501 -0.00000000000E+00 -0.00000000000E+00 -0.62052235836E+03  0.62052235836E+03  0.00000000000E+00 0.  1.
         23    2    1    2    0    0 -0.16982964576E+01  0.50485489627E+02 -0.49272289566E+03  0.50323920037E+03  0.89006584067E+02 0.  0.
         23    2    1    2    0    0  0.45818171827E-01 -0.90934363566E+02  0.23017897569E+02  0.12952936723E+03  0.89325096087E+02 0.  0.
        -11    1    4    4    0    0  0.35500560805E+02 -0.84188747010E+02  0.17209846951E+02  0.92974264034E+02  0.00000000000E+00 0. -1.
         11    1    4    4    0    0 -0.35454742633E+02 -0.67456165554E+01  0.58080506178E+01  0.36555103199E+02  0.00000000000E+00 0.  1.
        -13    1    3    3    0    0 -0.94801734617E+01  0.75220094527E+02 -0.38943870768E+03  0.39674984985E+03  0.00000000000E+00 0.  1.
         13    1    3    3    0    0  0.77818770041E+01 -0.24734604900E+02 -0.10328418797E+03  0.10648935052E+03  0.00000000000E+00 0. -1.
         21    1    1    2  502  501  0.16524782858E+01  0.40448873938E+02 -0.63372215931E+02  0.75198935095E+02  0.00000000000E+00 0. -1.
<scales pt_clust_5="13000.00000" pt_clust_6="13000.00000" pt_clust_7="13000.00000" pt_clust_8="13000.00000" pt_clust_9="40.48261"></scales>
<clustering>
<clus scale="   40.483">  2  9  1 -1</clus>
<clus scale="   89.007">  7  8 -1 -1</clus>
<clus scale="   89.325">  5  6 -1 -1</clus>
<clus scale="  124.482">  2  7  1 -1</clus>
<clus scale="  124.710">  1  5  2 -1</clus>
</clustering>
</event>
<event>
 9    1  0.1713970E-005  0.1332112E+03  0.7546771E-02  0.1242354E+00
          1   -1    0    0  502    0  0.00000000000E+00  0.00000000000E+00  0.11284991874E+03  0.11284991874E+03  0.00000000000E+00 0. -1.
         -1   -1    0    0    0  501 -0.00000000000E+00 -0.00000000000E+00 -0.28991060698E+03  0.28991060698E+03  0.00000000000E+00 0.  1.
         23    2    1    2    0    0  0.76199539965E+02  0.58663857975E+02 -0.16831729872E+03  0.21442260958E+03  0.91643463083E+02 0.  0.
         23    2    1    2    0    0 -0.11413240017E+02  0.16240741057E+02 -0.19611988682E+01  0.89070793044E+02  0.86808617975E+02 0.  0.
        -11    1    3    3    0    0  0.19666791017E+02 -0.25034680312E+02 -0.40813192209E+02  0.51761322873E+02  0.00000000000E+00 0. -1.
         11    1    3    3    0    0  0.56532748949E+02  0.83698538287E+02 -0.12750410651E+03  0.16266128670E+03  0.00000000000E+00 0.  1.
        -13    1    4    4    0    0 -0.38456045135E+02  0.21192208510E+02  0.25031353819E+02  0.50542514609E+02  0.00000000000E+00 0.  1.
         13    1    4    4    0    0  0.27042805118E+02 -0.49514674530E+01 -0.26992552687E+02  0.38528278435E+02  0.00000000000E+00 0. -1.
         21    1    1    2  502  501 -0.64786299948E+02 -0.74904599032E+02 -0.67821906528E+01  0.99267123093E+02  0.00000000000E+00 0. -1.
<scales pt_clust_5="13000.00000" pt_clust_6="13000.00000" pt_clust_7="13000.00000" pt_clust_8="13000.00000" pt_clust_9="96.67828"></scales>
<clustering>
<clus scale="   86.809">  7  8 -1 -1</clus>
<clus scale="   89.049">  1  7  2 -1</clus>
<clus scale="   91.643">  5  6 -1 -1</clus>
<clus scale="   96.678">  1  9  2 -1</clus>
<clus scale="   89.049">  1  5  2 -1</clus>
</clustering>
</event>
<event>
 9    1  0.1713970E-005  0.1319166E+03  0.7546771E-02  0.1235355E+00
         -2   -1    0    0    0  501 -0.00000000000E+00  0.00000000000E+00  0.10734912550E+03  0.10734912550E+03  0.00000000000E+00 0.  1.
          2   -1    0    0  502    0  0.00000000000E+00 -0.00000000000E+00 -0.28054876572E+03  0.28054876572E+03  0.00000000000E+00 0. -1.
         23    2    1    2    0    0 -0.27094828730E+02 -0.21387209452E+02 -0.75558756153E+02  0.12535380373E+03  0.93877089892E+02 0.  0.
         23    2    1    2    0    0  0.49333712719E+02  0.40866843444E+02 -0.14897476237E+03  0.20330566108E+03  0.12262054437E+03 0.  0.
        -11    1    4    4    0    0  0.15509073649E+02 -0.29686107263E+02 -0.11174713117E+03  0.11665855157E+03  0.00000000000E+00 0.  1.
         11    1    4    4    0    0  0.33824639070E+02  0.70552950707E+02 -0.37227631203E+02  0.86647109512E+02  0.00000000000E+00 0. -1.
        -13    1    3    3    0    0 -0.37430246595E+02  0.16263193034E+02 -0.76049122927E+02  0.86307496232E+02  0.00000000000E+00 0. -1.
         13    1    3    3    0    0  0.10335417866E+02 -0.37650402486E+02  0.49036677357E+00  0.39046307500E+02  0.00000000000E+00 0.  1.
         21    1    1    2  502  501 -0.22238883989E+02 -0.19479633992E+02  0.51333878299E+02  0.59238426404E+02  0.00000000000E+00 0.  1.
<scales pt_clust_5="13000.00000" pt_clust_6="13000.00000" pt_clust_7="13000.00000" pt_clust_8="13000.00000" pt_clust_9="29.56390"></scales>
<clustering>
<clus scale="   29.564">  1  9  2 -1</clus>
<clus scale="   93.877">  7  8 -1 -1</clus>
<clus scale="  105.731">  1  7  2 -1</clus>
<clus scale="  122.621">  5  6 -1 -1</clus>
<clus scale="  131.917">  2  5  1 -1</clus>
</clustering>
</event>
<event>
 9    1  0.1713970E-005  0.1207301E+03  0.7546771E-02  0.1242134E+00
          1   -1    0    0  502    0  0.00000000000E+00  0.00000000000E+00  0.74810100663E+03  0.74810100663E+03  0.00000000000E+00 0. -1.
         -1   -1    0    0    0  501 -0.00000000000E+00 -0.00000000000E+00 -0.46335906919E+02  0.46335906919E+02  0.00000000000E+00 0.  1.
         23    2    1    2    0    0  0.76924990178E+02 -0.99945348577E+01  0.18364372118E+03  0.21948206901E+03  0.91815126464E+02 0.  0.
         23    2    1    2    0    0 -0.71576485268E+02  0.31937649136E+02  0.53383467238E+03  0.54744095037E+03  0.92568515312E+02 0.  0.
        -11    1    3    3    0    0  0.73891618633E+02 -0.30503403943E+02  0.18188324751E+03  0.19867547579E+03  0.00000000000E+00 0.  1.
         11    1    3    3    0    0  0.30333715455E+01  0.20508869085E+02  0.17604736769E+01  0.20806593226E+02  0.00000000000E+00 0. -1.
        -11    1    4    4    0    0  0.15790854945E+02 -0.14279759870E+02  0.68804331074E+02  0.72022903416E+02  0.00000000000E+00 0.  1.
         11    1    4    4    0    0 -0.87367340214E+02  0.46217409006E+02  0.46503034131E+03  0.47541804695E+03  0.00000000000E+00 0. -1.
         21    1    1    2  502  501 -0.53485049101E+01 -0.21943114278E+02 -0.15713293848E+02  0.27513894173E+02  0.00000000000E+00 0.  1.
<scales pt_clust_5="13000.00000" pt_clust_6="13000.00000" pt_clust_7="13000.00000" pt_clust_8="13000.00000" pt_clust_9="22.58554"></scales>
<clustering>
<clus scale="   22.586">  2  9  1 -1</clus>
<clus scale="   91.815">  5  6 -1 -1</clus>
<clus scale="   92.569">  7  8 -1 -1</clus>
<clus scale="  120.153">  2  5  1 -1</clus>
<clus scale="  120.730">  1  5  2 -1</clus>
</clustering>
</event>
<event>
 9    1  0.1713970E-005  0.1383874E+03  0.7546771E-02  0.1215564E+00
         -2   -1    0    0    0  501 -0.00000000000E+00  0.00000000000E+00  0.81144695311E+02  0.81144695311E+02  0.00000000000E+00 0.  1.
          2   -1    0    0  502    0  0.00000000000E+00 -0.00000000000E+00 -0.54167932659E+03  0.54167932659E+03  0.00000000000E+00 0. -1.
         23    2    1    2    0    0 -0.53133455820E+02 -0.11060223140E+03 -0.31158288659E+02  0.15609003876E+03  0.91308507436E+02 0.  0.
         23    2    1    2    0    0  0.25014533684E+02  0.97629058420E+02 -0.40516665191E+03  0.42742639960E+03  0.91521316147E+02 0.  0.
        -11    1    4    4    0    0  0.34182799423E+00  0.30865845346E+02 -0.22502885501E+02  0.38199438624E+02  0.00000000000E+00 0.  1.
         11    1    4    4    0    0  0.24672705690E+02  0.66763213073E+02 -0.38266376641E+03  0.38922696097E+03  0.00000000000E+00 0. -1.
        -13    1    3    3    0    0 -0.24640173443E+02 -0.11869704951E+03 -0.14460587645E+02  0.12208700302E+03  0.00000000000E+00 0.  1.
         13    1    3    3    0    0 -0.28493282377E+02  0.80948181099E+01 -0.16697701014E+02  0.34003035747E+02  0.00000000000E+00 0. -1.
         21    1    1    2  502  501  0.28118922136E+02  0.12973172985E+02 -0.24209690707E+02  0.39307583537E+02  0.00000000000E+00 0. -1.
<scales pt_clust_5="13000.00000" pt_clust_6="13000.00000" pt_clust_7="13000.00000" pt_clust_8="13000.00000" pt_clust_9="30.96735"></scales>
<clustering>
<clus scale="   30.967">  1  9  2 -1</clus>
<clus scale="   91.309">  7  8 -1 -1</clus>
<clus scale="   91.521">  5  6 -1 -1</clus>
<clus scale="  138.247">  1  7  2 -1</clus>
<clus scale="  138.387">  2  5  1 -1</clus>
</clustering>
</event>
<event>
 9    1  0.1713970E-005  0.9772471E+02  0.7546771E-02  0.1286692E+00
         -2   -1    0    0    0  501 -0.00000000000E+00  0.00000000000E+00  0.17856386353E+03  0.17856386353E+03  0.00000000000E+00 0.  1.
          2   -1    0    0  502    0  0.00000000000E+00 -0.00000000000E+00 -0.98330419192E+02  0.98330419192E+02  0.00000000000E+00 0. -1.
         23    2    1    2    0    0  0.13969842535E+02 -0.17712493827E+02  0.34087592014E+02  0.10011733680E+03  0.91392714486E+02 0.  0.
         23    2    1    2    0    0  0.13248552389E+02  0.30151496268E+02 -0.22070163577E+02  0.10228537170E+03  0.94289810033E+02 0.  0.
        -13    1    3    3    0    0  0.24997880056E+02  0.28561538416E+02 -0.53427584222E+01  0.38330151990E+02  0.00000000000E+00 0. -1.
         13    1    3    3    0    0 -0.11028037521E+02 -0.46274032243E+02  0.39430350436E+02  0.61787184813E+02  0.00000000000E+00 0.  1.
        -13    1    4    4    0    0 -0.37721671754E+02  0.13078743553E+02 -0.27166551103E+02  0.48290781229E+02  0.00000000000E+00 0.  1.
         13    1    4    4    0    0  0.50970224143E+02  0.17072752715E+02  0.50963875269E+01  0.53994590472E+02  0.00000000000E+00 0. -1.
         21    1    1    2  502  501 -0.27218394924E+02 -0.12439002441E+02  0.68216015900E+02  0.74491574216E+02  0.00000000000E+00 0.  1.
<scales pt_clust_5="13000.00000" pt_clust_6="13000.00000" pt_clust_7="13000.00000" pt_clust_8="13000.00000" pt_clust_9="29.92607"></scales>
<clustering>
<clus scale="   29.926">  1  9  2 -1</clus>
<clus scale="   91.393">  5  6 -1 -1</clus>
<clus scale="   94.290">  7  8 -1 -1</clus>
<clus scale="   94.932">  1  5  2 -1</clus>
<clus scale="   97.725">  2  5  1 -1</clus>
</clustering>
</event>
<event>
 9    1  0.1713970E-005  0.9335855E+02  0.7546771E-02  0.1307912E+00
          1   -1    0    0  502    0  0.00000000000E+00  0.00000000000E+00  0.15311531572E+03  0.15311531572E+03  0.00000000000E+00 0. -1.
         -1   -1    0    0    0  501 -0.00000000000E+00 -0.00000000000E+00 -0.11581270110E+03  0.11581270110E+03  0.00000000000E+00 0.  1.
         23    2    1    2    0    0 -0.69499395945E+00 -0.26548058064E+00 -0.66046267489E+02  0.11205208412E+03  0.90515228610E+02 0.  0.
         23    2    1    2    0    0  0.25437358676E+02  0.39372827015E+01  0.10825485499E+03  0.13138602660E+03  0.69861383805E+02 0.  0.
        -11    1    3    3    0    0 -0.21096434326E+02  0.15905703848E+02  0.12554869390E+02  0.29251935006E+02  0.00000000000E+00 0. -1.
         11    1    3    3    0    0  0.20401440367E+02 -0.16171184429E+02 -0.78601136880E+02  0.82800149116E+02  0.00000000000E+00 0.  1.
        -13    1    4    4    0    0  0.46875828248E+02 -0.10735349145E+02  0.76484906773E+02  0.90346731868E+02  0.00000000000E+00 0.  1.
         13    1    4    4    0    0 -0.21438469572E+02  0.14672631847E+02  0.31769948213E+02  0.41039294735E+02  0.00000000000E+00 0. -1.
         21    1    1    2  502  501 -0.24742364716E+02 -0.36718021208E+01 -0.49059728732E+01  0.25489906088E+02  0.00000000000E+00 0. -1.
<scales pt_clust_5="13000.00000" pt_clust_6="13000.00000" pt_clust_7="13000.00000" pt_clust_8="13000.00000" pt_clust_9="25.01333"></scales>
<clustering>
<clus scale="   25.013">  2  9  1 -1</clus>
<clus scale="   69.861">  7  8 -1 -1</clus>
<clus scale="   73.508">  1  7  2 -1</clus>
<clus scale="   90.515">  5  6 -1 -1</clus>
<clus scale="   73.508">  1  5  2 -1</clus>
</clustering>
</event>
<event>
 9    1  0.1749250E-005  0.1018917E+03  0.7546771E-02  0.1281225E+00
         -2   -1    0    0    0  501 -0.00000000000E+00  0.00000000000E+00  0.13174976017E+03  0.13174976017E+03  0.00000000000E+00 0.  1.
          2   -1    0    0  502    0  0.00000000000E+00 -0.00000000000E+00 -0.35182338289E+03  0.35182338289E+03  0.00000000000E+00 0. -1.
         23    2    1    2    0    0  0.24928324459E+02  0.35574761291E+02  0.53549512847E+02  0.11470237981E+03  0.91662972928E+02 0.  0.
         23    2    1    2    0    0 -0.12520744508E+02 -0.33381476099E+01 -0.30544560306E+03  0.32190463994E+03  0.10078525942E+03 0.  0.
        -11    1    3    3    0    0  0.49045996984E+02  0.50222473021E+02  0.50169859011E+02  0.86283378293E+02  0.00000000000E+00 0.  1.
         11    1    3    3    0    0 -0.24117672525E+02 -0.14647711730E+02  0.33796538358E+01  0.28419001514E+02  0.00000000000E+00 0. -1.
        -11    1    4    4    0    0 -0.24004539423E+02 -0.47102796903E+02 -0.20555345259E+03  0.21224305233E+03  0.00000000000E+00 0. -1.
         11    1    4    4    0    0  0.11483794915E+02  0.43764649293E+02 -0.99892150471E+02  0.10966158762E+03  0.00000000000E+00 0.  1.
         21    1    1    2  502  501 -0.12407579951E+02 -0.32236613681E+02  0.31822467494E+02  0.46966123315E+02  0.00000000000E+00 0. -1.
<scales pt_clust_5="13000.00000" pt_clust_6="13000.00000" pt_clust_7="13000.00000" pt_clust_8="13000.00000" pt_clust_9="34.54196"></scales>
<clustering>
<clus scale="   34.542">  1  9  2 -1</clus>
<clus scale="   91.663">  5  6 -1 -1</clus>
<clus scale="   92.878">  1  5  2 -1</clus>
<clus scale="  100.785">  7  8 -1 -1</clus>
<clus scale="  101.892">  2  5  1 -1</clus>
</clustering>
</event>
<event>
 9    1  0.1713970E-005  0.9434451E+02  0.7546771E-02  0.1293201E+00
          1   -1    0    0  502    0  0.00000000000E+00  0.00000000000E+00  0.30353536391E+03  0.30353536391E+03  0.00000000000E+00 0. -1.
         -1   -1    0    0    0  501 -0.00000000000E+00 -0.00000000000E+00 -0.39987398528E+02  0.39987398528E+02  0.00000000000E+00 0.  1.
         23    2    1    2    0    0  0.18702418559E+02  0.28091624142E+02  0.86872511771E+02  0.12983661359E+03  0.90397970770E+02 0.  0.
         23    2    1    2    0    0 -0.82448911850E+00 -0.19060162255E+02  0.16727957981E+03  0.19156217748E+03  0.91376367021E+02 0.  0.
        -11    1    4    4    0    0  0.40609362646E+02  0.11096940288E+02  0.74840622582E+02  0.85868394690E+02  0.00000000000E+00 0. -1.
         11    1    4    4    0    0 -0.41433851765E+02 -0.30157102543E+02  0.92438957233E+02  0.10569378279E+03  0.00000000000E+00 0.  1.
        -11    1    3    3    0    0 -0.34376278719E+01  0.22939841180E+02 -0.13556649018E+02  0.26867011954E+02  0.00000000000E+00 0.  1.
         11    1    3    3    0    0  0.22140046431E+02  0.51517829621E+01  0.10042916079E+03  0.10296960163E+03  0.00000000000E+00 0. -1.
         21    1    1    2  502  501 -0.17877929441E+02 -0.90314618875E+01  0.93958737962E+01  0.22123971373E+02  0.00000000000E+00 0.  1.
<scales pt_clust_5="13000.00000" pt_clust_6="13000.00000" pt_clust_7="13000.00000" pt_clust_8="13000.00000" pt_clust_9="20.02967"></scales>
<clustering>
<clus scale="   20.030">  2  9  1 -1</clus>
<clus scale="   90.398">  7  8 -1 -1</clus>
<clus scale="   91.376">  5  6 -1 -1</clus>
<clus scale="   93.397">  2  7  1 -1</clus>
<clus scale="   94.345">  1  5  2 -1</clus>
</clustering>
</event>
<event>
 9    1  0.1713970E-005  0.9613348E+02  0.7546771E-02  0.1288822E+00
          1   -1    0    0  502    0  0.00000000000E+00  0.00000000000E+00  0.28456914723E+03  0.28456914723E+03  0.00000000000E+00 0. -1.
         -1   -1    0    0    0  501 -0.00000000000E+00 -0.00000000000E+00 -0.72313693671E+02  0.72313693671E+02  0.00000000000E+00 0.  1.
         23    2    1    2    0    0  0.43496165554E+01 -0.46100966898E+01  0.35017343318E+02  0.98530074071E+02  0.91879208790E+02 0.  0.
         23    2    1    2    0    0 -0.29889668702E+02 -0.24766131538E+02  0.19240244315E+03  0.21657700782E+03  0.91543140745E+02 0.  0.
        -11    1    4    4    0    0 -0.36145570703E+02  0.79286564303E+01  0.22207218279E+02  0.43156997323E+02  0.00000000000E+00 0.  1.
         11    1    4    4    0    0  0.62559020011E+01 -0.32694787969E+02  0.17019522487E+03  0.17342001049E+03  0.00000000000E+00 0. -1.
        -13    1    3    3    0    0  0.27753428622E+02 -0.38920122744E+02  0.67149111743E+01  0.48271303968E+02  0.00000000000E+00 0. -1.
         13    1    3    3    0    0 -0.23403812067E+02  0.34310026054E+02  0.28302432144E+02  0.50258770104E+02  0.00000000000E+00 0.  1.
         21    1    1    2  502  501  0.25540052147E+02  0.29376228228E+02 -0.15164332909E+02  0.41775759014E+02  0.00000000000E+00 0. -1.
<scales pt_clust_5="13000.00000" pt_clust_6="13000.00000" pt_clust_7="13000.00000" pt_clust_8="13000.00000" pt_clust_9="38.92630"></scales>
<clustering>
<clus scale="   38.926">  2  9  1 -1</clus>
<clus scale="   91.543">  5  6 -1 -1</clus>
<clus scale="   91.879">  7  8 -1 -1</clus>
<clus scale="   95.812">  1  5  2 -1</clus>
<clus scale="   95.812">  1  5  2 -1</clus>
</clustering>
</event>
<event>
 9    1  0.1713970E-005  0.1196040E+03  0.7546771E-02  0.1244326E+00
          2   -1    0    0  502    0  0.00000000000E+00  0.00000000000E+00  0.38479186068E+03  0.38479186068E+03  0.00000000000E+00 0. -1.
         -2   -1    0    0    0  501 -0.00000000000E+00 -0.00000000000E+00 -0.60490571638E+02  0.60490571638E+02  0.00000000000E+00 0.  1.
         23    2    1    2    0    0  0.72322326019E+02  0.32664849036E+01  0.14892722960E+03  0.18918809539E+03  0.91496595324E+02 0.  0.
         23    2    1    2    0    0 -0.72747304442E+02 -0.32342031940E+02  0.18794734033E+03  0.22441381556E+03  0.93269397681E+02 0.  0.
        -11    1    3    3    0    0  0.88727511771E+02 -0.16736023219E+02  0.10801578559E+03  0.14078379081E+03  0.00000000000E+00 0.  1.
         11    1    3    3    0    0 -0.16405185752E+02  0.20002508122E+02  0.40911444011E+02  0.48404304579E+02  0.00000000000E+00 0. -1.
        -11    1    4    4    0    0 -0.21300319197E+02 -0.86293833404E+01 -0.48312848193E+01  0.23484274903E+02  0.00000000000E+00 0.  1.
         11    1    4    4    0    0 -0.51446985245E+02 -0.23712648600E+02  0.19277862515E+03  0.20092954066E+03  0.00000000000E+00 0. -1.
         21    1    1    2  502  501  0.42497842296E+00  0.29075547036E+02 -0.12573280885E+02  0.31680521371E+02  0.00000000000E+00 0.  1.
<scales pt_clust_5="13000.00000" pt_clust_6="13000.00000" pt_clust_7="13000.00000" pt_clust_8="13000.00000" pt_clust_9="29.07865"></scales>
<clustering>
<clus scale="   29.079">  2  9  1 -1</clus>
<clus scale="   91.497">  5  6 -1 -1</clus>
<clus scale="   93.269">  7  8 -1 -1</clus>
<clus scale="  118.227">  2  5  1 -1</clus>
<clus scale="  119.604">  1  5  2 -1</clus>
</clustering>
</event>
<event>
 9    1  0.1713970E-005  0.1093977E+03  0.7546771E-02  0.1262640E+00
         -2   -1    0    0    0  501 -0.00000000000E+00  0.00000000000E+00  0.50822567602E+02  0.50822567602E+02  0.00000000000E+00 0.  1.
          2   -1    0    0  502    0  0.00000000000E+00 -0.00000000000E+00 -0.33954329913E+03  0.33954329913E+03  0.00000000000E+00 0. -1.
         23    2    1    2    0    0 -0.64698778338E+02  0.60003554615E+01 -0.49637869599E+02  0.12081469872E+03  0.88940076148E+02 0.  0.
         23    2    1    2    0    0  0.48039631814E+02  0.52956262403E+01 -0.21149779828E+03  0.23540351652E+03  0.91365458636E+02 0.  0.
        -11    1    3    3    0    0 -0.72050400129E+02 -0.25039989744E+02 -0.45049476895E+02  0.88587338901E+02  0.00000000000E+00 0.  1.
         11    1    3    3    0    0  0.73516217910E+01  0.31040345206E+02 -0.45883927035E+01  0.32227359821E+02  0.00000000000E+00 0. -1.
        -13    1    4    4    0    0 -0.47453141952E+01 -0.30133505801E+02 -0.28765396139E+02  0.41928441346E+02  0.00000000000E+00 0.  1.
         13    1    4    4    0    0  0.52784946009E+02  0.35429132041E+02 -0.18273240214E+03  0.19347507517E+03  0.00000000000E+00 0. -1.
         21    1    1    2  502  501  0.16659146524E+02 -0.11295981702E+02 -0.27585063657E+02  0.34147651493E+02  0.00000000000E+00 0. -1.
<scales pt_clust_5="13000.00000" pt_clust_6="13000.00000" pt_clust_7="13000.00000" pt_clust_8="13000.00000" pt_clust_9="20.12775"></scales>
<clustering>
<clus scale="   20.128">  2  9  1 -1</clus>
<clus scale="   88.940">  5  6 -1 -1</clus>
<clus scale="   91.365">  7  8 -1 -1</clus>
<clus scale="  107.380">  1  5  2 -1</clus>
<clus scale="   20.128">  2  5  1 -1</clus>
</clustering>
</event>
<event>
 9    1  0.1713970E-005  0.2410315E+03  0.7546771E-02  0.1119336E+00
         -3   -1    0    0    0  501 -0.00000000000E+00  0.00000000000E+00  0.56616973566E+03  0.56616973566E+03  0.00000000000E+00 0.  1.
          3   -1    0    0  502    0  0.00000000000E+00 -0.00000000000E+00 -0.31031526670E+03  0.31031526670E+03  0.00000000000E+00 0. -1.
         23    2    1    2    0    0 -0.67731886093E+02 -0.24698520801E+03  0.21554053059E+03  0.34649330948E+03  0.89501909575E+02 0.  0.
         23    2    1    2    0    0  0.37906881704E+02  0.21229717932E+03 -0.18567419188E+03  0.29941974048E+03  0.93114184913E+02 0.  0.
        -11    1    4    4    0    0 -0.16728855725E+01  0.64925373367E+02 -0.11315713888E+03  0.13047084246E+03  0.00000000000E+00 0.  1.
         11    1    4    4    0    0  0.39579767277E+02  0.14737180595E+03 -0.72517053008E+02  0.16894889803E+03  0.00000000000E+00 0. -1.
        -11    1    3    3    0    0 -0.80036968047E+02 -0.13008260185E+03  0.13651514867E+03  0.20485064162E+03  0.00000000000E+00 0.  1.
         11    1    3    3    0    0  0.12305081954E+02 -0.11690260616E+03  0.79025381920E+02  0.14164266786E+03  0.00000000000E+00 0. -1.
         21    1    1    2  502  501  0.29825004389E+02  0.34688028689E+02  0.22598813025E+03  0.23057195240E+03  0.00000000000E+00 0.  1.
<scales pt_clust_5="13000.00000" pt_clust_6="13000.00000" pt_clust_7="13000.00000" pt_clust_8="13000.00000" pt_clust_9="45.74702"></scales>
<clustering>
<clus scale="   45.747">  1  9  2 -1</clus>
<clus scale="   89.502">  7  8 -1 -1</clus>
<clus scale="   93.114">  5  6 -1 -1</clus>
<clus scale="  239.659">  1  7  2 -1</clus>
<clus scale="  241.032">  2  5  1 -1</clus>
</clustering>
</event>
<event>
 9    1  0.1713970E-005  0.1375983E+03  0.7546771E-02  0.1216798E+00
          1   -1    0    0  502    0  0.00000000000E+00  0.00000000000E+00  0.31491107517E+03  0.31491107517E+03  0.00000000000E+00 0. -1.
         -1   -1    0    0    0  501 -0.00000000000E+00 -0.00000000000E+00 -0.10307282003E+03  0.10307282003E+03  0.00000000000E+00 0.  1.
         23    2    1    2    0    0  0.97752129717E+02 -0.35147930911E+02  0.35638763416E+02  0.14228812328E+03  0.90470617645E+02 0.  0.
         23    2    1    2    0    0 -0.10347444342E+03  0.66706428175E+01  0.19652392651E+03  0.24024463004E+03  0.91347526833E+02 0.  0.
        -11    1    4    4    0    0 -0.62942890238E+02  0.45288633315E+02  0.82517407908E+02  0.11323422781E+03  0.00000000000E+00 0.  1.
         11    1    4    4    0    0 -0.40531553178E+02 -0.38617990497E+02  0.11400651860E+03  0.12701040224E+03  0.00000000000E+00 0. -1.
        -13    1    3    3    0    0  0.57472490954E+02 -0.22353216373E+02  0.65942337939E+02  0.90283694162E+02  0.00000000000E+00 0. -1.
         13    1    3    3    0    0  0.40279638763E+02 -0.12794714538E+02 -0.30303574523E+02  0.52004429118E+02  0.00000000000E+00 0.  1.
         21    1    1    2  502  501  0.57223136991E+01  0.28477288094E+02 -0.20324434783E+02  0.35451141878E+02  0.00000000000E+00 0. -1.
<scales pt_clust_5="13000.00000" pt_clust_6="13000.00000" pt_clust_7="13000.00000" pt_clust_8="13000.00000" pt_clust_9="29.04653"></scales>
<clustering>
<clus scale="   29.047">  2  9  1 -1</clus>
<clus scale="   90.471">  7  8 -1 -1</clus>
<clus scale="   91.348">  5  6 -1 -1</clus>
<clus scale="  137.018">  2  7  1 -1</clus>
<clus scale="  137.598">  1  5  2 -1</clus>
</clustering>
</event>
<event>
 9    1  0.1713970E-005  0.1255988E+03  0.7546771E-02  0.1234492E+00
          1   -1    0    0  502    0  0.00000000000E+00  0.00000000000E+00  0.10372111116E+03  0.10372111116E+03  0.00000000000E+00 0. -1.
         -1   -1    0    0    0  501 -0.00000000000E+00 -0.00000000000E+00 -0.27470706025E+03  0.27470706025E+03  0.00000000000E+00 0.  1.
         23    2    1    2    0    0  0.96434682782E+01  0.79188305875E+02 -0.74987177320E+02  0.14136691789E+03  0.89430109273E+02 0.  0.
         23    2    1    2    0    0 -0.64241702336E+02 -0.73418641268E+02 -0.81308135092E+01  0.13345124300E+03  0.90696366653E+02 0.  0.
        -11    1    3    3    0    0  0.26110864779E+02 -0.15740871457E+01  0.48638545424E+01  0.26606617426E+02  0.00000000000E+00 0. -1.
         11    1    3    3    0    0 -0.16467396501E+02  0.80762393021E+02 -0.79851031863E+02  0.11476030047E+03  0.00000000000E+00 0.  1.
        -13    1    4    4    0    0 -0.37337403530E+02 -0.91935078662E+02 -0.14178798742E+02  0.10023561605E+03  0.00000000000E+00 0. -1.
         13    1    4    4    0    0 -0.26904298806E+02  0.18516437395E+02  0.60479852324E+01  0.33215626946E+02  0.00000000000E+00 0.  1.
         21    1    1    2  502  501  0.54598234058E+02 -0.57696646077E+01 -0.87867958256E+02  0.10361001052E+03  0.00000000000E+00 0. -1.
<scales pt_clust_5="13000.00000" pt_clust_6="13000.00000" pt_clust_7="13000.00000" pt_clust_8="13000.00000" pt_clust_9="54.90224"></scales>
<clustering>
<clus scale="   54.902">  2  9  1 -1</clus>
<clus scale="   89.430">  5  6 -1 -1</clus>
<clus scale="   90.696">  7  8 -1 -1</clus>
<clus scale="  124.688">  2  5  1 -1</clus>
<clus scale="  125.599">  1  5  2 -1</clus>
</clustering>
</event>
<event>
 9    1  0.1713970E-005  0.9722299E+02  0.7546771E-02  0.1287614E+00
          4   -1    0    0  502    0  0.00000000000E+00  0.00000000000E+00  0.22792501859E+02  0.22792501859E+02  0.00000000000E+00 0. -1.
         -4   -1    0    0    0  501 -0.00000000000E+00 -0.00000000000E+00 -0.55604385722E+03  0.55604385722E+03  0.00000000000E+00 0.  1.
         23    2    1    2    0    0  0.53067305287E+01  0.22844550418E+02 -0.28856333020E+03  0.30400271131E+03  0.92729812236E+02 0.  0.
         23    2    1    2    0    0  0.16047719239E+02 -0.31056227244E+02 -0.15847714034E+03  0.18563857602E+03  0.90136886757E+02 0.  0.
        -11    1    3    3    0    0 -0.37963340655E+02 -0.11941080528E+02 -0.13316380020E+03  0.13898346060E+03  0.00000000000E+00 0.  1.
         11    1    3    3    0    0  0.43270071183E+02  0.34785630946E+02 -0.15539953000E+03  0.16501925071E+03  0.00000000000E+00 0. -1.
        -13    1    4    4    0    0 -0.31323607100E+02  0.76569590736E+01 -0.33538254018E+02  0.46525389483E+02  0.00000000000E+00 0.  1.
         13    1    4    4    0    0  0.47371326339E+02 -0.38713186318E+02 -0.12493888632E+03  0.13911318654E+03  0.00000000000E+00 0. -1.
         21    1    1    2  502  501 -0.21354449768E+02  0.82116768269E+01 -0.86210884823E+02  0.89195071743E+02  0.00000000000E+00 0. -1.
<scales pt_clust_5="13000.00000" pt_clust_6="13000.00000" pt_clust_7="13000.00000" pt_clust_8="13000.00000" pt_clust_9="22.87890"></scales>
<clustering>
<clus scale="   22.879">  2  9  1 -1</clus>
<clus scale="   90.137">  7  8 -1 -1</clus>
<clus scale="   92.730">  5  6 -1 -1</clus>
<clus scale="   94.753">  1  7  2 -1</clus>
<clus scale="   94.753">  1  5  2 -1</clus>
</clustering>
</event>
<event>
 9    1  0.1713970E-005  0.9619727E+02  0.7546771E-02  0.1288608E+00
         -2   -1    0    0    0  501 -0.00000000000E+00  0.00000000000E+00  0.24461591672E+03  0.24461591672E+03  0.00000000000E+00 0. -1.
          2   -1    0    0  502    0  0.00000000000E+00 -0.00000000000E+00 -0.76158046863E+02  0.76158046863E+02  0.00000000000E+00 0.  1.
         23    2    1    2    0    0  0.28270886184E+01  0.31874858085E+01  0.12717730033E+03  0.15722429339E+03  0.92343165527E+02 0.  0.
         23    2    1    2    0    0 -0.12392295626E+02  0.32797982679E+02 -0.10776687313E+02  0.99546505286E+02  0.92542385243E+02 0.  0.
        -11    1    3    3    0    0  0.47067030981E+02 -0.13510679093E+01  0.54535491065E+02  0.72050333626E+02  0.00000000000E+00 0.  1.
         11    1    3    3    0    0 -0.44239942363E+02  0.45385537178E+01  0.72641809261E+02  0.85173959769E+02  0.00000000000E+00 0. -1.
        -11    1    4    4    0    0  0.32525851557E+02  0.41967598949E+02 -0.47683722419E+01  0.53309921731E+02  0.00000000000E+00 0.  1.
         11    1    4    4    0    0 -0.44918147183E+02 -0.91696162707E+01 -0.60083150714E+01  0.46236583555E+02  0.00000000000E+00 0. -1.
         21    1    1    2  502  501  0.95652070073E+01 -0.35985468487E+02  0.52057256848E+02  0.64003164905E+02  0.00000000000E+00 0.  1.
<scales pt_clust_5="13000.00000" pt_clust_6="13000.00000" pt_clust_7="13000.00000" pt_clust_8="13000.00000" pt_clust_9="37.23503"></scales>
<clustering>
<clus scale="   37.235">  1  9  2 -1</clus>
<clus scale="   92.343">  5  6 -1 -1</clus>
<clus scale="   92.542">  7  8 -1 -1</clus>
<clus scale="   96.006">  1  5  2 -1</clus>
<clus scale="   96.197">  2  5  1 -1</clus>
</clustering>
</event>
<event>
 9    1  0.1713970E-005  0.2797182E+03  0.7546771E-02  0.1095923E+00
          1   -1    0    0  502    0  0.00000000000E+00  0.00000000000E+00  0.10564420419E+04  0.10564420419E+04  0.00000000000E+00 0. -1.
         -1   -1    0    0    0  501 -0.00000000000E+00 -0.00000000000E+00 -0.14144177763E+03  0.14144177763E+03  0.00000000000E+00 0.  1.
         23    2    1    2    0    0  0.21178901493E+03  0.40634889852E+02  0.28327623575E+02  0.23712219806E+03  0.94438876712E+02 0.  0.
         23    2    1    2    0    0 -0.26498181582E+03 -0.72773939893E+02  0.81925426103E+03  0.86906848912E+03  0.92688108857E+02 0.  0.
        -11    1    4    4    0    0 -0.91167917025E+02 -0.58662171986E+02  0.22500048729E+03  0.24975599852E+03  0.00000000000E+00 0.  1.
         11    1    4    4    0    0 -0.17381389880E+03 -0.14111767907E+02  0.59425377373E+03  0.61931249059E+03  0.00000000000E+00 0. -1.
        -13    1    3    3    0    0  0.72832129652E+02 -0.29740072390E+02 -0.72974554203E+00  0.78673525051E+02  0.00000000000E+00 0.  1.
         13    1    3    3    0    0  0.13895688528E+03  0.70374962242E+02  0.29057369117E+02  0.15844867301E+03  0.00000000000E+00 0. -1.
         21    1    1    2  502  501  0.53192800888E+02  0.32139050041E+02  0.67418379639E+02  0.91693132333E+02  0.00000000000E+00 0. -1.
<scales pt_clust_5="13000.00000" pt_clust_6="13000.00000" pt_clust_7="13000.00000" pt_clust_8="13000.00000" pt_clust_9="62.14815"></scales>
<clustering>
<clus scale="   62.148">  2  9  1 -1</clus>
<clus scale="   92.688">  5  6 -1 -1</clus>
<clus scale="   94.439">  7  8 -1 -1</clus>
<clus scale="  279.132">  1  5  2 -1</clus>
<clus scale="  279.132">  1  5  2 -1</clus>
</clustering>
</event>
<event>
 9    1  0.1713970E-005  0.1121924E+03  0.7546771E-02  0.1256600E+00
         -1   -1    0    0    0  501 -0.00000000000E+00  0.00000000000E+00  0.19869414273E+02  0.19869414273E+02  0.00000000000E+00 0.  1.
          1   -1    0    0  502    0  0.00000000000E+00 -0.00000000000E+00 -0.84897617855E+03  0.84897617855E+03  0.00000000000E+00 0. -1.
         23    2    1    2    0    0 -0.95533915425E+01  0.77297011025E+02 -0.37642731107E+03  0.39502259596E+03  0.90990304964E+02 0.  0.
         23    2    1    2    0    0  0.10215512717E+02 -0.56037829191E+02 -0.42803104371E+03  0.44126634919E+03  0.90889061771E+02 0.  0.
        -11    1    3    3    0    0 -0.45656389835E+02  0.33188751588E+02 -0.12403957914E+03  0.13627845155E+03  0.00000000000E+00 0.  1.
         11    1    3    3    0    0  0.36102998293E+02  0.44108259437E+02 -0.25238773193E+03  0.25874414441E+03  0.00000000000E+00 0. -1.
        -13    1    4    4    0    0  0.14439659353E+02 -0.80103258772E+02 -0.29565995385E+03  0.30665916608E+03  0.00000000000E+00 0.  1.
         13    1    4    4    0    0 -0.42241466353E+01  0.24065429581E+02 -0.13237108986E+03  0.13460718311E+03  0.00000000000E+00 0. -1.
         21    1    1    2  502  501 -0.66212117492E+00 -0.21259181834E+02 -0.24648409496E+02  0.32556647668E+02  0.00000000000E+00 0.  1.
<scales pt_clust_5="13000.00000" pt_clust_6="13000.00000" pt_clust_7="13000.00000" pt_clust_8="13000.00000" pt_clust_9="21.26949"></scales>
<clustering>
<clus scale="   21.269">  1  9  2 -1</clus>
<clus scale="   90.889">  7  8 -1 -1</clus>
<clus scale="   90.990">  5  6 -1 -1</clus>
<clus scale="  112.110">  2  7  1 -1</clus>
<clus scale="  112.110">  2  5  1 -1</clus>
</clustering>
</event>
<event>
 9    1  0.1713970E-005  0.1703668E+03  0.7546771E-02  0.1177689E+00
          1   -1    0    0  502    0  0.00000000000E+00  0.00000000000E+00  0.45343230588E+03  0.45343230588E+03  0.00000000000E+00 0. -1.
         -1   -1    0    0    0  501 -0.00000000000E+00 -0.00000000000E+00 -0.32271100750E+03  0.32271100750E+03  0.00000000000E+00 0.  1.
         23    2    1    2    0    0 -0.10500405695E+03 -0.14291714075E+03 -0.20516687843E+03  0.28625521588E+03  0.91637544262E+02 0.  0.
         23    2    1    2    0    0  0.54709462928E+02  0.12932720192E+03  0.38375688044E+03  0.41913751156E+03  0.93210835322E+02 0.  0.
        -11    1    4    4    0    0  0.66361427972E+02  0.98955603538E+02  0.35900897584E+03  0.37826379066E+03  0.00000000000E+00 0. -1.
         11    1    4    4    0    0 -0.11651965044E+02  0.30371598384E+02  0.24747904599E+02  0.40873720895E+02  0.00000000000E+00 0.  1.
        -11    1    3    3    0    0 -0.33314896566E+02 -0.82752631289E+02 -0.15801812163E+03  0.18145965689E+03  0.00000000000E+00 0.  1.
         11    1    3    3    0    0 -0.71689160379E+02 -0.60164509460E+02 -0.47148756804E+02  0.10479555898E+03  0.00000000000E+00 0. -1.
         21    1    1    2  502  501  0.50294594017E+02  0.13589938827E+02 -0.47868703629E+02  0.70750585946E+02  0.00000000000E+00 0. -1.
<scales pt_clust_5="13000.00000" pt_clust_6="13000.00000" pt_clust_7="13000.00000" pt_clust_8="13000.00000" pt_clust_9="52.09830"></scales>
<clustering>
<clus scale="   52.098">  2  9  1 -1</clus>
<clus scale="   91.638">  7  8 -1 -1</clus>
<clus scale="   93.211">  5  6 -1 -1</clus>
<clus scale="  169.511">  2  7  1 -1</clus>
<clus scale="  170.367">  1  5  2 -1</clus>
</clustering>
</event>
<event>
 9    1  0.1713970E-005  0.1773494E+03  0.7546771E-02  0.1170634E+00
         -1   -1    0    0    0  501 -0.00000000000E+00  0.00000000000E+00  0.68022283353E+02  0.68022283353E+02  0.00000000000E+00 0.  1.
          1   -1    0    0  502    0  0.00000000000E+00 -0.00000000000E+00 -0.90113571119E+03  0.90113571119E+03  0.00000000000E+00 0. -1.
         23    2    1    2    0    0 -0.21617261469E+02  0.12408676857E+03 -0.15899184361E+03  0.22229147610E+03  0.90940980227E+02 0.  0.
         23    2    1    2    0    0  0.10806442204E+03 -0.12979474557E+03 -0.60820322607E+03  0.63800457599E+03  0.92812065480E+02 0.  0.
        -11    1    4    4    0    0  0.34485240737E+02  0.54570642165E+01 -0.16971976195E+03  0.17327379772E+03  0.00000000000E+00 0. -1.
         11    1    4    4    0    0  0.73579181300E+02 -0.13525180979E+03 -0.43848346412E+03  0.46473077828E+03  0.00000000000E+00 0.  1.
        -11    1    3    3    0    0 -0.57428823646E+02  0.73316356602E+02 -0.91558732470E+02  0.13059999779E+03  0.00000000000E+00 0.  1.
         11    1    3    3    0    0  0.35811562177E+02  0.50770411968E+02 -0.67433111143E+02  0.91691478314E+02  0.00000000000E+00 0. -1.
         21    1    1    2  502  501 -0.86447160568E+02  0.57079770026E+01 -0.65918358157E+02  0.10886194245E+03  0.00000000000E+00 0.  1.
<scales pt_clust_5="13000.00000" pt_clust_6="13000.00000" pt_clust_7="13000.00000" pt_clust_8="13000.00000" pt_clust_9="86.63540"></scales>
<clustering>
<clus scale="   86.635">  1  9  2 -1</clus>
<clus scale="   90.941">  7  8 -1 -1</clus>
<clus scale="   92.812">  5  6 -1 -1</clus>
<clus scale="  176.377">  1  7  2 -1</clus>
<clus scale="  177.349">  2  5  1 -1</clus>
</clustering>
</event>
<event>
 9    1  0.1713970E-005  0.1542161E+03  0.7546771E-02  0.1195511E+00
          2   -1    0    0  502    0  0.00000000000E+00  0.00000000000E+00  0.68008273125E+03  0.68008273125E+03  0.00000000000E+00 0. -1.
         -2   -1    0    0    0  501 -0.00000000000E+00 -0.00000000000E+00 -0.64946453088E+02  0.64946453088E+02  0.00000000000E+00 0.  1.
         23    2    1    2    0    0 -0.89484077503E+02  0.11739161067E+03  0.12870947767E+03  0.21634601316E+03  0.91930829364E+02 0.  0.
         23    2    1    2    0    0  0.63786475087E+02 -0.98022623628E+02  0.46885320363E+03  0.49201771419E+03  0.92633446328E+02 0.  0.
        -13    1    4    4    0    0 -0.20212563146E+02 -0.13290931250E+02  0.38824483312E+02  0.45744257201E+02  0.00000000000E+00 0.  1.
         13    1    4    4    0    0  0.83999038233E+02 -0.84731692377E+02  0.43002872032E+03  0.44627345699E+03  0.00000000000E+00 0. -1.
        -13    1    3    3    0    0 -0.56957880429E+02  0.24340858172E+02  0.11161845523E+02  0.62938575730E+02  0.00000000000E+00 0.  1.
         13    1    3    3    0    0 -0.32526197075E+02  0.93050752499E+02  0.11754763215E+03  0.15340743743E+03  0.00000000000E+00 0. -1.
         21    1    1    2  502  501  0.25697602417E+02 -0.19368987044E+02  0.17573596868E+02  0.36665456985E+02  0.00000000000E+00 0.  1.
<scales pt_clust_5="13000.00000" pt_clust_6="13000.00000" pt_clust_7="13000.00000" pt_clust_8="13000.00000" pt_clust_9="32.17957"></scales>
<clustering>
<clus scale="   32.180">  2  9  1 -1</clus>
<clus scale="   91.931">  7  8 -1 -1</clus>
<clus scale="   92.633">  5  6 -1 -1</clus>
<clus scale="  153.795">  2  7  1 -1</clus>
<clus scale="  154.216">  1  5  2 -1</clus>
</clustering>
</event>
<event>
 9    1  0.1713970E-005  0.1032524E+03  0.7546771E-02  0.1274247E+00
          2   -1    0    0  502    0  0.00000000000E+00  0.00000000000E+00  0.74243003948E+03  0.74243003948E+03  0.00000000000E+00 0. -1.
         -2   -1    0    0    0  501 -0.00000000000E+00 -0.00000000000E+00 -0.22116460158E+02  0.22116460158E+02  0.00000000000E+00 0.  1.
         23    2    1    2    0    0  0.86308812349E+01  0.68278393184E+02  0.25646090001E+03  0.28048913697E+03  0.90363331267E+02 0.  0.
         23    2    1    2    0    0 -0.17430748308E+01 -0.41229054095E+02  0.42537524759E+03  0.43652188777E+03  0.88906602813E+02 0.  0.
        -11    1    3    3    0    0  0.37466195759E+02  0.73545468189E+02  0.16582513865E+03  0.18523128333E+03  0.00000000000E+00 0.  1.
         11    1    3    3    0    0 -0.28835314524E+02 -0.52670750050E+01  0.90635761366E+02  0.95257853646E+02  0.00000000000E+00 0. -1.
        -11    1    4    4    0    0  0.22712577275E+02  0.14925317443E+02  0.57702101025E+02  0.63782119203E+02  0.00000000000E+00 0.  1.
         11    1    4    4    0    0 -0.24455652106E+02 -0.56154371537E+02  0.36767314657E+03  0.37273976856E+03  0.00000000000E+00 0. -1.
         21    1    1    2  502  501 -0.68878064040E+01 -0.27049339089E+02  0.38477431715E+02  0.47535474896E+02  0.00000000000E+00 0.  1.
<scales pt_clust_5="13000.00000" pt_clust_6="13000.00000" pt_clust_7="13000.00000" pt_clust_8="13000.00000" pt_clust_9="27.91252"></scales>
<clustering>
<clus scale="   27.913">  2  9  1 -1</clus>
<clus scale="   88.907">  7  8 -1 -1</clus>
<clus scale="   90.363">  5  6 -1 -1</clus>
<clus scale="  101.980">  1  7  2 -1</clus>
<clus scale="  101.980">  1  5  2 -1</clus>
</clustering>
</event>
<event>
 9    1  0.1713970E-005  0.1308687E+03  0.7546771E-02  0.1226644E+00
         -1   -1    0    0    0  501 -0.00000000000E+00  0.00000000000E+00  0.40091661504E+02  0.40091661504E+02  0.00000000000E+00 0.  1.
          1   -1    0    0  502    0  0.00000000000E+00 -0.00000000000E+00 -0.65989193265E+03  0.65989193265E+03  0.00000000000E+00 0. -1.
         23    2    1    2    0    0 -0.74389506485E+02 -0.72396430499E+02 -0.15807326324E+03  0.21168704781E+03  0.95127324317E+02 0.  0.
         23    2    1    2    0    0  0.73327441988E+02  0.44194887045E+02 -0.41295352866E+03  0.43194668112E+03  0.93366036147E+02 0.  0.
        -11    1    4    4    0    0  0.65746980274E+02  0.10918279233E+02 -0.37511765652E+03  0.38099229713E+03  0.00000000000E+00 0. -1.
         11    1    4    4    0    0  0.75804617140E+01  0.33276607812E+02 -0.37835872141E+02  0.50954383992E+02  0.00000000000E+00 0.  1.
        -13    1    3    3    0    0 -0.79747060256E+02 -0.46849822048E+02 -0.60113400123E+02  0.11030920324E+03  0.00000000000E+00 0.  1.
         13    1    3    3    0    0  0.53575537706E+01 -0.25546608451E+02 -0.97959863121E+02  0.10137784456E+03  0.00000000000E+00 0. -1.
         21    1    1    2  502  501  0.10620644972E+01  0.28201543454E+02 -0.48773479237E+02  0.56349865226E+02  0.00000000000E+00 0. -1.
<scales pt_clust_5="13000.00000" pt_clust_6="13000.00000" pt_clust_7="13000.00000" pt_clust_8="13000.00000" pt_clust_9="28.22153"></scales>
<clustering>
<clus scale="   28.222">  1  9  2 -1</clus>
<clus scale="   93.366">  5  6 -1 -1</clus>
<clus scale="   95.127">  7  8 -1 -1</clus>
<clus scale="  129.594">  2  5  1 -1</clus>
<clus scale="  129.594">  2  5  1 -1</clus>
</clustering>
</event>
<event>
 9    1  0.1713970E-005  0.1610727E+03  0.7546771E-02  0.1187559E+00
         -1   -1    0    0    0  501 -0.00000000000E+00  0.00000000000E+00  0.14970881484E+03  0.14970881484E+03  0.00000000000E+00 0.  1.
          1   -1    0    0  502    0  0.00000000000E+00 -0.00000000000E+00 -0.36693766656E+03  0.36693766656E+03  0.00000000000E+00 0. -1.
         23    2    1    2    0    0  0.25890193618E+02  0.10710556881E+03 -0.23510028602E+02  0.14569509609E+03  0.92371178312E+02 0.  0.
         23    2    1    2    0    0  0.30284152002E+01 -0.14245386417E+03 -0.24773507900E+03  0.30021565303E+03  0.91948323750E+02 0.  0.
        -11    1    3    3    0    0  0.29143259665E+02  0.24983212779E+02 -0.46554092541E+02  0.60338826944E+02  0.00000000000E+00 0. -1.
         11    1    3    3    0    0 -0.32530660472E+01  0.82122356033E+02  0.23044063939E+02  0.85356269143E+02  0.00000000000E+00 0.  1.
        -13    1    4    4    0    0 -0.12052340314E+02 -0.40799189152E+02 -0.13835315625E+02  0.44735318273E+02  0.00000000000E+00 0.  1.
         13    1    4    4    0    0  0.15080755514E+02 -0.10165467502E+03 -0.23389976338E+03  0.25548033476E+03  0.00000000000E+00 0. -1.
         21    1    1    2  502  501 -0.28918608818E+02  0.35348295357E+02  0.54016255889E+02  0.70735732278E+02  0.00000000000E+00 0. -1.
<scales pt_clust_5="13000.00000" pt_clust_6="13000.00000" pt_clust_7="13000.00000" pt_clust_8="13000.00000" pt_clust_9="45.67043"></scales>
<clustering>
<clus scale="   45.670">  1  9  2 -1</clus>
<clus scale="   91.948">  7  8 -1 -1</clus>
<clus scale="   92.371">  5  6 -1 -1</clus>
<clus scale="  160.831">  2  7  1 -1</clus>
<clus scale="  160.831">  2  5  1 -1</clus>
</clustering>
</event>
<event>
 9    1  0.1713970E-005  0.1086301E+03  0.7546771E-02  0.1266302E+00
          1   -1    0    0  502    0  0.00000000000E+00  0.00000000000E+00  0.53966736923E+03  0.53966736923E+03  0.00000000000E+00 0. -1.
         -1   -1    0    0    0  501 -0.00000000000E+00 -0.00000000000E+00 -0.32515303248E+02  0.32515303248E+02  0.00000000000E+00 0.  1.
         23    2    1    2    0    0  0.49502773918E+01  0.41113853803E+02  0.14921073302E+03  0.18067395469E+03  0.93082655916E+02 0.  0.
         23    2    1    2    0    0 -0.25782241425E+01 -0.63256007763E+02  0.35305729034E+03  0.36871057113E+03  0.85381878888E+02 0.  0.
        -11    1    3    3    0    0 -0.35379877232E+02  0.49158769872E+02  0.83443863967E+02  0.10310770486E+03  0.00000000000E+00 0.  1.
         11    1    3    3    0    0  0.40330154624E+02 -0.80449160689E+01  0.65766869055E+02  0.77566249825E+02  0.00000000000E+00 0. -1.
        -13    1    4    4    0    0  0.13665889697E+02 -0.78496056460E+02  0.22407695819E+03  0.23782108950E+03  0.00000000000E+00 0.  1.
         13    1    4    4    0    0 -0.16244113840E+02  0.15240048697E+02  0.12898033215E+03  0.13088948163E+03  0.00000000000E+00 0. -1.
         21    1    1    2  502  501 -0.23720532493E+01  0.22142153960E+02  0.48840426121E+01  0.22798146654E+02  0.00000000000E+00 0.  1.
<scales pt_clust_5="13000.00000" pt_clust_6="13000.00000" pt_clust_7="13000.00000" pt_clust_8="13000.00000" pt_clust_9="22.26885"></scales>
<clustering>
<clus scale="   22.269">  2  9  1 -1</clus>
<clus scale="   85.382">  7  8 -1 -1</clus>
<clus scale="   93.083">  5  6 -1 -1</clus>
<clus scale="  102.109">  1  7  2 -1</clus>
<clus scale="  102.109">  1  5  2 -1</clus>
</clustering>
</event>
<event>
 9    1  0.1713970E-005  0.1420921E+03  0.7546771E-02  0.1210843E+00
         -2   -1    0    0    0  501 -0.00000000000E+00  0.00000000000E+00  0.51981824846E+02  0.51981824846E+02  0.00000000000E+00 0.  1.
          2   -1    0    0  502    0  0.00000000000E+00 -0.00000000000E+00 -0.58095131356E+03  0.58095131356E+03  0.00000000000E+00 0. -1.
         23    2    1    2    0    0  0.58552663277E+02  0.10329090567E+03 -0.24829747702E+03  0.29041647245E+03  0.92696627800E+02 0.  0.
         23    2    1    2    0    0 -0.83406754337E+01 -0.10271219193E+03 -0.24461616327E+03  0.28069755209E+03  0.91294507945E+02 0.  0.
        -11    1    4    4    0    0 -0.36071152345E+02 -0.16152130472E+02 -0.37356353655E+02  0.54383053507E+02  0.00000000000E+00 0.  1.
         11    1    4    4    0    0  0.27730476912E+02 -0.86560061455E+02 -0.20725980961E+03  0.22631449858E+03  0.00000000000E+00 0. -1.
        -13    1    3    3    0    0  0.63051580634E+02  0.19063988554E+02 -0.98276460370E+02  0.11830976351E+03  0.00000000000E+00 0.  1.
         13    1    3    3    0    0 -0.44989173573E+01  0.84226917117E+02 -0.15002101665E+03  0.17210670894E+03  0.00000000000E+00 0. -1.
         21    1    1    2  502  501 -0.50211987843E+02 -0.57871374356E+00 -0.36055848420E+02  0.61819113857E+02  0.00000000000E+00 0.  1.
<scales pt_clust_5="13000.00000" pt_clust_6="13000.00000" pt_clust_7="13000.00000" pt_clust_8="13000.00000" pt_clust_9="50.21532"></scales>
<clustering>
<clus scale="   50.215">  1  9  2 -1</clus>
<clus scale="   91.295">  5  6 -1 -1</clus>
<clus scale="   92.697">  7  8 -1 -1</clus>
<clus scale="  141.181">  2  5  1 -1</clus>
<clus scale="  141.181">  2  5  1 -1</clus>
</clustering>
</event>
<event>
 9    1  0.1713970E-005  0.1096201E+03  0.7546771E-02  0.1261938E+00
         -1   -1    0    0    0  501 -0.00000000000E+00  0.00000000000E+00  0.50571801154E+02  0.50571801154E+02  0.00000000000E+00 0.  1.
          1   -1    0    0  502    0  0.00000000000E+00 -0.00000000000E+00 -0.39744036250E+03  0.39744036250E+03  0.00000000000E+00 0. -1.
         23    2    1    2    0    0  0.16086656965E+02  0.30902638786E+02 -0.73593066462E+02  0.12449562937E+03  0.94177856655E+02 0.  0.
         23    2    1    2    0    0 -0.33053678418E+02 -0.56763422741E+02 -0.26942867266E+03  0.29234831321E+03  0.92526184214E+02 0.  0.
        -13    1    4    4    0    0 -0.28588807117E+02 -0.90076367069E+01 -0.15149834968E+02  0.33585337737E+02  0.00000000000E+00 0.  1.
         13    1    4    4    0    0 -0.44648713015E+01 -0.47755786034E+02 -0.25427883770E+03  0.25876297547E+03  0.00000000000E+00 0. -1.
        -13    1    3    3    0    0  0.20652200235E+02  0.63554999606E+02 -0.42629665368E+02  0.79265627600E+02  0.00000000000E+00 0.  1.
         13    1    3    3    0    0 -0.45655432705E+01 -0.32652360821E+02 -0.30963401094E+02  0.45230001767E+02  0.00000000000E+00 0. -1.
         21    1    1    2  502  501  0.16967021453E+02  0.25860783955E+02 -0.38468222193E+01  0.31168221075E+02  0.00000000000E+00 0.  1.
<scales pt_clust_5="13000.00000" pt_clust_6="13000.00000" pt_clust_7="13000.00000" pt_clust_8="13000.00000" pt_clust_9="30.92992"></scales>
<clustering>
<clus scale="   30.930">  1  9  2 -1</clus>
<clus scale="   92.526">  5  6 -1 -1</clus>
<clus scale="   94.178">  7  8 -1 -1</clus>
<clus scale="  108.204">  2  5  1 -1</clus>
<clus scale="  108.204">  2  5  1 -1</clus>
</clustering>
</event>
<event>
 9    1  0.1713970E-005  0.9881332E+02  0.7546771E-02  0.1283848E+00
         -1   -1    0    0    0  501 -0.00000000000E+00  0.00000000000E+00  0.71154771312E+02  0.71154771312E+02  0.00000000000E+00 0.  1.
          1   -1    0    0  502    0  0.00000000000E+00 -0.00000000000E+00 -0.17918194794E+03  0.17918194794E+03  0.00000000000E+00 0. -1.
         23    2    1    2    0    0 -0.42254246488E+02 -0.30061466062E+01 -0.23228799588E+02  0.10270866554E+03  0.90636827959E+02 0.  0.
         23    2    1    2    0    0  0.35773482484E+02 -0.17041476524E+02 -0.80661485949E+02  0.12615664568E+03  0.88538522472E+02 0.  0.
        -11    1    3    3    0    0  0.57692834806E+01  0.36521051897E+02 -0.21536841800E+01  0.37036606474E+02  0.00000000000E+00 0.  1.
         11    1    3    3    0    0 -0.48023529969E+02 -0.39527198503E+02 -0.21075115408E+02  0.65672059063E+02  0.00000000000E+00 0. -1.
        -11    1    4    4    0    0  0.28995508823E+02  0.13877840755E+02 -0.87979532966E+02  0.93668202806E+02  0.00000000000E+00 0.  1.
         11    1    4    4    0    0  0.67779736612E+01 -0.30919317279E+02  0.73180470174E+01  0.32488442870E+02  0.00000000000E+00 0. -1.
         21    1    1    2  502  501  0.64807640039E+01  0.20047623131E+02 -0.41368910906E+01  0.21471408038E+02  0.00000000000E+00 0.  1.
<scales pt_clust_5="13000.00000" pt_clust_6="13000.00000" pt_clust_7="13000.00000" pt_clust_8="13000.00000" pt_clust_9="21.06911"></scales>
<clustering>
<clus scale="   21.069">  1  9  2 -1</clus>
<clus scale="   88.539">  7  8 -1 -1</clus>
<clus scale="   90.637">  5  6 -1 -1</clus>
<clus scale="   96.892">  2  7  1 -1</clus>
<clus scale="   96.892">  2  5  1 -1</clus>
</clustering>
</event>
<event>
 9    1  0.1713970E-005  0.2416908E+03  0.7546771E-02  0.1119096E+00
         -1   -1    0    0    0  501 -0.00000000000E+00  0.00000000000E+00  0.39363450342E+03  0.39363450342E+03  0.00000000000E+00 0.  1.
          1   -1    0    0  502    0  0.00000000000E+00 -0.00000000000E+00 -0.26558174031E+03  0.26558174031E+03  0.00000000000E+00 0. -1.
         23    2    1    2    0    0  0.14564762395E+03 -0.14105813263E+03  0.22280156393E+03  0.31655552678E+03  0.97243187444E+02 0.  0.
         23    2    1    2    0    0 -0.14244066458E+03  0.17593058320E+03 -0.14326375902E+03  0.28282700098E+03  0.90695616218E+02 0.  0.
        -11    1    3    3    0    0  0.51519018765E+02 -0.37089065745E+02  0.13992044718E+03  0.15364745241E+03  0.00000000000E+00 0.  1.
         11    1    3    3    0    0  0.94128605186E+02 -0.10396906688E+03  0.82881116744E+02  0.16290807437E+03  0.00000000000E+00 0. -1.
        -13    1    4    4    0    0 -0.15245968235E+03  0.14380007514E+03 -0.11617020395E+03  0.23962039278E+03  0.00000000000E+00 0.  1.
         13    1    4    4    0    0  0.10019017764E+02  0.32130508063E+02 -0.27093555075E+02  0.43206608198E+02  0.00000000000E+00 0. -1.
         21    1    1    2  502  501 -0.32069593670E+01 -0.34872450573E+02  0.48514958211E+02  0.59833715976E+02  0.00000000000E+00 0.  1.
<scales pt_clust_5="13000.00000" pt_clust_6="13000.00000" pt_clust_7="13000.00000" pt_clust_8="13000.00000" pt_clust_9="35.01960"></scales>
<clustering>
<clus scale="   35.020">  1  9  2 -1</clus>
<clus scale="   90.696">  7  8 -1 -1</clus>
<clus scale="   97.243">  5  6 -1 -1</clus>
<clus scale="  239.132">  2  7  1 -1</clus>
<clus scale="  239.132">  2  5  1 -1</clus>
</clustering>
</event>
<event>
 9    1  0.1713970E-005  0.1028473E+03  0.7546771E-02  0.1275867E+00
          2   -1    0    0  502    0  0.00000000000E+00  0.00000000000E+00  0.26082319706E+03  0.26082319706E+03  0.00000000000E+00 0. -1.
         -2   -1    0    0    0  501 -0.00000000000E+00 -0.00000000000E+00 -0.15893165663E+03  0.15893165663E+03  0.00000000000E+00 0.  1.
         23    2    1    2    0    0  0.21156971509E+02  0.35519426286E+02 -0.11343840812E+03  0.15397498025E+03  0.95555088925E+02 0.  0.
         23    2    1    2    0    0 -0.34523250528E+02  0.13613106521E+02  0.17255482569E+03  0.19927893863E+03  0.92518949499E+02 0.  0.
        -11    1    4    4    0    0  0.13616132582E+02  0.23768189592E+02  0.95466540281E+01  0.29008007620E+02  0.00000000000E+00 0. -1.
         11    1    4    4    0    0 -0.48139383110E+02 -0.10155083071E+02  0.16300817166E+03  0.17027093101E+03  0.00000000000E+00 0.  1.
        -11    1    3    3    0    0  0.54944100030E+02  0.48868182566E+01 -0.81042368147E+02  0.98033670520E+02  0.00000000000E+00 0. -1.
         11    1    3    3    0    0 -0.33787128522E+02  0.30632608030E+02 -0.32396039971E+02  0.55941309730E+02  0.00000000000E+00 0.  1.
         21    1    1    2  502  501  0.13366279019E+02 -0.49132532808E+02  0.42775122865E+02  0.66500934813E+02  0.00000000000E+00 0. -1.
<scales pt_clust_5="13000.00000" pt_clust_6="13000.00000" pt_clust_7="13000.00000" pt_clust_8="13000.00000" pt_clust_9="50.91820"></scales>
<clustering>
<clus scale="   50.918">  1  9  2 -1</clus>
<clus scale="   92.519">  5  6 -1 -1</clus>
<clus scale="   95.555">  7  8 -1 -1</clus>
<clus scale="  100.033">  1  5  2 -1</clus>
<clus scale="   50.918">  1  5  2 -1</clus>
</clustering>
</event>
<event>
 9    1  0.1713970E-005  0.1481547E+03  0.7546771E-02  0.1203168E+00
         -3   -1    0    0    0  501 -0.00000000000E+00  0.00000000000E+00  0.29470253764E+03  0.29470253764E+03  0.00000000000E+00 0.  1.
          3   -1    0    0  502    0  0.00000000000E+00 -0.00000000000E+00 -0.22623002225E+03  0.22623002225E+03  0.00000000000E+00 0. -1.
         23    2    1    2    0    0  0.12068206523E+03 -0.15445167539E+02  0.20501100556E+03  0.25465568354E+03  0.89539324822E+02 0.  0.
         23    2    1    2    0    0 -0.11554976334E+03 -0.11096700351E+02 -0.16863737335E+03  0.22431082370E+03  0.91661864315E+02 0.  0.
        -11    1    3    3    0    0  0.83848337503E+02 -0.11137778559E+02  0.56826326070E+02  0.10190105568E+03  0.00000000000E+00 0. -1.
         11    1    3    3    0    0  0.36833727728E+02 -0.43073889802E+01  0.14818467949E+03  0.15275462787E+03  0.00000000000E+00 0.  1.
        -13    1    4    4    0    0 -0.12185648036E+01 -0.29473622077E+02 -0.18952023191E+02  0.35062208738E+02  0.00000000000E+00 0.  1.
         13    1    4    4    0    0 -0.11433119854E+03  0.18376921726E+02 -0.14968535016E+03  0.18924861496E+03  0.00000000000E+00 0. -1.
         21    1    1    2  502  501 -0.51323018860E+01  0.26541867890E+02  0.32098883180E+02  0.41966052651E+02  0.00000000000E+00 0. -1.
<scales pt_clust_5="13000.00000" pt_clust_6="13000.00000" pt_clust_7="13000.00000" pt_clust_8="13000.00000" pt_clust_9="27.03352"></scales>
<clustering>
<clus scale="   27.034">  1  9  2 -1</clus>
<clus scale="   89.539">  5  6 -1 -1</clus>
<clus scale="   91.662">  7  8 -1 -1</clus>
<clus scale="  146.851">  1  5  2 -1</clus>
<clus scale="  148.155">  2  5  1 -1</clus>
</clustering>
</event>
<event>
 9    1  0.3574865E-005  0.1393067E+03  0.7546771E-02  0.1215611E+00
          3   -1    0    0  502    0  0.00000000000E+00  0.00000000000E+00  0.17115508013E+03  0.17115508013E+03  0.00000000000E+00 0. -1.
         -3   -1    0    0    0  501 -0.00000000000E+00 -0.00000000000E+00 -0.31878738308E+03  0.31878738308E+03  0.00000000000E+00 0.  1.
         23    2    1    2    0    0 -0.65360169550E+02  0.68653963656E+02 -0.25200392029E+03  0.28257575854E+03  0.85777415360E+02 0.  0.
         23    2    1    2    0    0  0.86348713519E+02 -0.61773838285E+02  0.11627316053E+03  0.18227682956E+03  0.91832931510E+02 0.  0.
        -11    1    4    4    0    0  0.40319515130E+02 -0.68192171275E+01 -0.52079113919E+01  0.41222413365E+02  0.00000000000E+00 0.  1.
         11    1    4    4    0    0  0.46029198389E+02 -0.54954621157E+02  0.12148107193E+03  0.14105441619E+03  0.00000000000E+00 0. -1.
        -11    1    3    3    0    0 -0.79792989647E+02  0.29618991888E+02 -0.15103425528E+03  0.17336537182E+03  0.00000000000E+00 0.  1.
         11    1    3    3    0    0  0.14432820096E+02  0.39034971769E+02 -0.10096966501E+03  0.10921038672E+03  0.00000000000E+00 0. -1.
         21    1    1    2  502  501 -0.20988543969E+02 -0.68801253716E+01 -0.11901543195E+02  0.25089875119E+02  0.00000000000E+00 0.  1.
<scales pt_clust_5="13000.00000" pt_clust_6="13000.00000" pt_clust_7="13000.00000" pt_clust_8="13000.00000" pt_clust_9="22.08744"></scales>
<clustering>
<clus scale="   22.087">  2  9  1 -1</clus>
<clus scale="   85.777">  7  8 -1 -1</clus>
<clus scale="   91.833">  5  6 -1 -1</clus>
<clus scale="  135.391">  2  7  1 -1</clus>
<clus scale="  139.307">  1  5  2 -1</clus>
</clustering>
</event>
<event>
 9    1  0.1713970E-005  0.4270088E+03  0.7546771E-02  0.1035209E+00
         -2   -1    0    0    0  501 -0.00000000000E+00  0.00000000000E+00  0.23265967486E+04  0.23265967486E+04  0.00000000000E+00 0.  1.
          2   -1    0    0  502    0  0.00000000000E+00 -0.00000000000E+00 -0.26790668668E+03  0.26790668668E+03  0.00000000000E+00 0. -1.
         23    2    1    2    0    0 -0.11351797458E+03  0.42894909752E+03  0.20336200650E+04  0.20834937838E+04  0.91935410716E+02 0.  0.
         23    2    1    2    0    0  0.81314850196E+02 -0.40084972239E+03 -0.47394932647E+02  0.42688009588E+03  0.11263983227E+03 0.  0.
        -13    1    4    4    0    0  0.10319792354E+03 -0.31500995191E+03 -0.61614741721E+02  0.33716087795E+03  0.00000000000E+00 0. -1.
         13    1    4    4    0    0 -0.21883073342E+02 -0.85839770482E+02  0.14219809074E+02  0.89719217927E+02  0.00000000000E+00 0.  1.
        -13    1    3    3    0    0  0.16190759764E+02  0.46747941310E+02  0.21200511803E+03  0.21770089754E+03  0.00000000000E+00 0. -1.
         13    1    3    3    0    0 -0.12970873434E+03  0.38220115621E+03  0.18216149469E+04  0.18657928863E+04  0.00000000000E+00 0.  1.
         21    1    1    2  502  501  0.32203124381E+02 -0.28099375127E+02  0.72464929638E+02  0.84129555627E+02  0.00000000000E+00 0.  1.
<scales pt_clust_5="13000.00000" pt_clust_6="13000.00000" pt_clust_7="13000.00000" pt_clust_8="13000.00000" pt_clust_9="42.73893"></scales>
<clustering>
<clus scale="   42.739">  1  9  2 -1</clus>
<clus scale="   91.935">  7  8 -1 -1</clus>
<clus scale="  112.640">  5  6 -1 -1</clus>
<clus scale="  422.020">  1  7  2 -1</clus>
<clus scale="  427.009">  2  5  1 -1</clus>
</clustering>
</event>
<event>
 9    1  0.1713970E-005  0.9299955E+02  0.7546771E-02  0.1307309E+00
         -3   -1    0    0    0  501 -0.00000000000E+00  0.00000000000E+00  0.97229462114E+02  0.97229462114E+02  0.00000000000E+00 0.  1.
          3   -1    0    0  502    0  0.00000000000E+00 -0.00000000000E+00 -0.15657307577E+03  0.15657307577E+03  0.00000000000E+00 0. -1.
         23    2    1    2    0    0 -0.19330516376E+02 -0.28469337703E+02 -0.52659932867E+00  0.81324396194E+02  0.73683159927E+02 0.  0.
         23    2    1    2    0    0  0.78876098453E+01  0.29234719817E+00 -0.90089643366E+02  0.12885635550E+03  0.91790613103E+02 0.  0.
        -11    1    3    3    0    0 -0.31783047066E+02  0.15283132576E+02 -0.49815135299E+01  0.35616733415E+02  0.00000000000E+00 0.  1.
         11    1    3    3    0    0  0.12452530690E+02 -0.43752470280E+02  0.44549142012E+01  0.45707662779E+02  0.00000000000E+00 0. -1.
        -13    1    4    4    0    0  0.31584915524E+02  0.35447432122E+02 -0.61615688065E+02  0.77785733579E+02  0.00000000000E+00 0.  1.
         13    1    4    4    0    0 -0.23697305679E+02 -0.35155084924E+02 -0.28473955301E+02  0.51070621916E+02  0.00000000000E+00 0. -1.
         21    1    1    2  502  501  0.11442906530E+02  0.28176990505E+02  0.31272629040E+02  0.43621786195E+02  0.00000000000E+00 0.  1.
<scales pt_clust_5="13000.00000" pt_clust_6="13000.00000" pt_clust_7="13000.00000" pt_clust_8="13000.00000" pt_clust_9="30.41189"></scales>
<clustering>
<clus scale="   30.412">  1  9  2 -1</clus>
<clus scale="   73.683">  5  6 -1 -1</clus>
<clus scale="   75.184">  1  5  2 -1</clus>
<clus scale="   91.791">  7  8 -1 -1</clus>
<clus scale="   93.000">  2  5  1 -1</clus>
</clustering>
</event>
<event>
 9    1  0.1713970E-005  0.1134021E+03  0.7546771E-02  0.1255165E+00
         -2   -1    0    0    0  501 -0.00000000000E+00  0.00000000000E+00  0.11163620947E+03  0.11163620947E+03  0.00000000000E+00 0.  1.
          2   -1    0    0  502    0  0.00000000000E+00 -0.00000000000E+00 -0.18850125153E+03  0.18850125153E+03  0.00000000000E+00 0. -1.
         23    2    1    2    0    0  0.61506819741E+02 -0.52173887011E+01 -0.21842064049E+01  0.11174291076E+03  0.93120337883E+02 0.  0.
         23    2    1    2    0    0 -0.60523481226E+02 -0.36165436643E+02 -0.87993487437E+02  0.14491200334E+03  0.91025294799E+02 0.  0.
        -11    1    4    4    0    0 -0.18421965470E+02 -0.54662584733E+02 -0.79382263476E+02  0.98127013284E+02  0.00000000000E+00 0.  1.
         11    1    4    4    0    0 -0.42101515756E+02  0.18497148090E+02 -0.86112239609E+01  0.46784990055E+02  0.00000000000E+00 0. -1.
        -13    1    3    3    0    0  0.47551754178E+02  0.16420054960E+02 -0.41181232252E+02  0.65012932714E+02  0.00000000000E+00 0. -1.
         13    1    3    3    0    0  0.13955065563E+02 -0.21637443661E+02  0.38997025847E+02  0.46729978043E+02  0.00000000000E+00 0.  1.
         21    1    1    2  502  501 -0.98333851462E+00  0.41382825344E+02  0.13312651779E+02  0.43482546907E+02  0.00000000000E+00 0.  1.
<scales pt_clust_5="13000.00000" pt_clust_6="13000.00000" pt_clust_7="13000.00000" pt_clust_8="13000.00000" pt_clust_9="41.39451"></scales>
<clustering>
<clus scale="   41.395">  1  9  2 -1</clus>
<clus scale="   91.025">  5  6 -1 -1</clus>
<clus scale="   93.120">  7  8 -1 -1</clus>
<clus scale="  111.688">  2  5  1 -1</clus>
<clus scale="  111.688">  2  5  1 -1</clus>
</clustering>
</event>
<event>
 9    1  0.1713970E-005  0.1095073E+03  0.7546771E-02  0.1269661E+00
         -2   -1    0    0    0  501 -0.00000000000E+00  0.00000000000E+00  0.86473773838E+02  0.86473773838E+02  0.00000000000E+00 0.  1.
          2   -1    0    0  502    0  0.00000000000E+00 -0.00000000000E+00 -0.19088352780E+03  0.19088352780E+03  0.00000000000E+00 0. -1.
         23    2    1    2    0    0 -0.18214679334E+02 -0.27357017842E+02 -0.59431803349E+02  0.11211245448E+03  0.89201357790E+02 0.  0.
         23    2    1    2    0    0  0.28896547607E+02  0.81651339214E+00 -0.67426431501E+02  0.12887954804E+03  0.10596196053E+03 0.  0.
        -11    1    4    4    0    0  0.46801462646E+02  0.11575700159E+02  0.95246908863E+01  0.49143600564E+02  0.00000000000E+00 0.  1.
         11    1    4    4    0    0 -0.17904915039E+02 -0.10759186767E+02 -0.76951122388E+02  0.79735947471E+02  0.00000000000E+00 0. -1.
        -13    1    3    3    0    0 -0.17922571075E+02  0.17922609634E+02 -0.61773597043E+02  0.66771369476E+02  0.00000000000E+00 0. -1.
         13    1    3    3    0    0 -0.29210825868E+00 -0.45279627476E+02  0.23417936941E+01  0.45341085003E+02  0.00000000000E+00 0.  1.
         21    1    1    2  502  501 -0.10681868273E+02  0.26540504450E+02  0.22448480887E+02  0.36365299125E+02  0.00000000000E+00 0.  1.
<scales pt_clust_5="13000.00000" pt_clust_6="13000.00000" pt_clust_7="13000.00000" pt_clust_8="13000.00000" pt_clust_9="28.60945"></scales>
<clustering>
<clus scale="   28.609">  1  9  2 -1</clus>
<clus scale="   89.201">  7  8 -1 -1</clus>
<clus scale="   93.385">  1  7  2 -1</clus>
<clus scale="  105.962">  5  6 -1 -1</clus>
<clus scale="  109.507">  2  5  1 -1</clus>
</clustering>
</event>
<event>
 9    1  0.1713970E-005  0.1055653E+03  0.7546771E-02  0.1275521E+00
          1   -1    0    0  502    0  0.00000000000E+00  0.00000000000E+00  0.22835773509E+03  0.22835773509E+03  0.00000000000E+00 0. -1.
         -1   -1    0    0    0  501 -0.00000000000E+00 -0.00000000000E+00 -0.12096054051E+03  0.12096054051E+03  0.00000000000E+00 0.  1.
         23    2    1    2    0    0  0.34064926824E+02 -0.35382951743E+02  0.14201934763E+02  0.11594835140E+03  0.10406705880E+03 0.  0.
         23    2    1    2    0    0 -0.10396040813E+02  0.16933873929E+01  0.14219226096E+03  0.16937063489E+03  0.91415686085E+02 0.  0.
        -11    1    3    3    0    0  0.69869576052E+02 -0.15450195996E+02  0.20621312062E+02  0.74469488552E+02  0.00000000000E+00 0. -1.
         11    1    3    3    0    0 -0.35804649228E+02 -0.19932755747E+02 -0.64193772989E+01  0.41478862845E+02  0.00000000000E+00 0.  1.
        -13    1    4    4    0    0 -0.46037423291E+02 -0.17603746529E+02  0.59368819454E+02  0.77162121268E+02  0.00000000000E+00 0.  1.
         13    1    4    4    0    0  0.35641382478E+02  0.19297133922E+02  0.82823441502E+02  0.92208513624E+02  0.00000000000E+00 0. -1.
         21    1    1    2  502  501 -0.23668886011E+02  0.33689564350E+02 -0.48997001140E+02  0.63999289307E+02  0.00000000000E+00 0.  1.
<scales pt_clust_5="13000.00000" pt_clust_6="13000.00000" pt_clust_7="13000.00000" pt_clust_8="13000.00000" pt_clust_9="41.17284"></scales>
<clustering>
<clus scale="   41.173">  2  9  1 -1</clus>
<clus scale="   91.416">  7  8 -1 -1</clus>
<clus scale="   93.118">  1  7  2 -1</clus>
<clus scale="  104.067">  5  6 -1 -1</clus>
<clus scale="   93.118">  1  5  2 -1</clus>
</clustering>
</event>
<event>
 9    1  0.1713970E-005  0.1014345E+03  0.7546771E-02  0.1278653E+00
         -3   -1    0    0    0  501 -0.00000000000E+00  0.00000000000E+00  0.31569906784E+03  0.31569906784E+03  0.00000000000E+00 0.  1.
          3   -1    0    0  502    0  0.00000000000E+00 -0.00000000000E+00 -0.40290023825E+02  0.40290023825E+02  0.00000000000E+00 0. -1.
         23    2    1    2    0    0  0.34774274162E+01  0.39196944886E+02  0.12570877436E+03  0.16086914737E+03  0.92345512257E+02 0.  0.
         23    2    1    2    0    0  0.19561688305E+02 -0.42861246530E+02  0.11330506077E+03  0.15188987155E+03  0.89513966399E+02 0.  0.
        -11    1    4    4    0    0 -0.30820051487E+02  0.46598599054E+01  0.27048829053E+02  0.41270195313E+02  0.00000000000E+00 0.  1.
         11    1    4    4    0    0  0.50381739792E+02 -0.47521106436E+02  0.86256231719E+02  0.11061967624E+03  0.00000000000E+00 0. -1.
        -13    1    3    3    0    0  0.69171271735E+01  0.64270228704E+02  0.11777208411E+03  0.13434572097E+03  0.00000000000E+00 0.  1.
         13    1    3    3    0    0 -0.34396997573E+01 -0.25073283818E+02  0.79366902436E+01  0.26523426398E+02  0.00000000000E+00 0. -1.
         21    1    1    2  502  501 -0.23039115721E+02  0.36643016443E+01  0.36395208888E+02  0.43230072748E+02  0.00000000000E+00 0. -1.
<scales pt_clust_5="13000.00000" pt_clust_6="13000.00000" pt_clust_7="13000.00000" pt_clust_8="13000.00000" pt_clust_9="23.32869"></scales>
<clustering>
<clus scale="   23.329">  1  9  2 -1</clus>
<clus scale="   89.514">  5  6 -1 -1</clus>
<clus scale="   92.346">  7  8 -1 -1</clus>
<clus scale="   98.864">  2  5  1 -1</clus>
<clus scale="   98.864">  2  5  1 -1</clus>
</clustering>
</event>
<event>
 9    1  0.1713970E-005  0.1144351E+03  0.7546771E-02  0.1253665E+00
          2   -1    0    0  502    0  0.00000000000E+00  0.00000000000E+00  0.10400496953E+04  0.10400496953E+04  0.00000000000E+00 0. -1.
         -2   -1    0    0    0  501 -0.00000000000E+00 -0.00000000000E+00 -0.37043235820E+02  0.37043235820E+02  0.00000000000E+00 0.  1.
         23    2    1    2    0    0 -0.17584990009E+02  0.65200846054E+02  0.41110122173E+03  0.42672519073E+03  0.92356871401E+02 0.  0.
         23    2    1    2    0    0 -0.55874905919E+02 -0.62784022518E+02  0.55450207813E+03  0.56789839037E+03  0.89287112964E+02 0.  0.
        -11    1    3    3    0    0 -0.23740322964E+02 -0.14827500824E+02  0.55267760232E+02  0.61951457094E+02  0.00000000000E+00 0. -1.
         11    1    3    3    0    0  0.61553329552E+01  0.80028346878E+02  0.35583346150E+03  0.36477373364E+03  0.00000000000E+00 0.  1.
        -13    1    4    4    0    0 -0.80334197769E+02 -0.52732945026E+02  0.42608265598E+03  0.43678458827E+03  0.00000000000E+00 0. -1.
         13    1    4    4    0    0  0.24459291850E+02 -0.10051077492E+02  0.12841942215E+03  0.13111380210E+03  0.00000000000E+00 0.  1.
         21    1    1    2  502  501  0.73459895928E+02 -0.24168235360E+01  0.37403159650E+02  0.82469350049E+02  0.00000000000E+00 0.  1.
<scales pt_clust_5="13000.00000" pt_clust_6="13000.00000" pt_clust_7="13000.00000" pt_clust_8="13000.00000" pt_clust_9="73.49964"></scales>
<clustering>
<clus scale="   73.500">  2  9  1 -1</clus>
<clus scale="   89.287">  7  8 -1 -1</clus>
<clus scale="   92.357">  5  6 -1 -1</clus>
<clus scale="  111.972">  1  7  2 -1</clus>
<clus scale="  111.972">  1  5  2 -1</clus>
</clustering>
</event>
<event>
 9    1  0.1713970E-005  0.9574166E+02  0.7546771E-02  0.1290707E+00
          1   -1    0    0  502    0  0.00000000000E+00  0.00000000000E+00  0.11944189537E+03  0.11944189537E+03  0.00000000000E+00 0. -1.
         -1   -1    0    0    0  501 -0.00000000000E+00 -0.00000000000E+00 -0.11098550561E+03  0.11098550561E+03  0.00000000000E+00 0.  1.
         23    2    1    2    0    0 -0.11846105877E+02  0.98667013117E+01  0.15596254212E+00  0.91550635472E+02  0.90243074592E+02 0.  0.
         23    2    1    2    0    0 -0.18756616134E+01 -0.36763813290E+02  0.27336861803E+02  0.10318184462E+03  0.92434262971E+02 0.  0.
        -13    1    4    4    0    0  0.29423058752E+02  0.33037894220E+01 -0.18345232427E+02  0.34830718679E+02  0.00000000000E+00 0.  1.
         13    1    4    4    0    0 -0.31298720366E+02 -0.40067602712E+02  0.45682094230E+02  0.68351125937E+02  0.00000000000E+00 0. -1.
        -13    1    3    3    0    0  0.13416186420E+02 -0.26870037530E+02  0.26252944720E+02  0.39889974698E+02  0.00000000000E+00 0.  1.
         13    1    3    3    0    0 -0.25262292298E+02  0.36736738842E+02 -0.26096982178E+02  0.51660660774E+02  0.00000000000E+00 0. -1.
         21    1    1    2  502  501  0.13721767491E+02  0.26897111978E+02 -0.19036434587E+02  0.35694920894E+02  0.00000000000E+00 0.  1.
<scales pt_clust_5="13000.00000" pt_clust_6="13000.00000" pt_clust_7="13000.00000" pt_clust_8="13000.00000" pt_clust_9="30.19506"></scales>
<clustering>
<clus scale="   30.195">  2  9  1 -1</clus>
<clus scale="   90.243">  7  8 -1 -1</clus>
<clus scale="   92.434">  5  6 -1 -1</clus>
<clus scale="   93.628">  2  7  1 -1</clus>
<clus scale="   95.742">  1  5  2 -1</clus>
</clustering>
</event>
<event>
 9    1  0.1713970E-005  0.2963903E+03  0.7546771E-02  0.1087065E+00
          1   -1    0    0  502    0  0.00000000000E+00  0.00000000000E+00  0.15212232345E+04  0.15212232345E+04  0.00000000000E+00 0. -1.
         -1   -1    0    0    0  501 -0.00000000000E+00 -0.00000000000E+00 -0.68026864261E+02  0.68026864261E+02  0.00000000000E+00 0.  1.
         23    2    1    2    0    0 -0.85983123512E+02  0.28142238632E+03  0.72821734033E+03  0.79069776014E+03  0.91163567783E+02 0.  0.
         23    2    1    2    0    0  0.98615535881E+02 -0.25282099515E+03  0.70630480243E+03  0.76213332998E+03  0.91308593452E+02 0.  0.
        -13    1    3    3    0    0 -0.71266768299E+02  0.19400794812E+03  0.60176426906E+03  0.63626902464E+03  0.00000000000E+00 0. -1.
         13    1    3    3    0    0 -0.14716355212E+02  0.87414438197E+02  0.12645307126E+03  0.15442873550E+03  0.00000000000E+00 0.  1.
        -13    1    4    4    0    0  0.37607177231E+02 -0.16284625876E+03  0.32255888990E+03  0.36328699567E+03  0.00000000000E+00 0.  1.
         13    1    4    4    0    0  0.61008358650E+02 -0.89974736387E+02  0.38374591253E+03  0.39884633431E+03  0.00000000000E+00 0. -1.
         21    1    1    2  502  501 -0.12632412369E+02 -0.28601391175E+02  0.18674227535E+02  0.36419008682E+02  0.00000000000E+00 0.  1.
<scales pt_clust_5="13000.00000" pt_clust_6="13000.00000" pt_clust_7="13000.00000" pt_clust_8="13000.00000" pt_clust_9="31.26687"></scales>
<clustering>
<clus scale="   31.267">  2  9  1 -1</clus>
<clus scale="   91.164">  5  6 -1 -1</clus>
<clus scale="   91.309">  7  8 -1 -1</clus>
<clus scale="  296.346">  2  5  1 -1</clus>
<clus scale="  296.390">  1  5  2 -1</clus>
</clustering>
</event>
<event>
 9    1  0.1713970E-005  0.9430445E+02  0.7546771E-02  0.1295140E+00
         -1   -1    0    0    0  501 -0.00000000000E+00  0.00000000000E+00  0.86646333926E+03  0.86646333926E+03  0.00000000000E+00 0.  1.
          1   -1    0    0  502    0  0.00000000000E+00 -0.00000000000E+00 -0.56390951867E+02  0.56390951867E+02  0.00000000000E+00 0. -1.
         23    2    1    2    0    0  0.22739778462E+02  0.56398487183E+02  0.23138406347E+03  0.25636267515E+03  0.92115956810E+02 0.  0.
         23    2    1    2    0    0 -0.91599758505E+01  0.32990337325E+02  0.14915232496E+02  0.95514495948E+02  0.87910677744E+02 0.  0.
        -11    1    3    3    0    0 -0.35260714880E+02  0.12758876650E+02  0.70130083155E+02  0.79525690884E+02  0.00000000000E+00 0.  1.
         11    1    3    3    0    0  0.58000493343E+02  0.43639610533E+02  0.16125398032E+03  0.17683698426E+03  0.00000000000E+00 0. -1.
        -13    1    4    4    0    0 -0.47636695526E+02  0.78984700946E+01  0.52330360884E+01  0.48569797788E+02  0.00000000000E+00 0.  1.
         13    1    4    4    0    0  0.38476719675E+02  0.25091867231E+02  0.96821964079E+01  0.46944698160E+02  0.00000000000E+00 0. -1.
         21    1    1    2  502  501 -0.13579802612E+02 -0.89388824508E+02  0.56377309143E+03  0.57097712004E+03  0.00000000000E+00 0.  1.
<scales pt_clust_5="13000.00000" pt_clust_6="13000.00000" pt_clust_7="13000.00000" pt_clust_8="13000.00000" pt_clust_9="90.41445"></scales>
<clustering>
<clus scale="   87.911">  7  8 -1 -1</clus>
<clus scale="   90.414">  1  9  2 -1</clus>
<clus scale="   90.201">  2  7  1 -1</clus>
<clus scale="   92.116">  5  6 -1 -1</clus>
<clus scale="   90.201">  2  5  1 -1</clus>
</clustering>
</event>
<event>
 9    1  0.1713970E-005  0.9650704E+02  0.7546771E-02  0.1288524E+00
         -1   -1    0    0    0  501 -0.00000000000E+00  0.00000000000E+00  0.25202382961E+03  0.25202382961E+03  0.00000000000E+00 0.  1.
          1   -1    0    0  502    0  0.00000000000E+00 -0.00000000000E+00 -0.72286743035E+02  0.72286743035E+02  0.00000000000E+00 0. -1.
         23    2    1    2    0    0  0.94445864474E+01 -0.24379184549E+02  0.16345761196E+03  0.18918155161E+03  0.91584516753E+02 0.  0.
         23    2    1    2    0    0  0.17213508664E+02  0.22964602201E+02 -0.98971353208E+01  0.97740921515E+02  0.92906709210E+02 0.  0.
        -13    1    4    4    0    0  0.36114824404E+02  0.22671258283E+01  0.31345953568E+02  0.47874724086E+02  0.00000000000E+00 0.  1.
         13    1    4    4    0    0 -0.18901315740E+02  0.20697476373E+02 -0.41243088889E+02  0.49866197429E+02  0.00000000000E+00 0. -1.
        -13    1    3    3    0    0 -0.27013364279E+02  0.15430244352E+02  0.22943329496E+02  0.38655021133E+02  0.00000000000E+00 0. -1.
         13    1    3    3    0    0  0.36457950726E+02 -0.39809428901E+02  0.14051428246E+03  0.15052653048E+03  0.00000000000E+00 0.  1.
         21    1    1    2  502  501 -0.26658095111E+02  0.14145823479E+01  0.26176609941E+02  0.37388099526E+02  0.00000000000E+00 0.  1.
<scales pt_clust_5="13000.00000" pt_clust_6="13000.00000" pt_clust_7="13000.00000" pt_clust_8="13000.00000" pt_clust_9="26.69560"></scales>
<clustering>
<clus scale="   26.696">  1  9  2 -1</clus>
<clus scale="   91.585">  7  8 -1 -1</clus>
<clus scale="   92.907">  5  6 -1 -1</clus>
<clus scale="   95.235">  1  7  2 -1</clus>
<clus scale="   96.507">  2  5  1 -1</clus>
</clustering>
</event>
<event>
 9    1  0.1713970E-005  0.9836951E+02  0.7546771E-02  0.1286046E+00
          1   -1    0    0  502    0  0.00000000000E+00  0.00000000000E+00  0.50134050920E+03  0.50134050920E+03  0.00000000000E+00 0. -1.
         -1   -1    0    0    0  501 -0.00000000000E+00 -0.00000000000E+00 -0.27264860616E+02  0.27264860616E+02  0.00000000000E+00 0.  1.
         23    2    1    2    0    0 -0.30266873732E+02  0.13673560829E+02  0.16891482565E+03  0.19573597293E+03  0.93152041643E+02 0.  0.
         23    2    1    2    0    0  0.32358849439E+02  0.81904179527E+01  0.29256771327E+03  0.30755149133E+03  0.88757393447E+02 0.  0.
        -11    1    4    4    0    0  0.53556957802E+02  0.16312803041E+02  0.26924748583E+03  0.27500666156E+03  0.00000000000E+00 0. -1.
         11    1    4    4    0    0 -0.21198108364E+02 -0.81223850881E+01  0.23320227435E+02  0.32544829779E+02  0.00000000000E+00 0.  1.
        -13    1    3    3    0    0 -0.50338383611E+02  0.33185611852E+02  0.67399527386E+02  0.90431930149E+02  0.00000000000E+00 0.  1.
         13    1    3    3    0    0  0.20071509879E+02 -0.19512051023E+02  0.10151529827E+03  0.10530404278E+03  0.00000000000E+00 0. -1.
         21    1    1    2  502  501 -0.20919757068E+01 -0.21863978781E+02  0.12593109660E+02  0.25317905550E+02  0.00000000000E+00 0.  1.
<scales pt_clust_5="13000.00000" pt_clust_6="13000.00000" pt_clust_7="13000.00000" pt_clust_8="13000.00000" pt_clust_9="21.96383"></scales>
<clustering>
<clus scale="   21.964">  2  9  1 -1</clus>
<clus scale="   88.757">  5  6 -1 -1</clus>
<clus scale="   93.152">  7  8 -1 -1</clus>
<clus scale="   94.219">  1  5  2 -1</clus>
<clus scale="   94.219">  1  5  2 -1</clus>
</clustering>
</event>
<event>
 9    1  0.1713970E-005  0.9452455E+02  0.7546771E-02  0.1293782E+00
         -1   -1    0    0    0  501 -0.00000000000E+00  0.00000000000E+00  0.45223128299E+03  0.45223128299E+03  0.00000000000E+00 0.  1.
          1   -1    0    0  502    0  0.00000000000E+00 -0.00000000000E+00 -0.42135386261E+02  0.42135386261E+02  0.00000000000E+00 0. -1.
         23    2    1    2    0    0  0.36232283952E+02 -0.16798130614E+02  0.23731360341E+03  0.25690319536E+03  0.89925245788E+02 0.  0.
         23    2    1    2    0    0 -0.11177145266E+02  0.61113321549E+01  0.39647959920E+02  0.10157116960E+03  0.92641593310E+02 0.  0.
        -11    1    3    3    0    0  0.61662144084E+02  0.64639867523E+01  0.17551695150E+03  0.18614565104E+03  0.00000000000E+00 0. -1.
         11    1    3    3    0    0 -0.25429860132E+02 -0.23262117366E+02  0.61796651916E+02  0.70757544324E+02  0.00000000000E+00 0.  1.
        -13    1    4    4    0    0  0.13831081443E+02 -0.20711490016E+02  0.56098164839E+02  0.61378080215E+02  0.00000000000E+00 0.  1.
         13    1    4    4    0    0 -0.25008226710E+02  0.26822822171E+02 -0.16450204920E+02  0.40193089384E+02  0.00000000000E+00 0. -1.
         21    1    1    2  502  501 -0.25055138685E+02  0.10686798459E+02  0.13313433340E+03  0.13589230429E+03  0.00000000000E+00 0.  1.
<scales pt_clust_5="13000.00000" pt_clust_6="13000.00000" pt_clust_7="13000.00000" pt_clust_8="13000.00000" pt_clust_9="27.23908"></scales>
<clustering>
<clus scale="   27.239">  1  9  2 -1</clus>
<clus scale="   89.925">  5  6 -1 -1</clus>
<clus scale="   91.864">  1  5  2 -1</clus>
<clus scale="   92.642">  7  8 -1 -1</clus>
<clus scale="   94.525">  2  5  1 -1</clus>
</clustering>
</event>
<event>
 9    1  0.1713970E-005  0.9729593E+02  0.7546771E-02  0.1286517E+00
          1   -1    0    0  502    0  0.00000000000E+00  0.00000000000E+00  0.21080066564E+03  0.21080066564E+03  0.00000000000E+00 0. -1.
         -1   -1    0    0    0  501 -0.00000000000E+00 -0.00000000000E+00 -0.88329594198E+02  0.88329594198E+02  0.00000000000E+00 0.  1.
         23    2    1    2    0    0  0.39276837500E+02  0.38491242280E+02 -0.72897312187E+01  0.10783791184E+03  0.92475020153E+02 0.  0.
         23    2    1    2    0    0 -0.21963059359E+02 -0.97463309044E+01  0.12582154988E+03  0.15750544882E+03  0.91648988283E+02 0.  0.
        -11    1    3    3    0    0  0.37207646367E+02  0.67396376587E+02 -0.13607099002E+02  0.78178217353E+02  0.00000000000E+00 0.  1.
         11    1    3    3    0    0  0.20691911329E+01 -0.28905134308E+02  0.63173677834E+01  0.29659694486E+02  0.00000000000E+00 0. -1.
        -13    1    4    4    0    0 -0.42742621060E+02  0.87540950750E+01  0.12181991079E+03  0.12939728166E+03  0.00000000000E+00 0. -1.
         13    1    4    4    0    0  0.20779561701E+02 -0.18500425979E+02  0.40016390848E+01  0.28108167163E+02  0.00000000000E+00 0.  1.
         21    1    1    2  502  501 -0.17313778141E+02 -0.28744911375E+02  0.39392527863E+01  0.33786899177E+02  0.00000000000E+00 0.  1.
<scales pt_clust_5="13000.00000" pt_clust_6="13000.00000" pt_clust_7="13000.00000" pt_clust_8="13000.00000" pt_clust_9="33.55647"></scales>
<clustering>
<clus scale="   33.556">  2  9  1 -1</clus>
<clus scale="   91.649">  7  8 -1 -1</clus>
<clus scale="   92.475">  5  6 -1 -1</clus>
<clus scale="   96.511">  1  7  2 -1</clus>
<clus scale="   96.511">  1  5  2 -1</clus>
</clustering>
</event>
<event>
 9    1  0.1713970E-005  0.1110843E+03  0.7546771E-02  0.1258769E+00
         -1   -1    0    0    0  501 -0.00000000000E+00  0.00000000000E+00  0.50049789471E+02  0.50049789471E+02  0.00000000000E+00 0.  1.
          1   -1    0    0  502    0  0.00000000000E+00 -0.00000000000E+00 -0.37498639266E+03  0.37498639266E+03  0.00000000000E+00 0. -1.
         23    2    1    2    0    0 -0.40042475240E+02  0.62598108576E+02 -0.72318008870E+02  0.13796951681E+03  0.91015219278E+02 0.  0.
         23    2    1    2    0    0  0.21381948170E+02 -0.55221075823E+02 -0.23936006926E+03  0.26301621066E+03  0.91529937140E+02 0.  0.
        -11    1    3    3    0    0  0.29553896452E+02  0.20491317812E+02 -0.25853344518E+02  0.44291334637E+02  0.00000000000E+00 0. -1.
         11    1    3    3    0    0 -0.69596371692E+02  0.42106790764E+02 -0.46464664352E+02  0.93678182169E+02  0.00000000000E+00 0.  1.
        -13    1    4    4    0    0  0.56936567439E+02 -0.29807501333E+02 -0.15987523315E+03  0.17230887970E+03  0.00000000000E+00 0. -1.
         13    1    4    4    0    0 -0.35554619268E+02 -0.25413574490E+02 -0.79484836109E+02  0.90707330966E+02  0.00000000000E+00 0.  1.
         21    1    1    2  502  501  0.18660527069E+02 -0.73770327531E+01 -0.13258525063E+02  0.24050454665E+02  0.00000000000E+00 0. -1.
<scales pt_clust_5="13000.00000" pt_clust_6="13000.00000" pt_clust_7="13000.00000" pt_clust_8="13000.00000" pt_clust_9="20.06579"></scales>
<clustering>
<clus scale="   20.066">  1  9  2 -1</clus>
<clus scale="   91.015">  5  6 -1 -1</clus>
<clus scale="   91.530">  7  8 -1 -1</clus>
<clus scale="  110.661">  1  5  2 -1</clus>
<clus scale="  111.084">  2  5  1 -1</clus>
</clustering>
</event>
<event>
 9    1  0.1713970E-005  0.1320161E+03  0.7546771E-02  0.1232776E+00
          2   -1    0    0  502    0  0.00000000000E+00  0.00000000000E+00  0.24175108587E+03  0.24175108587E+03  0.00000000000E+00 0. -1.
         -2   -1    0    0    0  501 -0.00000000000E+00 -0.00000000000E+00 -0.11104153757E+03  0.11104153757E+03  0.00000000000E+00 0.  1.
         23    2    1    2    0    0 -0.39122957993E+02 -0.42919257245E+02 -0.36453059559E+02  0.11522082779E+03  0.92597759807E+02 0.  0.
         23    2    1    2    0    0  0.41654292326E+02  0.67325319113E+02  0.15685145598E+03  0.21095632340E+03  0.11675792255E+03 0.  0.
        -11    1    4    4    0    0  0.45771037097E+01  0.74623372031E+02  0.33462496737E+02  0.81910537903E+02  0.00000000000E+00 0. -1.
         11    1    4    4    0    0  0.37077188616E+02 -0.72980529177E+01  0.12338895924E+03  0.12904578550E+03  0.00000000000E+00 0.  1.
        -13    1    3    3    0    0  0.11313247832E+02 -0.53290465426E+02 -0.45967287361E+01  0.54671685514E+02  0.00000000000E+00 0. -1.
         13    1    3    3    0    0 -0.50436205825E+02  0.10371208181E+02 -0.31856330823E+02  0.60549142278E+02  0.00000000000E+00 0.  1.
         21    1    1    2  502  501 -0.25313343328E+01 -0.24406061868E+02  0.10311151877E+02  0.26615472238E+02  0.00000000000E+00 0. -1.
<scales pt_clust_5="13000.00000" pt_clust_6="13000.00000" pt_clust_7="13000.00000" pt_clust_8="13000.00000" pt_clust_9="24.53698"></scales>
<clustering>
<clus scale="   24.537">  1  9  2 -1</clus>
<clus scale="   92.598">  7  8 -1 -1</clus>
<clus scale="  111.221">  2  7  1 -1</clus>
<clus scale="  116.758">  5  6 -1 -1</clus>
<clus scale="   24.537">  1  5  2 -1</clus>
</clustering>
</event>
<event>
 9    1  0.1713970E-005  0.1258513E+03  0.7546771E-02  0.1234364E+00
         -2   -1    0    0    0  501 -0.00000000000E+00  0.00000000000E+00  0.33298618657E+02  0.33298618657E+02  0.00000000000E+00 0.  1.
          2   -1    0    0  502    0  0.00000000000E+00 -0.00000000000E+00 -0.74545907262E+03  0.74545907262E+03  0.00000000000E+00 0. -1.
         23    2    1    2    0    0  0.40933741472E+02  0.50510602548E+02 -0.11872275088E+03  0.16286835126E+03  0.90576575922E+02 0.  0.
         23    2    1    2    0    0 -0.63429086265E+02 -0.66940801150E+02 -0.54016300358E+03  0.55577124315E+03  0.92743109899E+02 0.  0.
        -11    1    4    4    0    0 -0.87627121756E+02 -0.55201447691E+02 -0.41207326142E+03  0.42488832070E+03  0.00000000000E+00 0.  1.
         11    1    4    4    0    0  0.24198035491E+02 -0.11739353460E+02 -0.12808974217E+03  0.13088292245E+03  0.00000000000E+00 0. -1.
        -11    1    3    3    0    0  0.57064387578E+02  0.37261671419E+02 -0.12385926461E+03  0.14137147491E+03  0.00000000000E+00 0. -1.
         11    1    3    3    0    0 -0.16130646107E+02  0.13248931129E+02  0.51365137294E+01  0.21496876359E+02  0.00000000000E+00 0.  1.
         21    1    1    2  502  501  0.22495344793E+02  0.16430198602E+02 -0.53274699492E+02  0.60118096855E+02  0.00000000000E+00 0. -1.
<scales pt_clust_5="13000.00000" pt_clust_6="13000.00000" pt_clust_7="13000.00000" pt_clust_8="13000.00000" pt_clust_9="27.85663"></scales>
<clustering>
<clus scale="   27.857">  1  9  2 -1</clus>
<clus scale="   90.577">  7  8 -1 -1</clus>
<clus scale="   92.743">  5  6 -1 -1</clus>
<clus scale="  124.263">  1  7  2 -1</clus>
<clus scale="  125.851">  2  5  1 -1</clus>
</clustering>
</event>
<event>
 9    1  0.1713970E-005  0.9540911E+02  0.7546771E-02  0.1292312E+00
         -1   -1    0    0    0  501 -0.00000000000E+00  0.00000000000E+00  0.49214747498E+03  0.49214747498E+03  0.00000000000E+00 0.  1.
          1   -1    0    0  502    0  0.00000000000E+00 -0.00000000000E+00 -0.24642826822E+02  0.24642826822E+02  0.00000000000E+00 0. -1.
         23    2    1    2    0    0 -0.14268933772E+01  0.14189651881E+02  0.22400457496E+03  0.24182030388E+03  0.89975705162E+02 0.  0.
         23    2    1    2    0    0 -0.27566499954E+02 -0.87304420402E+01  0.17999823736E+03  0.20494926540E+03  0.93641355159E+02 0.  0.
        -11    1    3    3    0    0 -0.44883009494E+02  0.15880382460E+02  0.11739724014E+03  0.12668379170E+03  0.00000000000E+00 0.  1.
         11    1    3    3    0    0  0.43456116117E+02 -0.16907305792E+01  0.10660733483E+03  0.11513651218E+03  0.00000000000E+00 0. -1.
        -11    1    4    4    0    0  0.29586947195E+02  0.11578438963E+02  0.97549993351E+02  0.10259361041E+03  0.00000000000E+00 0.  1.
         11    1    4    4    0    0 -0.57153447150E+02 -0.20308881003E+02  0.82448244012E+02  0.10235565499E+03  0.00000000000E+00 0. -1.
         21    1    1    2  502  501  0.28993393332E+02 -0.54592098411E+01  0.63501835832E+02  0.70020732523E+02  0.00000000000E+00 0. -1.
<scales pt_clust_5="13000.00000" pt_clust_6="13000.00000" pt_clust_7="13000.00000" pt_clust_8="13000.00000" pt_clust_9="29.50288"></scales>
<clustering>
<clus scale="   29.503">  1  9  2 -1</clus>
<clus scale="   89.976">  5  6 -1 -1</clus>
<clus scale="   91.814">  1  5  2 -1</clus>
<clus scale="   93.641">  7  8 -1 -1</clus>
<clus scale="   95.409">  2  5  1 -1</clus>
</clustering>
</event>
<event>
 9    1  0.1713970E-005  0.1322724E+03  0.7546771E-02  0.1224798E+00
         -1   -1    0    0    0  501 -0.00000000000E+00  0.00000000000E+00  0.72789212252E+02  0.72789212252E+02  0.00000000000E+00 0.  1.
          1   -1    0    0  502    0  0.00000000000E+00 -0.00000000000E+00 -0.54027532819E+03  0.54027532819E+03  0.00000000000E+00 0. -1.
         23    2    1    2    0    0  0.71586601692E+02 -0.83288024280E+02 -0.32065891718E+02  0.14560906042E+03  0.90067977301E+02 0.  0.
         23    2    1    2    0    0 -0.53467780617E+02  0.74525820739E+02 -0.42545414691E+03  0.44499683837E+03  0.92725689587E+02 0.  0.
        -13    1    4    4    0    0  0.22912876246E+02 -0.76485968325E+00 -0.64954387302E+02  0.68881473111E+02  0.00000000000E+00 0.  1.
         13    1    4    4    0    0 -0.76380656863E+02  0.75290680423E+02 -0.36049975961E+03  0.37611536526E+03  0.00000000000E+00 0. -1.
        -13    1    3    3    0    0  0.16707262285E+02  0.18949167007E+02 -0.11534522503E+02  0.27771365698E+02  0.00000000000E+00 0. -1.
         13    1    3    3    0    0  0.54879339407E+02 -0.10223719129E+03 -0.20531369214E+02  0.11783769472E+03  0.00000000000E+00 0.  1.
         21    1    1    2  502  501 -0.18118821076E+02  0.87622035409E+01 -0.99660773081E+01  0.22458641655E+02  0.00000000000E+00 0. -1.
<scales pt_clust_5="13000.00000" pt_clust_6="13000.00000" pt_clust_7="13000.00000" pt_clust_8="13000.00000" pt_clust_9="20.12630"></scales>
<clustering>
<clus scale="   20.126">  1  9  2 -1</clus>
<clus scale="   90.068">  7  8 -1 -1</clus>
<clus scale="   92.726">  5  6 -1 -1</clus>
<clus scale="  130.423">  1  7  2 -1</clus>
<clus scale="  132.272">  2  5  1 -1</clus>
</clustering>
</event>
<event>
 9    1  0.1713970E-005  0.1628407E+03  0.7546771E-02  0.1185563E+00
          2   -1    0    0  502    0  0.00000000000E+00  0.00000000000E+00  0.55342932576E+02  0.55342932576E+02  0.00000000000E+00 0. -1.
         -2   -1    0    0    0  501 -0.00000000000E+00 -0.00000000000E+00 -0.75361827013E+03  0.75361827013E+03  0.00000000000E+00 0.  1.
         23    2    1    2    0    0 -0.14836091972E+03  0.57222737871E+02 -0.45651535933E+03  0.49127169924E+03  0.87499742493E+02 0.  0.
         23    2    1    2    0    0  0.12040902362E+03 -0.47269635371E+02 -0.13388230846E+03  0.20580579429E+03  0.87742811960E+02 0.  0.
        -11    1    3    3    0    0 -0.99677191119E+02  0.79861989683E+02 -0.31450906265E+03  0.33945460715E+03  0.00000000000E+00 0.  1.
         11    1    3    3    0    0 -0.48683728597E+02 -0.22639251812E+02 -0.14200629668E+03  0.15181709209E+03  0.00000000000E+00 0. -1.
        -13    1    4    4    0    0  0.68788955927E+02 -0.71549184477E+02 -0.86003500596E+02  0.13133091171E+03  0.00000000000E+00 0. -1.
         13    1    4    4    0    0  0.51620067688E+02  0.24279549106E+02 -0.47878807861E+02  0.74474882579E+02  0.00000000000E+00 0.  1.
         21    1    1    2  502  501  0.27951896101E+02 -0.99531025001E+01 -0.10787766976E+03  0.11188370917E+03  0.00000000000E+00 0. -1.
<scales pt_clust_5="13000.00000" pt_clust_6="13000.00000" pt_clust_7="13000.00000" pt_clust_8="13000.00000" pt_clust_9="29.67108"></scales>
<clustering>
<clus scale="   29.671">  2  9  1 -1</clus>
<clus scale="   87.500">  5  6 -1 -1</clus>
<clus scale="   87.743">  7  8 -1 -1</clus>
<clus scale="  162.710">  2  5  1 -1</clus>
<clus scale="  162.841">  1  5  2 -1</clus>
</clustering>
</event>
<event>
 9    1  0.4983207E-005  0.9257615E+02  0.7546771E-02  0.1298869E+00
         -3   -1    0    0    0  501 -0.00000000000E+00  0.00000000000E+00  0.56704263473E+03  0.56704263473E+03  0.00000000000E+00 0.  1.
          3   -1    0    0  502    0  0.00000000000E+00 -0.00000000000E+00 -0.94507260489E+02  0.94507260489E+02  0.00000000000E+00 0. -1.
         23    2    1    2    0    0 -0.37014943079E+02 -0.13759993706E+02  0.45343663471E+03  0.46432423564E+03  0.91830118545E+02 0.  0.
         23    2    1    2    0    0  0.99091699622E+01  0.30032864261E+01 -0.63795512374E+02  0.10935139322E+03  0.88207983892E+02 0.  0.
        -13    1    4    4    0    0 -0.36026955129E+02  0.13733886103E+02 -0.43128197754E+02  0.57849827700E+02  0.00000000000E+00 0.  1.
         13    1    4    4    0    0  0.45936125092E+02 -0.10730599677E+02 -0.20667314620E+02  0.51501565524E+02  0.00000000000E+00 0. -1.
        -13    1    3    3    0    0 -0.65842056601E+02 -0.98469895054E+01  0.37049061134E+03  0.37642453787E+03  0.00000000000E+00 0.  1.
         13    1    3    3    0    0  0.28827113522E+02 -0.39130042006E+01  0.82946023366E+02  0.87899697770E+02  0.00000000000E+00 0. -1.
         21    1    1    2  502  501  0.27105773117E+02  0.10756707280E+02  0.82894251903E+02  0.87874266349E+02  0.00000000000E+00 0. -1.
<scales pt_clust_5="13000.00000" pt_clust_6="13000.00000" pt_clust_7="13000.00000" pt_clust_8="13000.00000" pt_clust_9="29.16213"></scales>
<clustering>
<clus scale="   29.162">  1  9  2 -1</clus>
<clus scale="   88.208">  5  6 -1 -1</clus>
<clus scale="   88.984">  2  5  1 -1</clus>
<clus scale="   91.830">  7  8 -1 -1</clus>
<clus scale="   88.984">  2  5  1 -1</clus>
</clustering>
</event>
<event>
 9    1  0.1713970E-005  0.1007543E+03  0.7546771E-02  0.1278797E+00
          1   -1    0    0  502    0  0.00000000000E+00  0.00000000000E+00  0.16592963904E+03  0.16592963904E+03  0.00000000000E+00 0. -1.
         -1   -1    0    0    0  501 -0.00000000000E+00 -0.00000000000E+00 -0.10900194709E+03  0.10900194709E+03  0.00000000000E+00 0.  1.
         23    2    1    2    0    0 -0.24630997650E+02 -0.42703884846E+02 -0.96869032710E+01  0.10619981354E+03  0.93564183714E+02 0.  0.
         23    2    1    2    0    0  0.55987730000E+00  0.34379605136E+02  0.89976457298E+02  0.13417039144E+03  0.93400537258E+02 0.  0.
        -11    1    4    4    0    0  0.39099554970E+02 -0.75771572414E+01  0.52824875187E+02  0.66156299392E+02  0.00000000000E+00 0. -1.
         11    1    4    4    0    0 -0.38539677670E+02  0.41956762378E+02  0.37151582111E+02  0.68014092051E+02  0.00000000000E+00 0.  1.
        -13    1    3    3    0    0  0.74055795893E+01 -0.26942153548E+02  0.37663886602E+02  0.46896594768E+02  0.00000000000E+00 0. -1.
         13    1    3    3    0    0 -0.32036577239E+02 -0.15761731298E+02 -0.47350789873E+02  0.59303218769E+02  0.00000000000E+00 0.  1.
         21    1    1    2  502  501  0.24071120350E+02  0.83242797094E+01 -0.23361862078E+02  0.34561381155E+02  0.00000000000E+00 0. -1.
<scales pt_clust_5="13000.00000" pt_clust_6="13000.00000" pt_clust_7="13000.00000" pt_clust_8="13000.00000" pt_clust_9="25.46983"></scales>
<clustering>
<clus scale="   25.470">  2  9  1 -1</clus>
<clus scale="   93.401">  5  6 -1 -1</clus>
<clus scale="   93.564">  7  8 -1 -1</clus>
<clus scale="  100.602">  1  5  2 -1</clus>
<clus scale="  100.602">  1  5  2 -1</clus>
</clustering>
</event>
<event>
 9    1  0.1713970E-005  0.1042792E+03  0.7546771E-02  0.1271772E+00
          4   -1    0    0  502    0  0.00000000000E+00  0.00000000000E+00  0.16456738505E+03  0.16456738505E+03  0.00000000000E+00 0. -1.
         -4   -1    0    0    0  501 -0.00000000000E+00 -0.00000000000E+00 -0.13775305035E+03  0.13775305035E+03  0.00000000000E+00 0.  1.
         23    2    1    2    0    0  0.31083443972E+02  0.53461589286E+02 -0.64440883446E+02  0.12834915346E+03  0.92176763431E+02 0.  0.
         23    2    1    2    0    0 -0.35739449553E+01 -0.84570079409E+01  0.74954246830E+02  0.11876343337E+03  0.91664169235E+02 0.  0.
        -11    1    3    3    0    0  0.54913793545E+02  0.64354109044E+02 -0.52405978408E+02  0.99515640204E+02  0.00000000000E+00 0.  1.
         11    1    3    3    0    0 -0.23830349573E+02 -0.10892519758E+02 -0.12034905038E+02  0.28833513257E+02  0.00000000000E+00 0. -1.
        -11    1    4    4    0    0  0.24470141624E+02 -0.28220520447E+02  0.75736122301E+02  0.84446111969E+02  0.00000000000E+00 0.  1.
         11    1    4    4    0    0 -0.28044086580E+02  0.19763512506E+02 -0.78187547176E+00  0.34317321398E+02  0.00000000000E+00 0. -1.
         21    1    1    2  502  501 -0.27509499017E+02 -0.45004581345E+02  0.16300971312E+02  0.55207848571E+02  0.00000000000E+00 0. -1.
<scales pt_clust_5="13000.00000" pt_clust_6="13000.00000" pt_clust_7="13000.00000" pt_clust_8="13000.00000" pt_clust_9="52.74642"></scales>
<clustering>
<clus scale="   52.746">  1  9  2 -1</clus>
<clus scale="   91.664">  7  8 -1 -1</clus>
<clus scale="   92.177">  5  6 -1 -1</clus>
<clus scale="  103.826">  1  7  2 -1</clus>
<clus scale="   52.746">  1  5  2 -1</clus>
</clustering>
</event>
<event>
 9    1  0.1713970E-005  0.2743026E+03  0.7546771E-02  0.1098962E+00
         -1   -1    0    0    0  501 -0.00000000000E+00  0.00000000000E+00  0.68704847905E+03  0.68704847905E+03  0.00000000000E+00 0.  1.
          1   -1    0    0  502    0  0.00000000000E+00 -0.00000000000E+00 -0.12145148655E+03  0.12145148655E+03  0.00000000000E+00 0. -1.
         23    2    1    2    0    0 -0.11701214813E+03  0.22144619170E+03  0.30625376207E+03  0.40505709665E+03  0.86888584617E+02 0.  0.
         23    2    1    2    0    0  0.12755990296E+03 -0.24138116620E+03  0.24741237771E+03  0.37792809702E+03  0.84144908544E+02 0.  0.
        -13    1    4    4    0    0  0.57522944217E+02 -0.56968336269E+02  0.11385353183E+03  0.13970292466E+03  0.00000000000E+00 0.  1.
         13    1    4    4    0    0  0.70036958739E+02 -0.18441282993E+03  0.13355884588E+03  0.23822517236E+03  0.00000000000E+00 0. -1.
        -13    1    3    3    0    0 -0.11163927060E+03  0.14511665850E+03  0.17584881043E+03  0.25386014938E+03  0.00000000000E+00 0.  1.
         13    1    3    3    0    0 -0.53728775301E+01  0.76329533195E+02  0.13040495164E+03  0.15119694727E+03  0.00000000000E+00 0. -1.
         21    1    1    2  502  501 -0.10547754828E+02  0.19934974504E+02  0.11930852720E+02  0.25514771937E+02  0.00000000000E+00 0. -1.
<scales pt_clust_5="13000.00000" pt_clust_6="13000.00000" pt_clust_7="13000.00000" pt_clust_8="13000.00000" pt_clust_9="22.55346"></scales>
<clustering>
<clus scale="   22.553">  2  9  1 -1</clus>
<clus scale="   84.145">  5  6 -1 -1</clus>
<clus scale="   86.889">  7  8 -1 -1</clus>
<clus scale="  273.446">  2  5  1 -1</clus>
<clus scale="   22.553">  2  5  1 -1</clus>
</clustering>
</event>
<event>
 9    1  0.1713970E-005  0.9981265E+02  0.7546771E-02  0.1285982E+00
         -1   -1    0    0    0  501 -0.00000000000E+00  0.00000000000E+00  0.83256034752E+02  0.83256034752E+02  0.00000000000E+00 0.  1.
          1   -1    0    0  502    0  0.00000000000E+00 -0.00000000000E+00 -0.27301127153E+03  0.27301127153E+03  0.00000000000E+00 0. -1.
         23    2    1    2    0    0 -0.49458509061E+02 -0.11212504545E+02 -0.60760691723E+02  0.12004801049E+03  0.90265158212E+02 0.  0.
         23    2    1    2    0    0 -0.33680110578E+02 -0.97062631927E+01 -0.10045454213E+03  0.14586357275E+03  0.99782290147E+02 0.  0.
        -11    1    3    3    0    0  0.26178318708E+02 -0.91588825857E+01 -0.13600261255E+02  0.30889425485E+02  0.00000000000E+00 0.  1.
         11    1    3    3    0    0 -0.75636827769E+02 -0.20536219595E+01 -0.47160430468E+02  0.89158585004E+02  0.00000000000E+00 0. -1.
        -13    1    4    4    0    0 -0.60146015234E+02  0.11112363332E+02 -0.93104622218E+02  0.11139792837E+03  0.00000000000E+00 0. -1.
         13    1    4    4    0    0  0.26465904657E+02 -0.20818626525E+02 -0.73499199151E+01  0.34465644378E+02  0.00000000000E+00 0.  1.
         21    1    1    2  502  501  0.83138619639E+02  0.20918767738E+02 -0.28540002918E+02  0.90355723038E+02  0.00000000000E+00 0.  1.
<scales pt_clust_5="13000.00000" pt_clust_6="13000.00000" pt_clust_7="13000.00000" pt_clust_8="13000.00000" pt_clust_9="85.72995"></scales>
<clustering>
<clus scale="   85.730">  1  9  2 -1</clus>
<clus scale="   90.265">  5  6 -1 -1</clus>
<clus scale="   90.299">  1  5  2 -1</clus>
<clus scale="   99.782">  7  8 -1 -1</clus>
<clus scale="   99.813">  2  5  1 -1</clus>
</clustering>
</event>
<event>
 9    1  0.1713970E-005  0.1337712E+03  0.7546771E-02  0.1222189E+00
         -2   -1    0    0    0  501 -0.00000000000E+00  0.00000000000E+00  0.54293212595E+03  0.54293212595E+03  0.00000000000E+00 0.  1.
          2   -1    0    0  502    0  0.00000000000E+00 -0.00000000000E+00 -0.22345384563E+03  0.22345384563E+03  0.00000000000E+00 0. -1.
         23    2    1    2    0    0 -0.36162950546E+02  0.35775393520E+02  0.44739040233E+03  0.45925473330E+03  0.90383074676E+02 0.  0.
         23    2    1    2    0    0  0.56213620506E+02 -0.82821694615E+02 -0.18576021481E+03  0.22991863792E+03  0.91303441486E+02 0.  0.
        -11    1    3    3    0    0 -0.53182260129E+02  0.54531577576E+02  0.37217128816E+03  0.37988618490E+03  0.00000000000E+00 0.  1.
         11    1    3    3    0    0  0.17019309583E+02 -0.18756184056E+02  0.75219114166E+02  0.79368548399E+02  0.00000000000E+00 0. -1.
        -13    1    4    4    0    0  0.42551602788E+02  0.82424757087E+01 -0.56357246568E+02  0.71096529777E+02  0.00000000000E+00 0.  1.
         13    1    4    4    0    0  0.13662017717E+02 -0.91064170324E+02 -0.12940296825E+03  0.15882210815E+03  0.00000000000E+00 0. -1.
         21    1    1    2  502  501 -0.20050669959E+02  0.47046301095E+02  0.57848092810E+02  0.77212600360E+02  0.00000000000E+00 0.  1.
<scales pt_clust_5="13000.00000" pt_clust_6="13000.00000" pt_clust_7="13000.00000" pt_clust_8="13000.00000" pt_clust_9="51.14082"></scales>
<clustering>
<clus scale="   51.141">  1  9  2 -1</clus>
<clus scale="   90.383">  5  6 -1 -1</clus>
<clus scale="   91.303">  7  8 -1 -1</clus>
<clus scale="  133.145">  1  5  2 -1</clus>
<clus scale="  133.771">  2  5  1 -1</clus>
</clustering>
</event>
<event>
 9    1  0.1713970E-005  0.2410997E+03  0.7546771E-02  0.1119276E+00
          1   -1    0    0  502    0  0.00000000000E+00  0.00000000000E+00  0.28334368816E+03  0.28334368816E+03  0.00000000000E+00 0. -1.
         -1   -1    0    0    0  501 -0.00000000000E+00 -0.00000000000E+00 -0.24037598314E+03  0.24037598314E+03  0.00000000000E+00 0.  1.
         23    2    1    2    0    0 -0.13779032607E+03  0.15036365744E+03 -0.24158581024E+02  0.22429994629E+03  0.90174416729E+02 0.  0.
         23    2    1    2    0    0  0.14841113521E+03 -0.18442733166E+03  0.68881774863E+02  0.26369554232E+03  0.93548567142E+02 0.  0.
        -13    1    3    3    0    0 -0.11969966983E+03  0.13978191308E+03  0.99149945396E+01  0.18429677506E+03  0.00000000000E+00 0.  1.
         13    1    3    3    0    0 -0.18090656247E+02  0.10581744361E+02 -0.34073575564E+02  0.40003171235E+02  0.00000000000E+00 0. -1.
        -13    1    4    4    0    0  0.98698126296E+02 -0.17819424323E+03  0.47175473357E+02  0.20909336130E+03  0.00000000000E+00 0. -1.
         13    1    4    4    0    0  0.49713008915E+02 -0.62330884280E+01  0.21706301507E+02  0.54602181018E+02  0.00000000000E+00 0.  1.
         21    1    1    2  502  501 -0.10620809138E+02  0.34063674220E+02 -0.17554888188E+01  0.35724182694E+02  0.00000000000E+00 0.  1.
<scales pt_clust_5="13000.00000" pt_clust_6="13000.00000" pt_clust_7="13000.00000" pt_clust_8="13000.00000" pt_clust_9="35.68102"></scales>
<clustering>
<clus scale="   35.681">  2  9  1 -1</clus>
<clus scale="   90.174">  5  6 -1 -1</clus>
<clus scale="   93.549">  7  8 -1 -1</clus>
<clus scale="  239.811">  2  5  1 -1</clus>
<clus scale="  241.100">  1  5  2 -1</clus>
</clustering>
</event>
<event>
 9    1  0.1713970E-005  0.1348736E+03  0.7546771E-02  0.1221241E+00
         -3   -1    0    0    0  501 -0.00000000000E+00  0.00000000000E+00  0.50147299799E+03  0.50147299799E+03  0.00000000000E+00 0.  1.
          3   -1    0    0  502    0  0.00000000000E+00 -0.00000000000E+00 -0.11169031943E+03  0.11169031943E+03  0.00000000000E+00 0. -1.
         23    2    1    2    0    0  0.79906586399E+02 -0.85443233158E+02  0.28321131079E+03  0.31851477133E+03  0.86933332818E+02 0.  0.
         23    2    1    2    0    0 -0.73664178912E+02  0.63751378398E+02 -0.45786776713E+02  0.14062741634E+03  0.90493048372E+02 0.  0.
        -13    1    3    3    0    0  0.40854655152E+02 -0.83376109493E+02  0.25174332246E+03  0.26831954622E+03  0.00000000000E+00 0.  1.
         13    1    3    3    0    0  0.39051931246E+02 -0.20671236642E+01  0.31467988332E+02  0.50195225111E+02  0.00000000000E+00 0. -1.
        -13    1    4    4    0    0 -0.33445062083E+02  0.64023068903E+02 -0.63971270992E+02  0.96487559000E+02  0.00000000000E+00 0. -1.
         13    1    4    4    0    0 -0.40219116828E+02 -0.27169050427E+00  0.18184494279E+02  0.44139857344E+02  0.00000000000E+00 0.  1.
         21    1    1    2  502  501 -0.62424074867E+01  0.21691854759E+02  0.15235814448E+03  0.15402112973E+03  0.00000000000E+00 0.  1.
<scales pt_clust_5="13000.00000" pt_clust_6="13000.00000" pt_clust_7="13000.00000" pt_clust_8="13000.00000" pt_clust_9="22.57220"></scales>
<clustering>
<clus scale="   22.572">  1  9  2 -1</clus>
<clus scale="   86.933">  5  6 -1 -1</clus>
<clus scale="   90.493">  7  8 -1 -1</clus>
<clus scale="  132.511">  1  5  2 -1</clus>
<clus scale="  134.874">  2  5  1 -1</clus>
</clustering>
</event>
<event>
 9    1  0.1713970E-005  0.1747447E+03  0.7546771E-02  0.1174292E+00
          1   -1    0    0  502    0  0.00000000000E+00  0.00000000000E+00  0.31828475353E+03  0.31828475353E+03  0.00000000000E+00 0. -1.
         -1   -1    0    0    0  501 -0.00000000000E+00 -0.00000000000E+00 -0.13714182839E+03  0.13714182839E+03  0.00000000000E+00 0.  1.
         23    2    1    2    0    0  0.15353474762E+03 -0.19188533796E+02  0.85441978671E+02  0.19968250626E+03  0.92906689902E+02 0.  0.
         23    2    1    2    0    0 -0.14216083264E+03 -0.40671391316E+02  0.95988177604E+02  0.19481248224E+03  0.82911450270E+02 0.  0.
        -11    1    4    4    0    0 -0.54012752574E+02  0.21781555877E+02  0.16012138332E+02  0.60400349263E+02  0.00000000000E+00 0.  1.
         11    1    4    4    0    0 -0.88148080069E+02 -0.62452947193E+02  0.79976039272E+02  0.13441213297E+03  0.00000000000E+00 0. -1.
        -13    1    3    3    0    0  0.11387937041E+03  0.64475339677E+01  0.15237509518E+02  0.11507503377E+03  0.00000000000E+00 0.  1.
         13    1    3    3    0    0  0.39655377209E+02 -0.25636067763E+02  0.70204469153E+02  0.84607472489E+02  0.00000000000E+00 0. -1.
         21    1    1    2  502  501 -0.11373914979E+02  0.59859925112E+02 -0.28723113718E+00  0.60931593431E+02  0.00000000000E+00 0.  1.
<scales pt_clust_5="13000.00000" pt_clust_6="13000.00000" pt_clust_7="13000.00000" pt_clust_8="13000.00000" pt_clust_9="60.93092"></scales>
<clustering>
<clus scale="   60.931">  2  9  1 -1</clus>
<clus scale="   82.911">  5  6 -1 -1</clus>
<clus scale="   92.907">  7  8 -1 -1</clus>
<clus scale="  169.642">  1  5  2 -1</clus>
<clus scale="  169.642">  1  5  2 -1</clus>
</clustering>
</event>
<event>
 9    1  0.1713970E-005  0.1621044E+03  0.7546771E-02  0.1186566E+00
          4   -1    0    0  502    0  0.00000000000E+00  0.00000000000E+00  0.64173917544E+03  0.64173917544E+03  0.00000000000E+00 0. -1.
         -4   -1    0    0    0  501 -0.00000000000E+00 -0.00000000000E+00 -0.92760685590E+02  0.92760685590E+02  0.00000000000E+00 0.  1.
         23    2    1    2    0    0 -0.12335259597E+03 -0.12609260847E+03  0.29546825572E+03  0.35576370640E+03  0.90283530105E+02 0.  0.
         23    2    1    2    0    0  0.11475667688E+03  0.12142160661E+02  0.20975781942E+03  0.25637248284E+03  0.91716847919E+02 0.  0.
        -13    1    3    3    0    0  0.13751440599E+01 -0.50984363281E+02  0.97328898173E+02  0.10988271356E+03  0.00000000000E+00 0. -1.
         13    1    3    3    0    0 -0.12472774003E+03 -0.75108245193E+02  0.19813935755E+03  0.24588099284E+03  0.00000000000E+00 0.  1.
        -13    1    4    4    0    0  0.79328334108E+02 -0.32341213460E+02  0.92643389141E+02  0.12618136246E+03  0.00000000000E+00 0. -1.
         13    1    4    4    0    0  0.35428342776E+02  0.44483374122E+02  0.11711443028E+03  0.13019112038E+03  0.00000000000E+00 0.  1.
         21    1    1    2  502  501  0.85959190875E+01  0.11395044781E+03  0.43752414705E+02  0.12236367179E+03  0.00000000000E+00 0.  1.
<scales pt_clust_5="13000.00000" pt_clust_6="13000.00000" pt_clust_7="13000.00000" pt_clust_8="13000.00000" pt_clust_9="114.27421"></scales>
<clustering>
<clus scale="   90.284">  5  6 -1 -1</clus>
<clus scale="   91.717">  7  8 -1 -1</clus>
<clus scale="  114.274">  2  9  1 -1</clus>
<clus scale="  161.298">  2  5  1 -1</clus>
<clus scale="  162.104">  1  5  2 -1</clus>
</clustering>
</event>
<event>
 9    1  0.1713970E-005  0.9361837E+02  0.7546771E-02  0.1295036E+00
          1   -1    0    0  502    0  0.00000000000E+00  0.00000000000E+00  0.10542108223E+03  0.10542108223E+03  0.00000000000E+00 0. -1.
         -1   -1    0    0    0  501 -0.00000000000E+00 -0.00000000000E+00 -0.11313103406E+03  0.11313103406E+03  0.00000000000E+00 0.  1.
         23    2    1    2    0    0 -0.14960761898E+02 -0.11205654655E+02 -0.34453020477E+01  0.94092773906E+02  0.92153073212E+02 0.  0.
         23    2    1    2    0    0 -0.46088752016E+01  0.19806776913E+02  0.16578806908E+02  0.94603025016E+02  0.90891833304E+02 0.  0.
        -11    1    3    3    0    0 -0.38565011761E+02 -0.35701269768E+02 -0.20038553782E+02  0.56243972413E+02  0.00000000000E+00 0.  1.
         11    1    3    3    0    0  0.23604249863E+02  0.24495615113E+02  0.16593251734E+02  0.37848801493E+02  0.00000000000E+00 0. -1.
        -13    1    4    4    0    0 -0.12034106188E+02 -0.17993634214E+02 -0.28189447472E+02  0.35542024882E+02  0.00000000000E+00 0.  1.
         13    1    4    4    0    0  0.74252309868E+01  0.37800411127E+02  0.44768254379E+02  0.59061000133E+02  0.00000000000E+00 0. -1.
         21    1    1    2  502  501  0.19569637100E+02 -0.86011222577E+01 -0.20843456688E+02  0.29856317372E+02  0.00000000000E+00 0. -1.
<scales pt_clust_5="13000.00000" pt_clust_6="13000.00000" pt_clust_7="13000.00000" pt_clust_8="13000.00000" pt_clust_9="21.37639"></scales>
<clustering>
<clus scale="   21.376">  2  9  1 -1</clus>
<clus scale="   90.892">  7  8 -1 -1</clus>
<clus scale="   92.153">  5  6 -1 -1</clus>
<clus scale="   92.377">  1  7  2 -1</clus>
<clus scale="   92.377">  1  5  2 -1</clus>
</clustering>
</event>
<event>
 9    1  0.1713970E-005  0.1507221E+03  0.7546771E-02  0.1200895E+00
         -2   -1    0    0    0  501 -0.00000000000E+00  0.00000000000E+00  0.26676667969E+02  0.26676667969E+02  0.00000000000E+00 0.  1.
          2   -1    0    0  502    0  0.00000000000E+00 -0.00000000000E+00 -0.11435005971E+04  0.11435005971E+04  0.00000000000E+00 0. -1.
         23    2    1    2    0    0 -0.12686958060E+02 -0.97585299562E+02 -0.38941548171E+03  0.41147202159E+03  0.89336205194E+02 0.  0.
         23    2    1    2    0    0  0.23959740370E+02  0.14015508304E+03 -0.57569453120E+03  0.60072937678E+03  0.96094091425E+02 0.  0.
        -11    1    3    3    0    0 -0.45956654921E+02 -0.58643546049E+02 -0.16128228160E+03  0.17765993916E+03  0.00000000000E+00 0.  1.
         11    1    3    3    0    0  0.33269696861E+02 -0.38941753513E+02 -0.22813320012E+03  0.23381208243E+03  0.00000000000E+00 0. -1.
        -11    1    4    4    0    0 -0.11556990262E+02  0.13136702526E+03 -0.49239619880E+03  0.50974981701E+03  0.00000000000E+00 0.  1.
         11    1    4    4    0    0  0.35516730633E+02  0.87880577788E+01 -0.83298332402E+02  0.90979559767E+02  0.00000000000E+00 0. -1.
         21    1    1    2  502  501 -0.11272782310E+02 -0.42569783479E+02 -0.15171391622E+03  0.15797586671E+03  0.00000000000E+00 0.  1.
<scales pt_clust_5="13000.00000" pt_clust_6="13000.00000" pt_clust_7="13000.00000" pt_clust_8="13000.00000" pt_clust_9="44.03705"></scales>
<clustering>
<clus scale="   44.037">  2  9  1 -1</clus>
<clus scale="   89.336">  5  6 -1 -1</clus>
<clus scale="   96.094">  7  8 -1 -1</clus>
<clus scale="  146.506">  1  5  2 -1</clus>
<clus scale="   44.037">  2  5  1 -1</clus>
</clustering>
</event>
<event>
 9    1  0.1713970E-005  0.9537245E+02  0.7546771E-02  0.1293116E+00
         -1   -1    0    0    0  501 -0.00000000000E+00  0.00000000000E+00  0.74222871614E+02  0.74222871614E+02  0.00000000000E+00 0.  1.
          1   -1    0    0  502    0  0.00000000000E+00 -0.00000000000E+00 -0.45836622596E+03  0.45836622596E+03  0.00000000000E+00 0. -1.
         23    2    1    2    0    0  0.61315960612E+02  0.83174055112E+01 -0.38338999712E+01  0.11225221595E+03  0.93579030427E+02 0.  0.
         23    2    1    2    0    0 -0.13478399693E+02  0.51732105200E+01 -0.35169382853E+03  0.36298461055E+03  0.88661429621E+02 0.  0.
        -11    1    3    3    0    0 -0.23089402721E+02 -0.78445342662E+01  0.76318270411E+01  0.25551947477E+02  0.00000000000E+00 0. -1.
         11    1    3    3    0    0  0.84405363333E+02  0.16161939777E+02 -0.11465727012E+02  0.86700268469E+02  0.00000000000E+00 0.  1.
        -13    1    4    4    0    0  0.18903152455E+02  0.35238085394E+02 -0.10484052405E+03  0.11220778635E+03  0.00000000000E+00 0.  1.
         13    1    4    4    0    0 -0.32381552147E+02 -0.30064874874E+02 -0.24685330448E+03  0.25077682419E+03  0.00000000000E+00 0. -1.
         21    1    1    2  502  501 -0.47837560919E+02 -0.13490616031E+02 -0.28615625842E+02  0.57352271079E+02  0.00000000000E+00 0. -1.
<scales pt_clust_5="13000.00000" pt_clust_6="13000.00000" pt_clust_7="13000.00000" pt_clust_8="13000.00000" pt_clust_9="49.70341"></scales>
<clustering>
<clus scale="   49.703">  1  9  2 -1</clus>
<clus scale="   88.661">  7  8 -1 -1</clus>
<clus scale="   90.552">  2  7  1 -1</clus>
<clus scale="   93.579">  5  6 -1 -1</clus>
<clus scale="   90.552">  2  5  1 -1</clus>
</clustering>
</event>
<event>
 9    1  0.1713970E-005  0.1051446E+03  0.7546771E-02  0.1282871E+00
          1   -1    0    0  502    0  0.00000000000E+00  0.00000000000E+00  0.16020484981E+03  0.16020484981E+03  0.00000000000E+00 0. -1.
         -1   -1    0    0    0  501 -0.00000000000E+00 -0.00000000000E+00 -0.92361532636E+02  0.92361532636E+02  0.00000000000E+00 0.  1.
         23    2    1    2    0    0 -0.56092122359E+02 -0.69133456491E+01  0.45674261687E+02  0.10181082893E+03  0.71310491285E+02 0.  0.
         23    2    1    2    0    0  0.19873281932E+02  0.10854500932E+02  0.43225805142E+02  0.10867558427E+03  0.97103783964E+02 0.  0.
        -11    1    3    3    0    0 -0.26946335568E+02  0.25982862123E+02  0.44082678591E+02  0.57831623498E+02  0.00000000000E+00 0. -1.
         11    1    3    3    0    0 -0.29145786791E+02 -0.32896207772E+02  0.15915830960E+01  0.43979205429E+02  0.00000000000E+00 0.  1.
        -13    1    4    4    0    0 -0.59565913515E+01  0.49237451320E+02  0.73659610455E+01  0.50140452482E+02  0.00000000000E+00 0. -1.
         13    1    4    4    0    0  0.25829873284E+02 -0.38382950388E+02  0.35859844096E+02  0.58535131784E+02  0.00000000000E+00 0.  1.
         21    1    1    2  502  501  0.36218840426E+02 -0.39411552831E+01 -0.21056749651E+02  0.42079969257E+02  0.00000000000E+00 0. -1.
<scales pt_clust_5="13000.00000" pt_clust_6="13000.00000" pt_clust_7="13000.00000" pt_clust_8="13000.00000" pt_clust_9="36.43264"></scales>
<clustering>
<clus scale="   36.433">  2  9  1 -1</clus>
<clus scale="   71.310">  5  6 -1 -1</clus>
<clus scale="   81.923">  2  5  1 -1</clus>
<clus scale="   97.104">  7  8 -1 -1</clus>
<clus scale="  105.145">  1  5  2 -1</clus>
</clustering>
</event>
<event>
 9    1  0.1713970E-005  0.9824646E+02  0.7546771E-02  0.1284682E+00
          1   -1    0    0  502    0  0.00000000000E+00  0.00000000000E+00  0.71286347630E+02  0.71286347630E+02  0.00000000000E+00 0. -1.
         -1   -1    0    0    0  501 -0.00000000000E+00 -0.00000000000E+00 -0.29870321126E+03  0.29870321126E+03  0.00000000000E+00 0.  1.
         23    2    1    2    0    0 -0.35246599723E+02 -0.18814392810E+02 -0.20975527252E+03  0.23299033955E+03  0.93225102875E+02 0.  0.
         23    2    1    2    0    0  0.25232640777E+02 -0.55595440540E+01  0.10404147597E+02  0.98501766679E+02  0.94481517034E+02 0.  0.
        -11    1    4    4    0    0  0.26714073782E+02  0.20199631506E+02  0.44530558444E+02  0.55719273921E+02  0.00000000000E+00 0. -1.
         11    1    4    4    0    0 -0.14814330057E+01 -0.25759175560E+02 -0.34126410847E+02  0.42782492758E+02  0.00000000000E+00 0.  1.
        -13    1    3    3    0    0  0.20943657283E+02  0.20038366730E+02 -0.96179045708E+02  0.10045188776E+03  0.00000000000E+00 0. -1.
         13    1    3    3    0    0 -0.56190257006E+02 -0.38852759540E+02 -0.11357622681E+03  0.13253845179E+03  0.00000000000E+00 0.  1.
         21    1    1    2  502  501  0.10013958947E+02  0.24373936864E+02 -0.28065738708E+02  0.38497452660E+02  0.00000000000E+00 0. -1.
<scales pt_clust_5="13000.00000" pt_clust_6="13000.00000" pt_clust_7="13000.00000" pt_clust_8="13000.00000" pt_clust_9="26.35087"></scales>
<clustering>
<clus scale="   26.351">  2  9  1 -1</clus>
<clus scale="   93.225">  7  8 -1 -1</clus>
<clus scale="   94.482">  5  6 -1 -1</clus>
<clus scale="   97.039">  2  7  1 -1</clus>
<clus scale="   98.246">  1  5  2 -1</clus>
</clustering>
</event>
<event>
 9    1  0.1713970E-005  0.9404982E+02  0.7546771E-02  0.1294280E+00
         -1   -1    0    0    0  501 -0.00000000000E+00  0.00000000000E+00  0.23606185300E+02  0.23606185300E+02  0.00000000000E+00 0.  1.
          1   -1    0    0  502    0  0.00000000000E+00 -0.00000000000E+00 -0.68618898499E+03  0.68618898499E+03  0.00000000000E+00 0. -1.
         23    2    1    2    0    0  0.58675753343E+01  0.22822064556E+02 -0.20241827206E+03  0.22302624154E+03  0.90621589490E+02 0.  0.
         23    2    1    2    0    0 -0.37194443752E+02  0.20851526447E+02 -0.35796924793E+03  0.37130191862E+03  0.88909614232E+02 0.  0.
        -11    1    3    3    0    0  0.16624463746E+02  0.54419047240E+02 -0.97087755507E+02  0.11253371835E+03  0.00000000000E+00 0. -1.
         11    1    3    3    0    0 -0.10756888412E+02 -0.31596982683E+02 -0.10533051655E+03  0.11049252319E+03  0.00000000000E+00 0.  1.
        -13    1    4    4    0    0  0.42154725498E+01 -0.29284353658E+02 -0.16606707363E+03  0.16868199821E+03  0.00000000000E+00 0.  1.
         13    1    4    4    0    0 -0.41409916301E+02  0.50135880104E+02 -0.19190217430E+03  0.20261992040E+03  0.00000000000E+00 0. -1.
         21    1    1    2  502  501  0.31326868417E+02 -0.43673591003E+02 -0.10219527970E+03  0.11546701013E+03  0.00000000000E+00 0.  1.
<scales pt_clust_5="13000.00000" pt_clust_6="13000.00000" pt_clust_7="13000.00000" pt_clust_8="13000.00000" pt_clust_9="53.74714"></scales>
<clustering>
<clus scale="   53.747">  1  9  2 -1</clus>
<clus scale="   88.910">  7  8 -1 -1</clus>
<clus scale="   90.622">  5  6 -1 -1</clus>
<clus scale="   92.401">  2  7  1 -1</clus>
<clus scale="   92.401">  2  5  1 -1</clus>
</clustering>
</event>
<event>
 9    1  0.1713970E-005  0.1078806E+03  0.7546771E-02  0.1265049E+00
          1   -1    0    0  502    0  0.00000000000E+00  0.00000000000E+00  0.18986350527E+03  0.18986350527E+03  0.00000000000E+00 0. -1.
         -1   -1    0    0    0  501 -0.00000000000E+00 -0.00000000000E+00 -0.96185537717E+02  0.96185537717E+02  0.00000000000E+00 0.  1.
         23    2    1    2    0    0  0.23030223443E+02  0.49973546152E+02  0.29950998221E+02  0.10945731003E+03  0.89755745881E+02 0.  0.
         23    2    1    2    0    0  0.16280478437E+02 -0.64048009448E+02  0.72650944034E+02  0.13389443651E+03  0.91007466540E+02 0.  0.
        -13    1    4    4    0    0  0.36728948757E+02 -0.85284246285E+00  0.18074011047E+01  0.36783280384E+02  0.00000000000E+00 0.  1.
         13    1    4    4    0    0 -0.20448470320E+02 -0.63195166985E+02  0.70843542929E+02  0.97111156122E+02  0.00000000000E+00 0. -1.
        -13    1    3    3    0    0  0.27017161059E+02 -0.19516786040E+02  0.20716235892E+02  0.39242761862E+02  0.00000000000E+00 0.  1.
         13    1    3    3    0    0 -0.39869376164E+01  0.69490332193E+02  0.92347623297E+01  0.70214548173E+02  0.00000000000E+00 0. -1.
         21    1    1    2  502  501 -0.39310701879E+02  0.14074463295E+02 -0.89239747019E+01  0.42697296446E+02  0.00000000000E+00 0. -1.
<scales pt_clust_5="13000.00000" pt_clust_6="13000.00000" pt_clust_7="13000.00000" pt_clust_8="13000.00000" pt_clust_9="41.75430"></scales>
<clustering>
<clus scale="   41.754">  2  9  1 -1</clus>
<clus scale="   89.756">  7  8 -1 -1</clus>
<clus scale="   91.007">  5  6 -1 -1</clus>
<clus scale="  106.827">  2  7  1 -1</clus>
<clus scale="  107.881">  1  5  2 -1</clus>
</clustering>
</event>
<event>
 9    1  0.1713970E-005  0.9437425E+02  0.7546771E-02  0.1294407E+00
         -2   -1    0    0    0  501 -0.00000000000E+00  0.00000000000E+00  0.51082303167E+02  0.51082303167E+02  0.00000000000E+00 0.  1.
          2   -1    0    0  502    0  0.00000000000E+00 -0.00000000000E+00 -0.27985420068E+03  0.27985420068E+03  0.00000000000E+00 0. -1.
         23    2    1    2    0    0 -0.14050522496E+02  0.56127183832E+01 -0.42621352760E+02  0.10449160738E+03  0.94196584394E+02 0.  0.
         23    2    1    2    0    0 -0.13199901895E+02  0.28242516595E+01 -0.17086463382E+03  0.19408091701E+03  0.91051993121E+02 0.  0.
        -11    1    4    4    0    0  0.37943665481E+02  0.11060237062E+02 -0.62103246480E+02  0.73612932406E+02  0.00000000000E+00 0. -1.
         11    1    4    4    0    0 -0.51143567377E+02 -0.82359854021E+01 -0.10876138734E+03  0.12046798461E+03  0.00000000000E+00 0.  1.
        -11    1    3    3    0    0 -0.53605086729E+02  0.12929226395E+02 -0.23221136210E+02  0.59832193552E+02  0.00000000000E+00 0.  1.
         11    1    3    3    0    0  0.39554564233E+02 -0.73165080122E+01 -0.19400216550E+02  0.44659413827E+02  0.00000000000E+00 0. -1.
         21    1    1    2  502  501  0.27250424391E+02 -0.84369700427E+01 -0.15285910933E+02  0.32363979453E+02  0.00000000000E+00 0. -1.
<scales pt_clust_5="13000.00000" pt_clust_6="13000.00000" pt_clust_7="13000.00000" pt_clust_8="13000.00000" pt_clust_9="28.52662"></scales>
<clustering>
<clus scale="   28.527">  1  9  2 -1</clus>
<clus scale="   91.052">  5  6 -1 -1</clus>
<clus scale="   91.236">  2  5  1 -1</clus>
<clus scale="   94.197">  7  8 -1 -1</clus>
<clus scale="   91.236">  2  5  1 -1</clus>
</clustering>
</event>
<event>
 9    1  0.1713970E-005  0.9619009E+02  0.7546771E-02  0.1291522E+00
          1   -1    0    0  502    0  0.00000000000E+00  0.00000000000E+00  0.37715288627E+03  0.37715288627E+03  0.00000000000E+00 0. -1.
         -1   -1    0    0    0  501 -0.00000000000E+00 -0.00000000000E+00 -0.50783702165E+02  0.50783702165E+02  0.00000000000E+00 0.  1.
         23    2    1    2    0    0 -0.41828954995E+02 -0.15512540670E+02  0.76695985561E+02  0.12494131915E+03  0.87964530556E+02 0.  0.
         23    2    1    2    0    0  0.15774593294E+02  0.72040540705E+00  0.25548293236E+03  0.27247658589E+03  0.93394883970E+02 0.  0.
        -13    1    3    3    0    0  0.18774618412E+02  0.15085563242E+02  0.22521187226E+01  0.24189513298E+02  0.00000000000E+00 0. -1.
         13    1    3    3    0    0 -0.60603573407E+02 -0.30598103912E+02  0.74443866839E+02  0.10075180585E+03  0.00000000000E+00 0.  1.
        -13    1    4    4    0    0  0.39502869865E+02 -0.32996869224E+02  0.11343877588E+03  0.12456976351E+03  0.00000000000E+00 0.  1.
         13    1    4    4    0    0 -0.23728276570E+02  0.33717274631E+02  0.14204415647E+03  0.14790682238E+03  0.00000000000E+00 0. -1.
         21    1    1    2  502  501  0.26054361701E+02  0.14792135263E+02 -0.58097338158E+01  0.30518683397E+02  0.00000000000E+00 0.  1.
<scales pt_clust_5="13000.00000" pt_clust_6="13000.00000" pt_clust_7="13000.00000" pt_clust_8="13000.00000" pt_clust_9="29.96059"></scales>
<clustering>
<clus scale="   29.961">  2  9  1 -1</clus>
<clus scale="   87.965">  5  6 -1 -1</clus>
<clus scale="   90.927">  2  5  1 -1</clus>
<clus scale="   93.395">  7  8 -1 -1</clus>
<clus scale="   96.190">  1  5  2 -1</clus>
</clustering>
</event>
<event>
 9    1  0.1713970E-005  0.1494710E+03  0.7546771E-02  0.1202319E+00
         -1   -1    0    0    0  501 -0.00000000000E+00  0.00000000000E+00  0.71715559055E+03  0.71715559055E+03  0.00000000000E+00 0.  1.
          1   -1    0    0  502    0  0.00000000000E+00 -0.00000000000E+00 -0.98399908507E+02  0.98399908507E+02  0.00000000000E+00 0. -1.
         23    2    1    2    0    0 -0.13111616607E+03 -0.41529526154E+02  0.56880654093E+03  0.59249622389E+03  0.92707840919E+02 0.  0.
         23    2    1    2    0    0  0.10592691780E+03  0.27899740007E+02 -0.18809532661E+02  0.14857421279E+03  0.98598127672E+02 0.  0.
        -11    1    4    4    0    0  0.11058207590E+03 -0.82870653361E+01 -0.14451358946E+02  0.11182983831E+03  0.00000000000E+00 0. -1.
         11    1    4    4    0    0 -0.46551580948E+01  0.36186805343E+02 -0.43581737155E+01  0.36744374480E+02  0.00000000000E+00 0.  1.
        -13    1    3    3    0    0 -0.12665606938E+03 -0.63795693825E+02  0.46082869722E+03  0.48215634253E+03  0.00000000000E+00 0.  1.
         13    1    3    3    0    0 -0.44600966880E+01  0.22266167671E+02  0.10797784372E+03  0.11033988136E+03  0.00000000000E+00 0. -1.
         21    1    1    2  502  501  0.25189248264E+02  0.13629786147E+02  0.68758673768E+02  0.74485062374E+02  0.00000000000E+00 0. -1.
<scales pt_clust_5="13000.00000" pt_clust_6="13000.00000" pt_clust_7="13000.00000" pt_clust_8="13000.00000" pt_clust_9="28.64034"></scales>
<clustering>
<clus scale="   28.640">  1  9  2 -1</clus>
<clus scale="   92.708">  7  8 -1 -1</clus>
<clus scale="   98.598">  5  6 -1 -1</clus>
<clus scale="  145.653">  1  7  2 -1</clus>
<clus scale="  149.471">  2  5  1 -1</clus>
</clustering>
</event>
<event>
 9    1  0.1713970E-005  0.1079762E+03  0.7546771E-02  0.1264612E+00
         -2   -1    0    0    0  501 -0.00000000000E+00  0.00000000000E+00  0.53671902151E+02  0.53671902151E+02  0.00000000000E+00 0.  1.
          2   -1    0    0  502    0  0.00000000000E+00 -0.00000000000E+00 -0.36480411983E+03  0.36480411983E+03  0.00000000000E+00 0. -1.
         23    2    1    2    0    0  0.31324834467E+02  0.50254912902E+02 -0.45182731133E+02  0.11701483152E+03  0.90245166509E+02 0.  0.
         23    2    1    2    0    0 -0.11363903658E+02 -0.57864231995E+02 -0.25584096851E+03  0.27782810703E+03  0.90865000045E+02 0.  0.
        -11    1    3    3    0    0  0.49395708164E+02  0.32621440921E+01 -0.20639483672E+00  0.49503738928E+02  0.00000000000E+00 0.  1.
         11    1    3    3    0    0 -0.18070873696E+02  0.46992768810E+02 -0.44976336297E+02  0.67511092594E+02  0.00000000000E+00 0. -1.
        -13    1    4    4    0    0  0.38357428881E+02 -0.16247156270E+02 -0.76189602826E+02  0.86833852938E+02  0.00000000000E+00 0.  1.
         13    1    4    4    0    0 -0.49721332540E+02 -0.41617075725E+02 -0.17965136569E+03  0.19099425409E+03  0.00000000000E+00 0. -1.
         21    1    1    2  502  501 -0.19960930809E+02  0.76093190929E+01 -0.10108518034E+02  0.23633083435E+02  0.00000000000E+00 0. -1.
<scales pt_clust_5="13000.00000" pt_clust_6="13000.00000" pt_clust_7="13000.00000" pt_clust_8="13000.00000" pt_clust_9="21.36213"></scales>
<clustering>
<clus scale="   21.362">  1  9  2 -1</clus>
<clus scale="   90.245">  5  6 -1 -1</clus>
<clus scale="   90.865">  7  8 -1 -1</clus>
<clus scale="  107.455">  1  5  2 -1</clus>
<clus scale="  107.976">  2  5  1 -1</clus>
</clustering>
</event>
<event>
 9    1  0.1713970E-005  0.1096594E+03  0.7546771E-02  0.1261890E+00
          1   -1    0    0  502    0  0.00000000000E+00  0.00000000000E+00  0.42182097331E+03  0.42182097331E+03  0.00000000000E+00 0. -1.
         -1   -1    0    0    0  501 -0.00000000000E+00 -0.00000000000E+00 -0.40477425199E+02  0.40477425199E+02  0.00000000000E+00 0.  1.
         23    2    1    2    0    0 -0.18260556931E+02 -0.40472390604E+02  0.73391687465E+02  0.12481107969E+03  0.90664234872E+02 0.  0.
         23    2    1    2    0    0  0.20156272543E+02  0.62207877988E+02  0.28006142714E+03  0.30207684818E+03  0.92411708282E+02 0.  0.
        -11    1    4    4    0    0 -0.19656409487E+01 -0.23973931436E+02  0.52922513162E+02  0.58132654612E+02  0.00000000000E+00 0.  1.
         11    1    4    4    0    0  0.22121913492E+02  0.86181809424E+02  0.22713891398E+03  0.24394419357E+03  0.00000000000E+00 0. -1.
        -13    1    3    3    0    0  0.23340235327E+02 -0.14189519018E+02  0.70398821683E+02  0.75512271383E+02  0.00000000000E+00 0. -1.
         13    1    3    3    0    0 -0.41600792258E+02 -0.26282871586E+02  0.29928657822E+01  0.49298808312E+02  0.00000000000E+00 0.  1.
         21    1    1    2  502  501 -0.18957156123E+01 -0.21735487383E+02  0.27890433506E+02  0.35410470635E+02  0.00000000000E+00 0.  1.
<scales pt_clust_5="13000.00000" pt_clust_6="13000.00000" pt_clust_7="13000.00000" pt_clust_8="13000.00000" pt_clust_9="21.81800"></scales>
<clustering>
<clus scale="   21.818">  2  9  1 -1</clus>
<clus scale="   90.664">  7  8 -1 -1</clus>
<clus scale="   92.412">  5  6 -1 -1</clus>
<clus scale="  108.191">  2  7  1 -1</clus>
<clus scale="  109.659">  1  5  2 -1</clus>
</clustering>
</event>
<event>
 9    1  0.1713970E-005  0.1912605E+03  0.7546771E-02  0.1157338E+00
          1   -1    0    0  502    0  0.00000000000E+00  0.00000000000E+00  0.45950753807E+03  0.45950753807E+03  0.00000000000E+00 0. -1.
         -1   -1    0    0    0  501 -0.00000000000E+00 -0.00000000000E+00 -0.14107491592E+03  0.14107491592E+03  0.00000000000E+00 0.  1.
         23    2    1    2    0    0 -0.11448811863E+03  0.12698137018E+03 -0.20318979443E+02  0.19539432622E+03  0.92381189186E+02 0.  0.
         23    2    1    2    0    0  0.12539887537E+03 -0.93274173443E+02  0.31121145582E+03  0.36031408902E+03  0.92459305289E+02 0.  0.
        -11    1    4    4    0    0  0.16841912897E+00 -0.48490468630E+02  0.77975107331E+02  0.91823043275E+02  0.00000000000E+00 0.  1.
         11    1    4    4    0    0  0.12523045624E+03 -0.44783704813E+02  0.23323634849E+03  0.26849104574E+03  0.00000000000E+00 0. -1.
        -13    1    3    3    0    0 -0.77678580137E+02  0.25238157190E+02 -0.29425392441E+02  0.86814630741E+02  0.00000000000E+00 0.  1.
         13    1    3    3    0    0 -0.36809538489E+02  0.10174321299E+03  0.91064129978E+01  0.10857969548E+03  0.00000000000E+00 0. -1.
         21    1    1    2  502  501 -0.10910756739E+02 -0.33707196737E+02  0.27540145778E+02  0.44874038752E+02  0.00000000000E+00 0. -1.
<scales pt_clust_5="13000.00000" pt_clust_6="13000.00000" pt_clust_7="13000.00000" pt_clust_8="13000.00000" pt_clust_9="35.42908"></scales>
<clustering>
<clus scale="   35.429">  1  9  2 -1</clus>
<clus scale="   92.381">  7  8 -1 -1</clus>
<clus scale="   92.459">  5  6 -1 -1</clus>
<clus scale="  191.223">  2  7  1 -1</clus>
<clus scale="   35.429">  1  5  2 -1</clus>
</clustering>
</event>
<event>
 9    1  0.1713970E-005  0.1020054E+03  0.7546771E-02  0.1277583E+00
          1   -1    0    0  502    0  0.00000000000E+00  0.00000000000E+00  0.41081947053E+03  0.41081947053E+03  0.00000000000E+00 0. -1.
         -1   -1    0    0    0  501 -0.00000000000E+00 -0.00000000000E+00 -0.15236714996E+03  0.15236714996E+03  0.00000000000E+00 0.  1.
         23    2    1    2    0    0  0.15795388893E+02  0.59619442371E+02  0.22150767173E+03  0.24761333406E+03  0.91884396644E+02 0.  0.
         23    2    1    2    0    0 -0.19938467911E+02 -0.22034174992E+02  0.16080297698E+03  0.18607153788E+03  0.88780473265E+02 0.  0.
        -11    1    4    4    0    0  0.55898129569E+01 -0.36857908159E+02  0.15011732572E+03  0.15467696300E+03  0.00000000000E+00 0. -1.
         11    1    4    4    0    0 -0.25528280868E+02  0.14823733167E+02  0.10685651267E+02  0.31394574883E+02  0.00000000000E+00 0.  1.
        -13    1    3    3    0    0  0.21684641935E+02  0.81342549110E+02  0.14296155926E+03  0.16590612230E+03  0.00000000000E+00 0.  1.
         13    1    3    3    0    0 -0.58892530418E+01 -0.21723106739E+02  0.78546112472E+02  0.81707211752E+02  0.00000000000E+00 0. -1.
         21    1    1    2  502  501  0.41430790178E+01 -0.37585267380E+02 -0.12385832815E+03  0.12950174856E+03  0.00000000000E+00 0.  1.
<scales pt_clust_5="13000.00000" pt_clust_6="13000.00000" pt_clust_7="13000.00000" pt_clust_8="13000.00000" pt_clust_9="37.81293"></scales>
<clustering>
<clus scale="   37.813">  2  9  1 -1</clus>
<clus scale="   88.780">  5  6 -1 -1</clus>
<clus scale="   91.884">  7  8 -1 -1</clus>
<clus scale="   99.219">  1  5  2 -1</clus>
<clus scale="   99.219">  1  5  2 -1</clus>
</clustering>
</event>
<event>
 9    1  0.1713970E-005  0.1017133E+03  0.7546771E-02  0.1280854E+00
          2   -1    0    0  502    0  0.00000000000E+00  0.00000000000E+00  0.49061662397E+02  0.49061662397E+02  0.00000000000E+00 0. -1.
         -2   -1    0    0    0  501 -0.00000000000E+00 -0.00000000000E+00 -0.32336659584E+03  0.32336659584E+03  0.00000000000E+00 0.  1.
         23    2    1    2    0    0 -0.13247796152E+02 -0.11533372947E+02 -0.15382382868E+03  0.17709090626E+03  0.85970320550E+02 0.  0.
         23    2    1    2    0    0  0.33547570481E+02  0.34676973041E+02 -0.47445593635E+02  0.11607895842E+03  0.94314942024E+02 0.  0.
        -13    1    3    3    0    0 -0.45773513052E+02 -0.18933859106E+02 -0.61762404616E+02  0.79172597164E+02  0.00000000000E+00 0.  1.
         13    1    3    3    0    0  0.32525716900E+02  0.74004861594E+01 -0.92061424065E+02  0.97918309095E+02  0.00000000000E+00 0. -1.
        -13    1    4    4    0    0 -0.15825116019E+01  0.53370629673E+02 -0.53779747146E+02  0.75783835069E+02  0.00000000000E+00 0.  1.
         13    1    4    4    0    0  0.35130082083E+02 -0.18693656633E+02  0.63341535111E+01  0.40295123354E+02  0.00000000000E+00 0. -1.
         21    1    1    2  502  501 -0.20299774328E+02 -0.23143600094E+02 -0.73035511128E+02  0.79258393554E+02  0.00000000000E+00 0.  1.
<scales pt_clust_5="13000.00000" pt_clust_6="13000.00000" pt_clust_7="13000.00000" pt_clust_8="13000.00000" pt_clust_9="30.78485"></scales>
<clustering>
<clus scale="   30.785">  2  9  1 -1</clus>
<clus scale="   85.970">  5  6 -1 -1</clus>
<clus scale="   94.028">  2  5  1 -1</clus>
<clus scale="   94.315">  7  8 -1 -1</clus>
<clus scale="  101.713">  1  5  2 -1</clus>
</clustering>
</event>
<event>
 9    1  0.1713970E-005  0.1054424E+03  0.7546771E-02  0.1270189E+00
          3   -1    0    0  502    0  0.00000000000E+00  0.00000000000E+00  0.13843875294E+03  0.13843875294E+03  0.00000000000E+00 0. -1.
         -3   -1    0    0    0  501 -0.00000000000E+00 -0.00000000000E+00 -0.15177985527E+03  0.15177985527E+03  0.00000000000E+00 0.  1.
         23    2    1    2    0    0  0.65504245393E+02  0.23351557352E+02 -0.30058228032E+02  0.11533750506E+03  0.86966324551E+02 0.  0.
         23    2    1    2    0    0 -0.52351220733E+02  0.82023731658E+01  0.59891636480E+02  0.11981122964E+03  0.89217674195E+02 0.  0.
        -13    1    3    3    0    0 -0.51193939283E-01  0.34442992822E+02 -0.34438067593E+02  0.48706291944E+02  0.00000000000E+00 0.  1.
         13    1    3    3    0    0  0.65555439332E+02 -0.11091435470E+02  0.43798395605E+01  0.66631213117E+02  0.00000000000E+00 0. -1.
        -13    1    4    4    0    0  0.66891769602E+01 -0.30361677411E+02  0.30047547032E+02  0.43236924339E+02  0.00000000000E+00 0. -1.
         13    1    4    4    0    0 -0.59040397694E+02  0.38564050577E+02  0.29844089448E+02  0.76574305297E+02  0.00000000000E+00 0.  1.
         21    1    1    2  502  501 -0.13153024660E+02 -0.31553930518E+02 -0.43174510774E+02  0.55069873520E+02  0.00000000000E+00 0. -1.
<scales pt_clust_5="13000.00000" pt_clust_6="13000.00000" pt_clust_7="13000.00000" pt_clust_8="13000.00000" pt_clust_9="34.18556"></scales>
<clustering>
<clus scale="   34.186">  2  9  1 -1</clus>
<clus scale="   86.966">  5  6 -1 -1</clus>
<clus scale="   89.218">  7  8 -1 -1</clus>
<clus scale="  103.544">  2  5  1 -1</clus>
<clus scale="  105.442">  1  5  2 -1</clus>
</clustering>
</event>
<event>
 9    1  0.1713970E-005  0.3264304E+03  0.7546771E-02  0.1072774E+00
          1   -1    0    0  502    0  0.00000000000E+00  0.00000000000E+00  0.17008050993E+04  0.17008050993E+04  0.00000000000E+00 0. -1.
         -1   -1    0    0    0  501 -0.00000000000E+00 -0.00000000000E+00 -0.17033264224E+03  0.17033264224E+03  0.00000000000E+00 0.  1.
         23    2    1    2    0    0 -0.14976328235E+03 -0.32044327843E+03  0.24287839982E+03  0.43881440230E+03  0.91952309036E+02 0.  0.
         23    2    1    2    0    0  0.10427464860E+03  0.28728831420E+03  0.13262673546E+04  0.13640291859E+04  0.90458532763E+02 0.  0.
        -11    1    3    3    0    0 -0.82924499061E+02 -0.98065682495E+02  0.53293733449E+02  0.13904521801E+03  0.00000000000E+00 0. -1.
         11    1    3    3    0    0 -0.66838783290E+02 -0.22237759594E+03  0.18958466637E+03  0.29976918429E+03  0.00000000000E+00 0.  1.
        -11    1    4    4    0    0  0.75952579983E+02  0.27409501257E+03  0.12421331932E+04  0.12742808717E+04  0.00000000000E+00 0. -1.
         11    1    4    4    0    0  0.28322068621E+02  0.13193301634E+02  0.84134161437E+02  0.89748314189E+02  0.00000000000E+00 0.  1.
         21    1    1    2  502  501  0.45488633749E+02  0.33154964234E+02 -0.38673297378E+02  0.68294153364E+02  0.00000000000E+00 0.  1.
<scales pt_clust_5="13000.00000" pt_clust_6="13000.00000" pt_clust_7="13000.00000" pt_clust_8="13000.00000" pt_clust_9="56.28914"></scales>
<clustering>
<clus scale="   56.289">  2  9  1 -1</clus>
<clus scale="   90.459">  7  8 -1 -1</clus>
<clus scale="   91.952">  5  6 -1 -1</clus>
<clus scale="  326.013">  1  7  2 -1</clus>
<clus scale="  326.013">  1  5  2 -1</clus>
</clustering>
</event>
<event>
 9    1  0.1713970E-005  0.1073722E+03  0.7546771E-02  0.1266151E+00
         -1   -1    0    0    0  501 -0.00000000000E+00  0.00000000000E+00  0.15654910668E+03  0.15654910668E+03  0.00000000000E+00 0.  1.
          1   -1    0    0  502    0  0.00000000000E+00 -0.00000000000E+00 -0.21766707918E+03  0.21766707918E+03  0.00000000000E+00 0. -1.
         23    2    1    2    0    0 -0.18543461994E+01 -0.37458363475E+02  0.94170434214E+02  0.13632956195E+03  0.91165295961E+02 0.  0.
         23    2    1    2    0    0 -0.66488026021E+01  0.58923376855E+02 -0.17643481640E+03  0.20657814293E+03  0.89605322287E+02 0.  0.
        -11    1    4    4    0    0  0.43800242752E+01 -0.22104830364E+02 -0.61677573607E+02  0.65665296954E+02  0.00000000000E+00 0.  1.
         11    1    4    4    0    0 -0.11028826877E+02  0.81028207219E+02 -0.11475724279E+03  0.14091284597E+03  0.00000000000E+00 0. -1.
        -13    1    3    3    0    0 -0.35121935311E+02 -0.89772112258E+01  0.44909905754E+01  0.36528203593E+02  0.00000000000E+00 0. -1.
         13    1    3    3    0    0  0.33267589112E+02 -0.28481152249E+02  0.89679443638E+02  0.99801358358E+02  0.00000000000E+00 0.  1.
         21    1    1    2  502  501  0.85031488015E+01 -0.21465013380E+02  0.21146409678E+02  0.31308480979E+02  0.00000000000E+00 0.  1.
<scales pt_clust_5="13000.00000" pt_clust_6="13000.00000" pt_clust_7="13000.00000" pt_clust_8="13000.00000" pt_clust_9="23.08788"></scales>
<clustering>
<clus scale="   23.088">  1  9  2 -1</clus>
<clus scale="   89.605">  5  6 -1 -1</clus>
<clus scale="   91.165">  7  8 -1 -1</clus>
<clus scale="  106.051">  2  5  1 -1</clus>
<clus scale="  106.051">  2  5  1 -1</clus>
</clustering>
</event>
<event>
 9    1  0.1713970E-005  0.1256786E+03  0.7546771E-02  0.1234293E+00
         -1   -1    0    0    0  501 -0.00000000000E+00  0.00000000000E+00  0.81383544072E+02  0.81383544072E+02  0.00000000000E+00 0.  1.
          1   -1    0    0  502    0  0.00000000000E+00 -0.00000000000E+00 -0.41218897843E+03  0.41218897843E+03  0.00000000000E+00 0. -1.
         23    2    1    2    0    0 -0.11645775366E+03  0.36333042571E+02 -0.10458070844E+03  0.18501532431E+03  0.91711761961E+02 0.  0.
         23    2    1    2    0    0  0.73595950888E+02 -0.64906781249E+01 -0.22803529698E+03  0.25629842839E+03  0.90720972434E+02 0.  0.
        -11    1    3    3    0    0 -0.91696395248E+02  0.47401395836E+02 -0.32844618023E+02  0.10832308231E+03  0.00000000000E+00 0.  1.
         11    1    3    3    0    0 -0.24761358414E+02 -0.11068353265E+02 -0.71736090418E+02  0.76692242000E+02  0.00000000000E+00 0. -1.
        -13    1    4    4    0    0  0.35901137096E+02  0.42206999599E+02 -0.10934618281E+03  0.12258429816E+03  0.00000000000E+00 0.  1.
         13    1    4    4    0    0  0.37694813791E+02 -0.48697677724E+02 -0.11868911416E+03  0.13371413023E+03  0.00000000000E+00 0. -1.
         21    1    1    2  502  501  0.42861802774E+02 -0.29842364446E+02  0.18105710642E+01  0.52258769794E+02  0.00000000000E+00 0. -1.
<scales pt_clust_5="13000.00000" pt_clust_6="13000.00000" pt_clust_7="13000.00000" pt_clust_8="13000.00000" pt_clust_9="52.22740"></scales>
<clustering>
<clus scale="   52.227">  1  9  2 -1</clus>
<clus scale="   90.721">  7  8 -1 -1</clus>
<clus scale="   91.712">  5  6 -1 -1</clus>
<clus scale="  124.957">  2  7  1 -1</clus>
<clus scale="  124.957">  2  5  1 -1</clus>
</clustering>
</event>
<event>
 9    1  0.1713970E-005  0.1179264E+03  0.7546771E-02  0.1246610E+00
          2   -1    0    0  502    0  0.00000000000E+00  0.00000000000E+00  0.69093165320E+03  0.69093165320E+03  0.00000000000E+00 0. -1.
         -2   -1    0    0    0  501 -0.00000000000E+00 -0.00000000000E+00 -0.39046260607E+02  0.39046260607E+02  0.00000000000E+00 0.  1.
         23    2    1    2    0    0 -0.39109223182E+01  0.72144902248E+02  0.13924744314E+03  0.18245236623E+03  0.93160255944E+02 0.  0.
         23    2    1    2    0    0  0.41924472995E+02 -0.62135779471E+02  0.48494949560E+03  0.49944371056E+03  0.93002635516E+02 0.  0.
        -11    1    3    3    0    0  0.38619400478E+02  0.39843136700E+02  0.10571221877E+03  0.11939014546E+03  0.00000000000E+00 0. -1.
         11    1    3    3    0    0 -0.42530322797E+02  0.32301765548E+02  0.33535224366E+02  0.63062220766E+02  0.00000000000E+00 0.  1.
        -11    1    4    4    0    0  0.69058420468E+02 -0.49901573445E+02  0.41081662085E+03  0.41955873062E+03  0.00000000000E+00 0. -1.
         11    1    4    4    0    0 -0.27133947473E+02 -0.12234206026E+02  0.74132874748E+02  0.79884979945E+02  0.00000000000E+00 0.  1.
         21    1    1    2  502  501 -0.38013550677E+02 -0.10009122777E+02  0.27688453852E+02  0.48081837013E+02  0.00000000000E+00 0.  1.
<scales pt_clust_5="13000.00000" pt_clust_6="13000.00000" pt_clust_7="13000.00000" pt_clust_8="13000.00000" pt_clust_9="39.30919"></scales>
<clustering>
<clus scale="   39.309">  2  9  1 -1</clus>
<clus scale="   93.003">  7  8 -1 -1</clus>
<clus scale="   93.160">  5  6 -1 -1</clus>
<clus scale="  117.802">  1  7  2 -1</clus>
<clus scale="  117.802">  1  5  2 -1</clus>
</clustering>
</event>
<event>
 9    1  0.1713970E-005  0.9529901E+02  0.7546771E-02  0.1291007E+00
         -1   -1    0    0    0  501 -0.00000000000E+00  0.00000000000E+00  0.14186563693E+03  0.14186563693E+03  0.00000000000E+00 0.  1.
          1   -1    0    0  502    0  0.00000000000E+00 -0.00000000000E+00 -0.10824758802E+03  0.10824758802E+03  0.00000000000E+00 0. -1.
         23    2    1    2    0    0 -0.20901202147E+02 -0.39284411501E+01  0.29866041936E+02  0.99586210353E+02  0.92591251912E+02 0.  0.
         23    2    1    2    0    0  0.87686387306E+01  0.25937613779E+02 -0.37057586349E+02  0.10259971881E+03  0.91672180952E+02 0.  0.
        -11    1    3    3    0    0 -0.41786924411E+02  0.26147319865E+02 -0.43324165210E+01  0.49483322653E+02  0.00000000000E+00 0.  1.
         11    1    3    3    0    0  0.20885722264E+02 -0.30075761015E+02  0.34198458457E+02  0.50102887701E+02  0.00000000000E+00 0. -1.
        -13    1    4    4    0    0  0.23966519417E+02 -0.94313409470E+01 -0.54543449749E+02  0.60318588806E+02  0.00000000000E+00 0. -1.
         13    1    4    4    0    0 -0.15197880686E+02  0.35368954726E+02  0.17485863399E+02  0.42281130006E+02  0.00000000000E+00 0.  1.
         21    1    1    2  502  501  0.12132563416E+02 -0.22009172629E+02  0.40809593323E+02  0.47927295793E+02  0.00000000000E+00 0. -1.
<scales pt_clust_5="13000.00000" pt_clust_6="13000.00000" pt_clust_7="13000.00000" pt_clust_8="13000.00000" pt_clust_9="25.13171"></scales>
<clustering>
<clus scale="   25.132">  1  9  2 -1</clus>
<clus scale="   91.672">  7  8 -1 -1</clus>
<clus scale="   92.591">  5  6 -1 -1</clus>
<clus scale="   94.406">  2  7  1 -1</clus>
<clus scale="   94.406">  2  5  1 -1</clus>
</clustering>
</event>
<event>
 9    1  0.1713970E-005  0.1046515E+03  0.7546771E-02  0.1270999E+00
         -1   -1    0    0    0  501 -0.00000000000E+00  0.00000000000E+00  0.29514463586E+03  0.29514463586E+03  0.00000000000E+00 0.  1.
          1   -1    0    0  502    0  0.00000000000E+00 -0.00000000000E+00 -0.30730239963E+03  0.30730239963E+03  0.00000000000E+00 0. -1.
         23    2    1    2    0    0 -0.35551641495E+02 -0.43870807637E+02  0.24405662932E+02  0.10923195422E+03  0.90263040404E+02 0.  0.
         23    2    1    2    0    0  0.35421763167E+02 -0.53221726362E+02 -0.24186687510E+03  0.26611051736E+03  0.90708151317E+02 0.  0.
        -11    1    3    3    0    0 -0.17720827468E+02 -0.68278378028E+02  0.25354956858E+00  0.70540973339E+02  0.00000000000E+00 0. -1.
         11    1    3    3    0    0 -0.17830814028E+02  0.24407570391E+02  0.24152113364E+02  0.38690980877E+02  0.00000000000E+00 0.  1.
        -11    1    4    4    0    0  0.44002093682E+02  0.99435958561E+01 -0.75517272371E+02  0.87965435106E+02  0.00000000000E+00 0.  1.
         11    1    4    4    0    0 -0.85803305154E+01 -0.63165322218E+02 -0.16634960273E+03  0.17814508226E+03  0.00000000000E+00 0. -1.
         21    1    1    2  502  501  0.12987832838E+00  0.97092533999E+02  0.20530344840E+03  0.22710456392E+03  0.00000000000E+00 0.  1.
<scales pt_clust_5="13000.00000" pt_clust_6="13000.00000" pt_clust_7="13000.00000" pt_clust_8="13000.00000" pt_clust_9="97.09262"></scales>
<clustering>
<clus scale="   90.263">  5  6 -1 -1</clus>
<clus scale="   90.708">  7  8 -1 -1</clus>
<clus scale="   97.093">  1  9  2 -1</clus>
<clus scale="  104.266">  1  5  2 -1</clus>
<clus scale="  104.651">  2  5  1 -1</clus>
</clustering>
</event>
<event>
 9    1  0.1713970E-005  0.3103622E+03  0.7546771E-02  0.1080584E+00
         -1   -1    0    0    0  501 -0.00000000000E+00  0.00000000000E+00  0.23257668721E+03  0.23257668721E+03  0.00000000000E+00 0.  1.
          1   -1    0    0  502    0  0.00000000000E+00 -0.00000000000E+00 -0.53134592563E+03  0.53134592563E+03  0.00000000000E+00 0. -1.
         23    2    1    2    0    0 -0.21053053645E+03  0.17365823649E+03 -0.63808154508E+02  0.29143233863E+03  0.79881396703E+02 0.  0.
         23    2    1    2    0    0  0.20053126930E+03 -0.24508986068E+03 -0.22599048582E+03  0.39980648022E+03  0.92150378015E+02 0.  0.
        -13    1    4    4    0    0  0.16939234044E+03 -0.13904088640E+03 -0.14482409061E+03  0.26267879684E+03  0.00000000000E+00 0.  1.
         13    1    4    4    0    0  0.31138928867E+02 -0.10604897429E+03 -0.81166395215E+02  0.13712768338E+03  0.00000000000E+00 0. -1.
        -13    1    3    3    0    0 -0.32965999976E+02  0.48816779607E+02 -0.43895710418E+02  0.73462020927E+02  0.00000000000E+00 0.  1.
         13    1    3    3    0    0 -0.17756453648E+03  0.12484145688E+03 -0.19912444090E+02  0.21797031770E+03  0.00000000000E+00 0. -1.
         21    1    1    2  502  501  0.99992671508E+01  0.71431624197E+02 -0.89705980929E+01  0.72683793993E+02  0.00000000000E+00 0.  1.
<scales pt_clust_5="13000.00000" pt_clust_6="13000.00000" pt_clust_7="13000.00000" pt_clust_8="13000.00000" pt_clust_9="72.12810"></scales>
<clustering>
<clus scale="   72.128">  1  9  2 -1</clus>
<clus scale="   79.881">  7  8 -1 -1</clus>
<clus scale="   92.150">  5  6 -1 -1</clus>
<clus scale="  306.943">  1  7  2 -1</clus>
<clus scale="  310.362">  2  5  1 -1</clus>
</clustering>
</event>
<event>
 9    1  0.1713970E-005  0.9713071E+02  0.7546771E-02  0.1291952E+00
         -1   -1    0    0    0  501 -0.00000000000E+00  0.00000000000E+00  0.82533544039E+02  0.82533544039E+02  0.00000000000E+00 0.  1.
          1   -1    0    0  502    0  0.00000000000E+00 -0.00000000000E+00 -0.18109986498E+03  0.18109986498E+03  0.00000000000E+00 0. -1.
         23    2    1    2    0    0  0.18366342337E+02 -0.12450199045E+02  0.15971000598E+02  0.89663339385E+02  0.85393861504E+02 0.  0.
         23    2    1    2    0    0  0.91152558661E+00  0.21401591727E+02 -0.11729035458E+03  0.15253778526E+03  0.95141419192E+02 0.  0.
        -11    1    4    4    0    0  0.38673411897E+02 -0.77985007340E+01 -0.20143651110E+02  0.44296908261E+02  0.00000000000E+00 0.  1.
         11    1    4    4    0    0 -0.37761886310E+02  0.29200092461E+02 -0.97146703471E+02  0.10824087700E+03  0.00000000000E+00 0. -1.
        -13    1    3    3    0    0 -0.29401125788E+02  0.58151206605E+01 -0.10902260050E+02  0.31892022515E+02  0.00000000000E+00 0. -1.
         13    1    3    3    0    0  0.47767468125E+02 -0.18265319706E+02  0.26873260648E+02  0.57771316870E+02  0.00000000000E+00 0.  1.
         21    1    1    2  502  501 -0.19277867924E+02 -0.89513926815E+01  0.27530330434E+01  0.21432284376E+02  0.00000000000E+00 0. -1.
<scales pt_clust_5="13000.00000" pt_clust_6="13000.00000" pt_clust_7="13000.00000" pt_clust_8="13000.00000" pt_clust_9="21.25473"></scales>
<clustering>
<clus scale="   21.255">  1  9  2 -1</clus>
<clus scale="   85.394">  7  8 -1 -1</clus>
<clus scale="   87.605">  1  7  2 -1</clus>
<clus scale="   95.141">  5  6 -1 -1</clus>
<clus scale="   97.131">  2  5  1 -1</clus>
</clustering>
</event>
<event>
 9    1  0.1713970E-005  0.9657116E+02  0.7546771E-02  0.1287766E+00
          2   -1    0    0  502    0  0.00000000000E+00  0.00000000000E+00  0.78591909247E+02  0.78591909247E+02  0.00000000000E+00 0. -1.
         -2   -1    0    0    0  501 -0.00000000000E+00 -0.00000000000E+00 -0.29674248193E+03  0.29674248193E+03  0.00000000000E+00 0.  1.
         23    2    1    2    0    0 -0.23911451268E+01  0.55619447024E+02 -0.47942700950E+02  0.11716518263E+03  0.91268488448E+02 0.  0.
         23    2    1    2    0    0  0.22489922932E+02 -0.95374242090E+01 -0.15603274168E+02  0.95595855000E+02  0.91095259121E+02 0.  0.
        -13    1    3    3    0    0  0.32920730585E+02  0.36926056322E+02  0.62203927755E+01  0.49859817730E+02  0.00000000000E+00 0. -1.
         13    1    3    3    0    0 -0.35311875712E+02  0.18693390702E+02 -0.54163093726E+02  0.67305364899E+02  0.00000000000E+00 0.  1.
        -13    1    4    4    0    0  0.54566038894E+02  0.13142855169E+01  0.67848586010E+01  0.55001947722E+02  0.00000000000E+00 0. -1.
         13    1    4    4    0    0 -0.32076115962E+02 -0.10851709726E+02 -0.22388132769E+02  0.40593907278E+02  0.00000000000E+00 0.  1.
         21    1    1    2  502  501 -0.20098777805E+02 -0.46082022815E+02 -0.15460459756E+03  0.16257335354E+03  0.00000000000E+00 0.  1.
<scales pt_clust_5="13000.00000" pt_clust_6="13000.00000" pt_clust_7="13000.00000" pt_clust_8="13000.00000" pt_clust_9="50.27438"></scales>
<clustering>
<clus scale="   50.274">  2  9  1 -1</clus>
<clus scale="   91.095">  7  8 -1 -1</clus>
<clus scale="   91.268">  5  6 -1 -1</clus>
<clus scale="   96.407">  1  7  2 -1</clus>
<clus scale="   96.407">  1  5  2 -1</clus>
</clustering>
</event>
<event>
 9    1  0.1713970E-005  0.9664796E+02  0.7546771E-02  0.1289714E+00
          3   -1    0    0  502    0  0.00000000000E+00  0.00000000000E+00  0.45026946365E+02  0.45026946365E+02  0.00000000000E+00 0. -1.
         -3   -1    0    0    0  501 -0.00000000000E+00 -0.00000000000E+00 -0.32687905173E+03  0.32687905173E+03  0.00000000000E+00 0.  1.
         23    2    1    2    0    0  0.19813535602E+02  0.38917267458E+02 -0.10329205333E+03  0.14222015154E+03  0.87465383576E+02 0.  0.
         23    2    1    2    0    0 -0.30903996301E+02  0.32597745157E+01 -0.95850119615E+02  0.13618272303E+03  0.91612256294E+02 0.  0.
        -11    1    3    3    0    0  0.37750678003E+02  0.61951952282E+01 -0.97138749196E+02  0.10440033874E+03  0.00000000000E+00 0.  1.
         11    1    3    3    0    0 -0.17937142401E+02  0.32722072230E+02 -0.61533041314E+01  0.37819812800E+02  0.00000000000E+00 0. -1.
        -13    1    4    4    0    0  0.20689072835E+02 -0.28833597334E+02 -0.28857363718E+02  0.45740152063E+02  0.00000000000E+00 0.  1.
         13    1    4    4    0    0 -0.51593069137E+02  0.32093371850E+02 -0.66992755897E+02  0.90442570963E+02  0.00000000000E+00 0. -1.
         21    1    1    2  502  501  0.11090460699E+02 -0.42177041974E+02 -0.82709932418E+02  0.93503123524E+02  0.00000000000E+00 0.  1.
<scales pt_clust_5="13000.00000" pt_clust_6="13000.00000" pt_clust_7="13000.00000" pt_clust_8="13000.00000" pt_clust_9="43.61079"></scales>
<clustering>
<clus scale="   43.611">  2  9  1 -1</clus>
<clus scale="   87.465">  5  6 -1 -1</clus>
<clus scale="   91.612">  7  8 -1 -1</clus>
<clus scale="   92.727">  2  5  1 -1</clus>
<clus scale="   96.648">  1  5  2 -1</clus>
</clustering>
</event>
<event>
 9    1  0.1713970E-005  0.1001328E+03  0.7546771E-02  0.1280508E+00
          1   -1    0    0  502    0  0.00000000000E+00  0.00000000000E+00  0.29800553043E+03  0.29800553043E+03  0.00000000000E+00 0. -1.
         -1   -1    0    0    0  501 -0.00000000000E+00 -0.00000000000E+00 -0.89523174875E+02  0.89523174875E+02  0.00000000000E+00 0.  1.
         23    2    1    2    0    0 -0.22881229074E+02 -0.39948368852E+02 -0.26749650347E+02  0.10549172622E+03  0.91068862352E+02 0.  0.
         23    2    1    2    0    0  0.46166039708E+02 -0.72031327673E+01  0.17311534979E+03  0.20064947710E+03  0.90044988681E+02 0.  0.
        -11    1    4    4    0    0  0.68506147083E+02  0.86452356924E+00  0.83862358855E+02  0.10829004951E+03  0.00000000000E+00 0. -1.
         11    1    4    4    0    0 -0.22340107375E+02 -0.80676563365E+01  0.89252990931E+02  0.92359427599E+02  0.00000000000E+00 0.  1.
        -13    1    3    3    0    0  0.22780438476E+02 -0.13925451004E+02  0.21397135212E+02  0.34215551407E+02  0.00000000000E+00 0. -1.
         13    1    3    3    0    0 -0.45661667550E+02 -0.26022917848E+02 -0.48146785559E+02  0.71276174816E+02  0.00000000000E+00 0.  1.
         21    1    1    2  502  501 -0.23284810634E+02  0.47151501620E+02  0.62116656121E+02  0.81387501982E+02  0.00000000000E+00 0.  1.
<scales pt_clust_5="13000.00000" pt_clust_6="13000.00000" pt_clust_7="13000.00000" pt_clust_8="13000.00000" pt_clust_9="52.58751"></scales>
<clustering>
<clus scale="   52.588">  1  9  2 -1</clus>
<clus scale="   90.045">  5  6 -1 -1</clus>
<clus scale="   91.069">  7  8 -1 -1</clus>
<clus scale="   99.202">  1  5  2 -1</clus>
<clus scale="   52.588">  1  5  2 -1</clus>
</clustering>
</event>
<event>
 9    1  0.1713970E-005  0.1376122E+03  0.7546771E-02  0.1216585E+00
         -1   -1    0    0    0  501 -0.00000000000E+00  0.00000000000E+00  0.56003414390E+02  0.56003414390E+02  0.00000000000E+00 0.  1.
          1   -1    0    0  502    0  0.00000000000E+00 -0.00000000000E+00 -0.51483251387E+03  0.51483251387E+03  0.00000000000E+00 0. -1.
         23    2    1    2    0    0  0.50427516396E+02  0.71065546355E+02 -0.79271131733E+02  0.14986503653E+03  0.92641084625E+02 0.  0.
         23    2    1    2    0    0 -0.55780451214E+02 -0.91552083408E+02 -0.37269428681E+03  0.39871191089E+03  0.92611628596E+02 0.  0.
        -11    1    3    3    0    0  0.36536847668E+02  0.15452266935E+02  0.12560854463E+02  0.41611162634E+02  0.00000000000E+00 0.  1.
         11    1    3    3    0    0  0.13890668728E+02  0.55613279421E+02 -0.91831986197E+02  0.10825387390E+03  0.00000000000E+00 0. -1.
        -13    1    4    4    0    0 -0.77589196138E+02 -0.61150744457E+02 -0.31338486451E+03  0.32858723379E+03  0.00000000000E+00 0. -1.
         13    1    4    4    0    0  0.21808744924E+02 -0.30401338951E+02 -0.59309422308E+02  0.70124677110E+02  0.00000000000E+00 0.  1.
         21    1    1    2  502  501  0.53529348183E+01  0.20486537053E+02 -0.68636809285E+01  0.22258980828E+02  0.00000000000E+00 0. -1.
<scales pt_clust_5="13000.00000" pt_clust_6="13000.00000" pt_clust_7="13000.00000" pt_clust_8="13000.00000" pt_clust_9="21.17433"></scales>
<clustering>
<clus scale="   21.174">  1  9  2 -1</clus>
<clus scale="   92.612">  7  8 -1 -1</clus>
<clus scale="   92.641">  5  6 -1 -1</clus>
<clus scale="  137.592">  2  7  1 -1</clus>
<clus scale="  137.592">  2  5  1 -1</clus>
</clustering>
</event>
<event>
 9    1  0.1713970E-005  0.1330627E+03  0.7546771E-02  0.1223155E+00
          2   -1    0    0  502    0  0.00000000000E+00  0.00000000000E+00  0.44367041341E+03  0.44367041341E+03  0.00000000000E+00 0. -1.
         -2   -1    0    0    0  501 -0.00000000000E+00 -0.00000000000E+00 -0.20691515942E+03  0.20691515942E+03  0.00000000000E+00 0.  1.
         23    2    1    2    0    0  0.77385008550E+02 -0.34569035328E+02 -0.15505717386E+03  0.19913429216E+03  0.91805671938E+02 0.  0.
         23    2    1    2    0    0 -0.73929026304E+02  0.62031193342E+02  0.40067593366E+03  0.42238797611E+03  0.92504208935E+02 0.  0.
        -11    1    3    3    0    0  0.39943420328E+02 -0.21449002833E+02 -0.15281330369E+03  0.15939712147E+03  0.00000000000E+00 0.  1.
         11    1    3    3    0    0  0.37441588222E+02 -0.13120032495E+02 -0.22438701682E+01  0.39737170692E+02  0.00000000000E+00 0. -1.
        -13    1    4    4    0    0 -0.62918291155E+02  0.41589384687E+02  0.38928833831E+03  0.39652717261E+03  0.00000000000E+00 0. -1.
         13    1    4    4    0    0 -0.11010735150E+02  0.20441808655E+02  0.11387595357E+02  0.25860803499E+02  0.00000000000E+00 0.  1.
         21    1    1    2  502  501 -0.34559822454E+01 -0.27462158014E+02 -0.88635058194E+01  0.29063304552E+02  0.00000000000E+00 0. -1.
<scales pt_clust_5="13000.00000" pt_clust_6="13000.00000" pt_clust_7="13000.00000" pt_clust_8="13000.00000" pt_clust_9="27.67876"></scales>
<clustering>
<clus scale="   27.679">  2  9  1 -1</clus>
<clus scale="   91.806">  5  6 -1 -1</clus>
<clus scale="   92.504">  7  8 -1 -1</clus>
<clus scale="  132.578">  2  5  1 -1</clus>
<clus scale="  133.063">  1  5  2 -1</clus>
</clustering>
</event>
<event>
 9    1  0.1713970E-005  0.1332905E+03  0.7546771E-02  0.1222683E+00
         -2   -1    0    0    0  501 -0.00000000000E+00  0.00000000000E+00  0.85898257434E+02  0.85898257434E+02  0.00000000000E+00 0.  1.
          2   -1    0    0  502    0  0.00000000000E+00 -0.00000000000E+00 -0.37305183900E+03  0.37305183900E+03  0.00000000000E+00 0. -1.
         23    2    1    2    0    0 -0.53488036913E+02 -0.99762078635E+02 -0.15363933211E+03  0.21094490255E+03  0.89884732376E+02 0.  0.
         23    2    1    2    0    0  0.25667353913E+02  0.84332576717E+02 -0.16212948590E+03  0.20521627371E+03  0.89760527223E+02 0.  0.
        -11    1    4    4    0    0 -0.31855240285E+02  0.48039910978E+02 -0.79409654947E+02  0.98124832124E+02  0.00000000000E+00 0. -1.
         11    1    4    4    0    0  0.57522594198E+02  0.36292665738E+02 -0.82719830950E+02  0.10709144159E+03  0.00000000000E+00 0.  1.
        -11    1    3    3    0    0 -0.29208023875E+02 -0.10402535734E+03 -0.83358751837E+02  0.13646635166E+03  0.00000000000E+00 0. -1.
         11    1    3    3    0    0 -0.24280013038E+02  0.42632787073E+01 -0.70280580275E+02  0.74478550887E+02  0.00000000000E+00 0.  1.
         21    1    1    2  502  501  0.27820683000E+02  0.15429501918E+02  0.28615236446E+02  0.42788920165E+02  0.00000000000E+00 0.  1.
<scales pt_clust_5="13000.00000" pt_clust_6="13000.00000" pt_clust_7="13000.00000" pt_clust_8="13000.00000" pt_clust_9="31.81289"></scales>
<clustering>
<clus scale="   31.813">  1  9  2 -1</clus>
<clus scale="   89.761">  5  6 -1 -1</clus>
<clus scale="   89.885">  7  8 -1 -1</clus>
<clus scale="  133.207">  2  5  1 -1</clus>
<clus scale="  133.207">  2  5  1 -1</clus>
</clustering>
</event>
<event>
 9    1  0.1713970E-005  0.2263328E+03  0.7546771E-02  0.1129602E+00
          2   -1    0    0  502    0  0.00000000000E+00  0.00000000000E+00  0.15238211703E+04  0.15238211703E+04  0.00000000000E+00 0. -1.
         -2   -1    0    0    0  501 -0.00000000000E+00 -0.00000000000E+00 -0.40215235702E+02  0.40215235702E+02  0.00000000000E+00 0.  1.
         23    2    1    2    0    0  0.18323753433E+03  0.67066382096E+02  0.59388983401E+03  0.63184710476E+03  0.91933319627E+02 0.  0.
         23    2    1    2    0    0 -0.20613185169E+03 -0.53345352934E+02  0.86416710177E+03  0.89524112471E+03  0.96622071171E+02 0.  0.
        -13    1    4    4    0    0 -0.51387959607E+01 -0.31168642966E+02  0.11301060828E+03  0.11734261422E+03  0.00000000000E+00 0.  1.
         13    1    4    4    0    0 -0.20099305573E+03 -0.22176709968E+02  0.75115649349E+03  0.77789851050E+03  0.00000000000E+00 0. -1.
        -13    1    3    3    0    0  0.13892676221E+03  0.50320518776E+01  0.36378022402E+03  0.38943808005E+03  0.00000000000E+00 0.  1.
         13    1    3    3    0    0  0.44310772121E+02  0.62034330218E+02  0.23010960998E+03  0.24240902471E+03  0.00000000000E+00 0. -1.
         21    1    1    2  502  501  0.22894317360E+02 -0.13721029162E+02  0.25548998839E+02  0.36948176549E+02  0.00000000000E+00 0.  1.
<scales pt_clust_5="13000.00000" pt_clust_6="13000.00000" pt_clust_7="13000.00000" pt_clust_8="13000.00000" pt_clust_9="26.69113"></scales>
<clustering>
<clus scale="   26.691">  2  9  1 -1</clus>
<clus scale="   91.933">  7  8 -1 -1</clus>
<clus scale="   96.622">  5  6 -1 -1</clus>
<clus scale="  224.371">  2  7  1 -1</clus>
<clus scale="  226.333">  1  5  2 -1</clus>
</clustering>
</event>
<event>
 9    1  0.1713970E-005  0.1008424E+03  0.7546771E-02  0.1278814E+00
          2   -1    0    0  502    0  0.00000000000E+00  0.00000000000E+00  0.46107765375E+03  0.46107765375E+03  0.00000000000E+00 0. -1.
         -2   -1    0    0    0  501 -0.00000000000E+00 -0.00000000000E+00 -0.75917611219E+02  0.75917611219E+02  0.00000000000E+00 0.  1.
         23    2    1    2    0    0  0.34180736985E+02  0.91642670095E+01  0.13696637971E+03  0.16760509183E+03  0.89885321736E+02 0.  0.
         23    2    1    2    0    0 -0.50430753104E+02  0.72764398749E+01  0.29740875610E+03  0.31501660169E+03  0.90483610115E+02 0.  0.
        -11    1    3    3    0    0 -0.10118397379E+02  0.39879508142E+02  0.74409339626E+02  0.85026507389E+02  0.00000000000E+00 0. -1.
         11    1    3    3    0    0  0.44299134363E+02 -0.30715241133E+02  0.62557040088E+02  0.82578584438E+02  0.00000000000E+00 0.  1.
        -11    1    4    4    0    0 -0.25055715498E+01  0.43405525302E+02  0.13781856384E+03  0.14451392339E+03  0.00000000000E+00 0. -1.
         11    1    4    4    0    0 -0.47925181554E+02 -0.36129085428E+02  0.15959019226E+03  0.17050267830E+03  0.00000000000E+00 0.  1.
         21    1    1    2  502  501  0.16250016119E+02 -0.16440706884E+02 -0.49215093278E+02  0.54373571458E+02  0.00000000000E+00 0.  1.
<scales pt_clust_5="13000.00000" pt_clust_6="13000.00000" pt_clust_7="13000.00000" pt_clust_8="13000.00000" pt_clust_9="23.11623"></scales>
<clustering>
<clus scale="   23.116">  2  9  1 -1</clus>
<clus scale="   89.885">  5  6 -1 -1</clus>
<clus scale="   90.484">  7  8 -1 -1</clus>
<clus scale="  100.306">  2  5  1 -1</clus>
<clus scale="  100.842">  1  5  2 -1</clus>
</clustering>
</event>
<event>
 9    1  0.1713970E-005  0.9839707E+02  0.7546771E-02  0.1284455E+00
         -2   -1    0    0    0  501 -0.00000000000E+00  0.00000000000E+00  0.30582689805E+02  0.30582689805E+02  0.00000000000E+00 0.  1.
          2   -1    0    0  502    0  0.00000000000E+00 -0.00000000000E+00 -0.60737119596E+03  0.60737119596E+03  0.00000000000E+00 0. -1.
         23    2    1    2    0    0 -0.10305432944E+02  0.30078106258E+02 -0.89696572737E+02  0.13173408965E+03  0.91090618573E+02 0.  0.
         23    2    1    2    0    0 -0.16041431632E+02 -0.44304867746E+02 -0.42161024312E+03  0.43421695048E+03  0.92568429504E+02 0.  0.
        -11    1    3    3    0    0 -0.15766928839E+02  0.61721799355E+02 -0.52139956142E+02  0.82321027612E+02  0.00000000000E+00 0.  1.
         11    1    3    3    0    0  0.54614958951E+01 -0.31643693098E+02 -0.37556616595E+02  0.49413062042E+02  0.00000000000E+00 0. -1.
        -13    1    4    4    0    0  0.69316533029E+01  0.25914493119E+02 -0.70808772403E+02  0.75719819204E+02  0.00000000000E+00 0.  1.
         13    1    4    4    0    0 -0.22973084935E+02 -0.70219360865E+02 -0.35080147072E+03  0.35849713127E+03  0.00000000000E+00 0. -1.
         21    1    1    2  502  501  0.26346864576E+02  0.14226761489E+02 -0.65481690297E+02  0.72002845635E+02  0.00000000000E+00 0.  1.
<scales pt_clust_5="13000.00000" pt_clust_6="13000.00000" pt_clust_7="13000.00000" pt_clust_8="13000.00000" pt_clust_9="29.94258"></scales>
<clustering>
<clus scale="   29.943">  2  9  1 -1</clus>
<clus scale="   91.091">  5  6 -1 -1</clus>
<clus scale="   92.568">  7  8 -1 -1</clus>
<clus scale="   97.008">  1  5  2 -1</clus>
<clus scale="   29.943">  2  5  1 -1</clus>
</clustering>
</event>
<event>
 9    1  0.1713970E-005  0.1564910E+03  0.7546771E-02  0.1192901E+00
          1   -1    0    0  502    0  0.00000000000E+00  0.00000000000E+00  0.34886313748E+03  0.34886313748E+03  0.00000000000E+00 0. -1.
         -1   -1    0    0    0  501 -0.00000000000E+00 -0.00000000000E+00 -0.10794535726E+03  0.10794535726E+03  0.00000000000E+00 0.  1.
         23    2    1    2    0    0 -0.11844951220E+03  0.96726214487E+01  0.42822905411E+02  0.15586002548E+03  0.91294576888E+02 0.  0.
         23    2    1    2    0    0  0.12808080198E+03 -0.28674866124E+02  0.21920901379E+03  0.27095423797E+03  0.90203478676E+02 0.  0.
        -11    1    4    4    0    0  0.50325007649E+02  0.55434666360E+01  0.20088615028E+02  0.54469155225E+02  0.00000000000E+00 0.  1.
         11    1    4    4    0    0  0.77755794333E+02 -0.34218332760E+02  0.19912039876E+03  0.21648508274E+03  0.00000000000E+00 0. -1.
        -13    1    3    3    0    0 -0.14360991448E-01  0.27623857506E+02  0.19525000547E+02  0.33827553209E+02  0.00000000000E+00 0. -1.
         13    1    3    3    0    0 -0.11843515121E+03 -0.17951236057E+02  0.23297904864E+02  0.12203247228E+03  0.00000000000E+00 0.  1.
         21    1    1    2  502  501 -0.96312897776E+01  0.19002244675E+02 -0.21114138982E+02  0.29994231286E+02  0.00000000000E+00 0.  1.
<scales pt_clust_5="13000.00000" pt_clust_6="13000.00000" pt_clust_7="13000.00000" pt_clust_8="13000.00000" pt_clust_9="21.30369"></scales>
<clustering>
<clus scale="   21.304">  2  9  1 -1</clus>
<clus scale="   90.203">  5  6 -1 -1</clus>
<clus scale="   91.295">  7  8 -1 -1</clus>
<clus scale="  155.857">  1  5  2 -1</clus>
<clus scale="  155.857">  1  5  2 -1</clus>
</clustering>
</event>
<event>
 9    1  0.1713970E-005  0.1002996E+03  0.7546771E-02  0.1281841E+00
         -1   -1    0    0    0  501 -0.00000000000E+00  0.00000000000E+00  0.20441921903E+03  0.20441921903E+03  0.00000000000E+00 0.  1.
          1   -1    0    0  502    0  0.00000000000E+00 -0.00000000000E+00 -0.15314103668E+03  0.15314103668E+03  0.00000000000E+00 0. -1.
         23    2    1    2    0    0  0.22439611188E+02  0.34021962860E+02  0.16080967742E+03  0.18782902912E+03  0.88084968744E+02 0.  0.
         23    2    1    2    0    0 -0.13699684865E+01 -0.22791848379E+02 -0.11041237113E+03  0.14583936067E+03  0.92503417535E+02 0.  0.
        -11    1    3    3    0    0  0.46358708197E+02  0.36085783875E+02  0.15076095143E+03  0.16180289892E+03  0.00000000000E+00 0. -1.
         11    1    3    3    0    0 -0.23919097009E+02 -0.20638210149E+01  0.10048725996E+02  0.26026130197E+02  0.00000000000E+00 0.  1.
        -13    1    4    4    0    0 -0.34319253426E+02  0.20414874804E+02 -0.57420618530E+02  0.69940729918E+02  0.00000000000E+00 0.  1.
         13    1    4    4    0    0  0.32949284940E+02 -0.43206723183E+02 -0.52991752596E+02  0.75898630748E+02  0.00000000000E+00 0. -1.
         21    1    1    2  502  501 -0.21069642702E+02 -0.11230114482E+02  0.88087604514E+00  0.23891865927E+02  0.00000000000E+00 0. -1.
<scales pt_clust_5="13000.00000" pt_clust_6="13000.00000" pt_clust_7="13000.00000" pt_clust_8="13000.00000" pt_clust_9="23.87562"></scales>
<clustering>
<clus scale="   23.876">  2  9  1 -1</clus>
<clus scale="   88.085">  5  6 -1 -1</clus>
<clus scale="   92.503">  7  8 -1 -1</clus>
<clus scale="   96.240">  1  5  2 -1</clus>
<clus scale="   23.876">  2  5  1 -1</clus>
</clustering>
</event>
<event>
 9    1  0.1713970E-005  0.9156912E+02  0.7546771E-02  0.1299197E+00
          4   -1    0    0  502    0  0.00000000000E+00  0.00000000000E+00  0.10104903933E+03  0.10104903933E+03  0.00000000000E+00 0. -1.
         -4   -1    0    0    0  501 -0.00000000000E+00 -0.00000000000E+00 -0.10681565408E+03  0.10681565408E+03  0.00000000000E+00 0.  1.
         23    2    1    2    0    0  0.76672630872E+01 -0.73534927324E+01 -0.51786075823E+01  0.91488313771E+02  0.90721732796E+02 0.  0.
         23    2    1    2    0    0 -0.12681948948E+02 -0.15334407343E+02  0.13936693952E+01  0.93056539886E+02  0.90893351921E+02 0.  0.
        -11    1    4    4    0    0 -0.10404991452E+02 -0.46700972713E+02  0.24763828816E+02  0.53874779972E+02  0.00000000000E+00 0. -1.
         11    1    4    4    0    0 -0.22769574956E+01  0.31366565370E+02 -0.23370159421E+02  0.39181759913E+02  0.00000000000E+00 0.  1.
        -13    1    3    3    0    0 -0.35599794405E+02  0.19269537675E+02 -0.39364667706E+01  0.40671319311E+02  0.00000000000E+00 0.  1.
         13    1    3    3    0    0  0.43267057492E+02 -0.26623030407E+02 -0.12421408117E+01  0.50816994459E+02  0.00000000000E+00 0. -1.
         21    1    1    2  502  501  0.50146858604E+01  0.22687900076E+02 -0.19816765588E+01  0.23319839753E+02  0.00000000000E+00 0.  1.
<scales pt_clust_5="13000.00000" pt_clust_6="13000.00000" pt_clust_7="13000.00000" pt_clust_8="13000.00000" pt_clust_9="23.23549"></scales>
<clustering>
<clus scale="   23.235">  2  9  1 -1</clus>
<clus scale="   90.722">  7  8 -1 -1</clus>
<clus scale="   90.893">  5  6 -1 -1</clus>
<clus scale="   91.399">  2  7  1 -1</clus>
<clus scale="   91.569">  1  5  2 -1</clus>
</clustering>
</event>
<event>
 9    1  0.1713970E-005  0.1155286E+03  0.7546771E-02  0.1251748E+00
         -1   -1    0    0    0  501 -0.00000000000E+00  0.00000000000E+00  0.43484073768E+02  0.43484073768E+02  0.00000000000E+00 0.  1.
          1   -1    0    0  502    0  0.00000000000E+00 -0.00000000000E+00 -0.70830113796E+03  0.70830113796E+03  0.00000000000E+00 0. -1.
         23    2    1    2    0    0  0.46131015100E+02  0.30634015854E+02 -0.19555739045E+03  0.22293928620E+03  0.91611783578E+02 0.  0.
         23    2    1    2    0    0 -0.42359317566E+02 -0.60082224280E+02 -0.48189959141E+03  0.49657844654E+03  0.94650683612E+02 0.  0.
        -11    1    3    3    0    0 -0.14421389359E+02  0.30275587216E+02 -0.24644590121E+02  0.41616624978E+02  0.00000000000E+00 0. -1.
         11    1    3    3    0    0  0.60552404458E+02  0.35842863810E+00 -0.17091280033E+03  0.18132266122E+03  0.00000000000E+00 0.  1.
        -11    1    4    4    0    0  0.27406230348E+02 -0.30126535880E+02 -0.22649454528E+03  0.23012711416E+03  0.00000000000E+00 0.  1.
         11    1    4    4    0    0 -0.69765547913E+02 -0.29955688400E+02 -0.25540504612E+03  0.26645133238E+03  0.00000000000E+00 0. -1.
         21    1    1    2  502  501 -0.37716975338E+01  0.29448208426E+02  0.12639917665E+02  0.32267478990E+02  0.00000000000E+00 0.  1.
<scales pt_clust_5="13000.00000" pt_clust_6="13000.00000" pt_clust_7="13000.00000" pt_clust_8="13000.00000" pt_clust_9="29.68876"></scales>
<clustering>
<clus scale="   29.689">  1  9  2 -1</clus>
<clus scale="   91.612">  5  6 -1 -1</clus>
<clus scale="   94.651">  7  8 -1 -1</clus>
<clus scale="  113.052">  1  5  2 -1</clus>
<clus scale="  115.529">  2  5  1 -1</clus>
</clustering>
</event>
<event>
 9    1  0.1713970E-005  0.1060449E+03  0.7546771E-02  0.1271169E+00
          1   -1    0    0  502    0  0.00000000000E+00  0.00000000000E+00  0.33392348175E+03  0.33392348175E+03  0.00000000000E+00 0. -1.
         -1   -1    0    0    0  501 -0.00000000000E+00 -0.00000000000E+00 -0.69458056515E+02  0.69458056515E+02  0.00000000000E+00 0.  1.
         23    2    1    2    0    0  0.41098518596E+02 -0.14065179511E+02  0.12911700610E+02  0.10810318330E+03  0.98146159998E+02 0.  0.
         23    2    1    2    0    0 -0.22557505317E+02  0.34290141748E+02  0.24814921274E+03  0.26763040798E+03  0.91451345669E+02 0.  0.
        -13    1    4    4    0    0 -0.31870722773E+01 -0.29940257207E+02  0.11010462722E+03  0.11414729680E+03  0.00000000000E+00 0.  1.
         13    1    4    4    0    0 -0.19370433039E+02  0.64230398956E+02  0.13804458552E+03  0.15348311118E+03  0.00000000000E+00 0. -1.
        -13    1    3    3    0    0 -0.28895852906E+02  0.82067532456E+01  0.17039364067E+02  0.34534924957E+02  0.00000000000E+00 0. -1.
         13    1    3    3    0    0  0.69994371502E+02 -0.22271932756E+02 -0.41276634567E+01  0.73568258347E+02  0.00000000000E+00 0.  1.
         21    1    1    2  502  501 -0.18541013279E+02 -0.20224962238E+02  0.34045118810E+01  0.27647946978E+02  0.00000000000E+00 0.  1.
<scales pt_clust_5="13000.00000" pt_clust_6="13000.00000" pt_clust_7="13000.00000" pt_clust_8="13000.00000" pt_clust_9="27.43753"></scales>
<clustering>
<clus scale="   27.438">  2  9  1 -1</clus>
<clus scale="   91.451">  5  6 -1 -1</clus>
<clus scale="   98.146">  7  8 -1 -1</clus>
<clus scale="   99.881">  1  5  2 -1</clus>
<clus scale="   99.881">  1  5  2 -1</clus>
</clustering>
</event>
<event>
 9    1  0.1713970E-005  0.9629699E+02  0.7546771E-02  0.1288780E+00
          1   -1    0    0  502    0  0.00000000000E+00  0.00000000000E+00  0.10830132615E+03  0.10830132615E+03  0.00000000000E+00 0. -1.
         -1   -1    0    0    0  501 -0.00000000000E+00 -0.00000000000E+00 -0.17310135149E+03  0.17310135149E+03  0.00000000000E+00 0.  1.
         23    2    1    2    0    0  0.40417753831E+02 -0.27488219602E+02 -0.59690697073E+02  0.12008217970E+03  0.92019310602E+02 0.  0.
         23    2    1    2    0    0 -0.17057753574E+02  0.13429982158E+02  0.45297550566E+02  0.10401275774E+03  0.91079384649E+02 0.  0.
        -11    1    4    4    0    0 -0.38585383426E+02 -0.25601197059E+02  0.10544279096E+02  0.47491419506E+02  0.00000000000E+00 0. -1.
         11    1    4    4    0    0  0.21527629852E+02  0.39031179218E+02  0.34753271470E+02  0.56521338236E+02  0.00000000000E+00 0.  1.
        -13    1    3    3    0    0 -0.83416858166E+01 -0.38135865145E+02 -0.58289466680E+02  0.70154043779E+02  0.00000000000E+00 0.  1.
         13    1    3    3    0    0  0.48759439648E+02  0.10647645543E+02 -0.14012303931E+01  0.49928135925E+02  0.00000000000E+00 0. -1.
         21    1    1    2  502  501 -0.23360000257E+02  0.14058237444E+02 -0.50406878831E+02  0.57307740189E+02  0.00000000000E+00 0.  1.
<scales pt_clust_5="13000.00000" pt_clust_6="13000.00000" pt_clust_7="13000.00000" pt_clust_8="13000.00000" pt_clust_9="27.26396"></scales>
<clustering>
<clus scale="   27.264">  2  9  1 -1</clus>
<clus scale="   91.079">  5  6 -1 -1</clus>
<clus scale="   92.019">  7  8 -1 -1</clus>
<clus scale="   95.399">  1  5  2 -1</clus>
<clus scale="   95.399">  1  5  2 -1</clus>
</clustering>
</event>
<event>
 9    1  0.1713970E-005  0.9518140E+02  0.7546771E-02  0.1291433E+00
          3   -1    0    0  502    0  0.00000000000E+00  0.00000000000E+00  0.23216430707E+03  0.23216430707E+03  0.00000000000E+00 0. -1.
         -3   -1    0    0    0  501 -0.00000000000E+00 -0.00000000000E+00 -0.65329645315E+02  0.65329645315E+02  0.00000000000E+00 0.  1.
         23    2    1    2    0    0 -0.72556677402E+00 -0.83761631477E+01  0.58862435878E+02  0.10922642765E+03  0.91623902904E+02 0.  0.
         23    2    1    2    0    0 -0.47232262781E+01  0.37559723710E+02  0.12111357970E+03  0.15580116163E+03  0.90401665183E+02 0.  0.
        -11    1    4    4    0    0  0.38967293198E+02  0.23714977444E+02  0.32412202784E+02  0.55958922288E+02  0.00000000000E+00 0.  1.
         11    1    4    4    0    0 -0.43690519476E+02  0.13844746267E+02  0.88701376914E+02  0.99842239347E+02  0.00000000000E+00 0. -1.
        -13    1    3    3    0    0 -0.21355571178E+02 -0.37786994713E+02  0.59068761385E+02  0.73300995637E+02  0.00000000000E+00 0.  1.
         13    1    3    3    0    0  0.20630004404E+02  0.29410831565E+02 -0.20632550735E+00  0.35925432013E+02  0.00000000000E+00 0. -1.
         21    1    1    2  502  501  0.54487930522E+01 -0.29183560562E+02 -0.13141353820E+02  0.32466363102E+02  0.00000000000E+00 0.  1.
<scales pt_clust_5="13000.00000" pt_clust_6="13000.00000" pt_clust_7="13000.00000" pt_clust_8="13000.00000" pt_clust_9="29.68787"></scales>
<clustering>
<clus scale="   29.688">  2  9  1 -1</clus>
<clus scale="   90.402">  5  6 -1 -1</clus>
<clus scale="   91.624">  7  8 -1 -1</clus>
<clus scale="   94.005">  1  5  2 -1</clus>
<clus scale="   94.005">  1  5  2 -1</clus>
</clustering>
</event>
<event>
 9    1  0.1713970E-005  0.2019249E+03  0.7546771E-02  0.1148267E+00
         -2   -1    0    0    0  501 -0.00000000000E+00  0.00000000000E+00  0.13055593511E+03  0.13055593511E+03  0.00000000000E+00 0.  1.
          2   -1    0    0  502    0  0.00000000000E+00 -0.00000000000E+00 -0.54869914187E+03  0.54869914187E+03  0.00000000000E+00 0. -1.
         23    2    1    2    0    0  0.12727485755E+03 -0.79047620432E+02 -0.30429569743E+02  0.17700178545E+03  0.89197856902E+02 0.  0.
         23    2    1    2    0    0 -0.16693044618E+03  0.93419375184E+02 -0.40473832907E+03  0.45676754449E+03  0.90722219755E+02 0.  0.
        -13    1    4    4    0    0 -0.56173319192E+02 -0.12004938885E+02 -0.88602514586E+02  0.10559339912E+03  0.00000000000E+00 0.  1.
         13    1    4    4    0    0 -0.11075712699E+03  0.10542431407E+03 -0.31613581449E+03  0.35117414537E+03  0.00000000000E+00 0. -1.
        -13    1    3    3    0    0  0.16280864899E+02 -0.24321414780E+02 -0.43640794989E+02  0.52546329710E+02  0.00000000000E+00 0. -1.
         13    1    3    3    0    0  0.11099399265E+03 -0.54726205652E+02  0.13211225246E+02  0.12445545574E+03  0.00000000000E+00 0.  1.
         21    1    1    2  502  501  0.39655588631E+02 -0.14371754751E+02  0.17024692057E+02  0.45485747042E+02  0.00000000000E+00 0.  1.
<scales pt_clust_5="13000.00000" pt_clust_6="13000.00000" pt_clust_7="13000.00000" pt_clust_8="13000.00000" pt_clust_9="42.17953"></scales>
<clustering>
<clus scale="   42.180">  1  9  2 -1</clus>
<clus scale="   89.198">  7  8 -1 -1</clus>
<clus scale="   90.722">  5  6 -1 -1</clus>
<clus scale="  201.245">  1  7  2 -1</clus>
<clus scale="  201.925">  2  5  1 -1</clus>
</clustering>
</event>
<event>
 9    1  0.1713970E-005  0.2421829E+03  0.7546771E-02  0.1118416E+00
         -1   -1    0    0    0  501 -0.00000000000E+00  0.00000000000E+00  0.39583420062E+03  0.39583420062E+03  0.00000000000E+00 0.  1.
          1   -1    0    0  502    0  0.00000000000E+00 -0.00000000000E+00 -0.18122072931E+03  0.18122072931E+03  0.00000000000E+00 0. -1.
         23    2    1    2    0    0  0.89191226558E+02 -0.21489008243E+03  0.11490724279E+03  0.27512628711E+03  0.91421972155E+02 0.  0.
         23    2    1    2    0    0 -0.10255512346E+03  0.19301522791E+03  0.43919055490E+02  0.24053392256E+03  0.90306438936E+02 0.  0.
        -11    1    4    4    0    0  0.19884229503E+01  0.64866137413E+02 -0.11912829897E+02  0.65980945165E+02  0.00000000000E+00 0.  1.
         11    1    4    4    0    0 -0.10454354641E+03  0.12814909050E+03  0.55831885387E+02  0.17455297739E+03  0.00000000000E+00 0. -1.
        -13    1    3    3    0    0  0.21630432234E+02 -0.10004380151E+03  0.51289456517E+01  0.10248387142E+03  0.00000000000E+00 0. -1.
         13    1    3    3    0    0  0.67560794323E+02 -0.11484628092E+03  0.10977829714E+03  0.17264241569E+03  0.00000000000E+00 0.  1.
         21    1    1    2  502  501  0.13363896900E+02  0.21874854517E+02  0.55787173029E+02  0.61394720254E+02  0.00000000000E+00 0.  1.
<scales pt_clust_5="13000.00000" pt_clust_6="13000.00000" pt_clust_7="13000.00000" pt_clust_8="13000.00000" pt_clust_9="25.63402"></scales>
<clustering>
<clus scale="   25.634">  1  9  2 -1</clus>
<clus scale="   90.306">  5  6 -1 -1</clus>
<clus scale="   91.422">  7  8 -1 -1</clus>
<clus scale="  241.764">  2  5  1 -1</clus>
<clus scale="  241.764">  2  5  1 -1</clus>
</clustering>
</event>
<event>
 9    1  0.1713970E-005  0.9852903E+02  0.7546771E-02  0.1286325E+00
          2   -1    0    0  502    0  0.00000000000E+00  0.00000000000E+00  0.42499307573E+03  0.42499307573E+03  0.00000000000E+00 0. -1.
         -2   -1    0    0    0  501 -0.00000000000E+00 -0.00000000000E+00 -0.30643539225E+02  0.30643539225E+02  0.00000000000E+00 0.  1.
         23    2    1    2    0    0 -0.45004767854E+02 -0.47294712261E+01  0.18670473502E+03  0.21309320003E+03  0.92207682952E+02 0.  0.
         23    2    1    2    0    0  0.24287181307E+02  0.14252157794E+02  0.19773428030E+03  0.21768142823E+03  0.86564238659E+02 0.  0.
        -11    1    3    3    0    0 -0.64364859386E+02  0.62726837623E+01  0.17764991030E+03  0.18905468075E+03  0.00000000000E+00 0.  1.
         11    1    3    3    0    0  0.19360091532E+02 -0.11002154988E+02  0.90548247154E+01  0.24038519279E+02  0.00000000000E+00 0. -1.
        -13    1    4    4    0    0 -0.95696430507E+01  0.38673015496E+02  0.48745207828E+02  0.62954550923E+02  0.00000000000E+00 0.  1.
         13    1    4    4    0    0  0.33856824358E+02 -0.24420857702E+02  0.14898907247E+03  0.15472687731E+03  0.00000000000E+00 0. -1.
         21    1    1    2  502  501  0.20717586547E+02 -0.95226865680E+01  0.99105211885E+01  0.24861986687E+02  0.00000000000E+00 0.  1.
<scales pt_clust_5="13000.00000" pt_clust_6="13000.00000" pt_clust_7="13000.00000" pt_clust_8="13000.00000" pt_clust_9="22.80131"></scales>
<clustering>
<clus scale="   22.801">  2  9  1 -1</clus>
<clus scale="   86.564">  7  8 -1 -1</clus>
<clus scale="   92.208">  5  6 -1 -1</clus>
<clus scale="   93.269">  1  7  2 -1</clus>
<clus scale="   93.269">  1  5  2 -1</clus>
</clustering>
</event>
<event>
 9    1  0.1713970E-005  0.1608509E+03  0.7546771E-02  0.1188739E+00
         -1   -1    0    0    0  501 -0.00000000000E+00  0.00000000000E+00  0.18202857345E+03  0.18202857345E+03  0.00000000000E+00 0.  1.
          1   -1    0    0  502    0  0.00000000000E+00 -0.00000000000E+00 -0.30322738157E+03  0.30322738157E+03  0.00000000000E+00 0. -1.
         23    2    1    2    0    0 -0.91079498342E+02  0.36158085560E+02 -0.22889586281E+02  0.13179692463E+03  0.85109423756E+02 0.  0.
         23    2    1    2    0    0  0.12354871312E+03 -0.10206598013E+03 -0.16993719290E+03  0.25084973884E+03  0.91461429730E+02 0.  0.
        -11    1    3    3    0    0 -0.55516100696E+02  0.63918078692E+02 -0.13900215022E+02  0.85794954384E+02  0.00000000000E+00 0.  1.
         11    1    3    3    0    0 -0.35563397646E+02 -0.27759993132E+02 -0.89893712597E+01  0.46001970246E+02  0.00000000000E+00 0. -1.
        -13    1    4    4    0    0  0.28090572815E+02 -0.18165399004E+02  0.58228681391E+01  0.33955379477E+02  0.00000000000E+00 0.  1.
         13    1    4    4    0    0  0.95458140306E+02 -0.83900581124E+02 -0.17576006104E+03  0.21689435936E+03  0.00000000000E+00 0. -1.
         21    1    1    2  502  501 -0.32469214779E+02  0.65907894568E+02  0.71627971069E+02  0.10260929156E+03  0.00000000000E+00 0.  1.
<scales pt_clust_5="13000.00000" pt_clust_6="13000.00000" pt_clust_7="13000.00000" pt_clust_8="13000.00000" pt_clust_9="73.47177"></scales>
<clustering>
<clus scale="   73.472">  1  9  2 -1</clus>
<clus scale="   85.109">  5  6 -1 -1</clus>
<clus scale="   91.461">  7  8 -1 -1</clus>
<clus scale="  157.326">  1  5  2 -1</clus>
<clus scale="  160.851">  2  5  1 -1</clus>
</clustering>
</event>
<event>
 9    1  0.1713970E-005  0.1412218E+03  0.7546771E-02  0.1212066E+00
          1   -1    0    0  502    0  0.00000000000E+00  0.00000000000E+00  0.70218029891E+03  0.70218029891E+03  0.00000000000E+00 0. -1.
         -1   -1    0    0    0  501 -0.00000000000E+00 -0.00000000000E+00 -0.70057367564E+02  0.70057367564E+02  0.00000000000E+00 0.  1.
         23    2    1    2    0    0  0.44076047328E+02 -0.15759239781E+03  0.29070154657E+03  0.34513428059E+03  0.88499834260E+02 0.  0.
         23    2    1    2    0    0 -0.24874166501E+02  0.81663355361E+02  0.32381754329E+03  0.34682993479E+03  0.90252836822E+02 0.  0.
        -11    1    3    3    0    0  0.61503624871E+02 -0.13269179337E+03  0.18894237495E+03  0.23893310560E+03  0.00000000000E+00 0.  1.
         11    1    3    3    0    0 -0.17427577543E+02 -0.24900604447E+02  0.10175917163E+03  0.10620117500E+03  0.00000000000E+00 0. -1.
        -13    1    4    4    0    0 -0.43861335026E+02  0.37520394821E+01  0.11754863862E+03  0.12552122112E+03  0.00000000000E+00 0.  1.
         13    1    4    4    0    0  0.18987168525E+02  0.77911315879E+02  0.20626890467E+03  0.22130871367E+03  0.00000000000E+00 0. -1.
         21    1    1    2  502  501 -0.19201880826E+02  0.75929042454E+02  0.17603841482E+02  0.80273451092E+02  0.00000000000E+00 0.  1.
<scales pt_clust_5="13000.00000" pt_clust_6="13000.00000" pt_clust_7="13000.00000" pt_clust_8="13000.00000" pt_clust_9="78.31942"></scales>
<clustering>
<clus scale="   78.319">  2  9  1 -1</clus>
<clus scale="   88.500">  5  6 -1 -1</clus>
<clus scale="   90.253">  7  8 -1 -1</clus>
<clus scale="  140.108">  2  5  1 -1</clus>
<clus scale="  141.222">  1  5  2 -1</clus>
</clustering>
</event>
<event>
 9    1  0.1713970E-005  0.1086416E+03  0.7546771E-02  0.1264639E+00
          3   -1    0    0  502    0  0.00000000000E+00  0.00000000000E+00  0.25311462927E+03  0.25311462927E+03  0.00000000000E+00 0. -1.
         -3   -1    0    0    0  501 -0.00000000000E+00 -0.00000000000E+00 -0.10373019790E+03  0.10373019790E+03  0.00000000000E+00 0.  1.
         23    2    1    2    0    0 -0.59093136360E+02  0.19078460877E+02 -0.50037815467E+02  0.12123337605E+03  0.91311346816E+02 0.  0.
         23    2    1    2    0    0  0.42267330387E+02 -0.27844899892E+01  0.18232881182E+03  0.20661512801E+03  0.87474195617E+02 0.  0.
        -11    1    3    3    0    0  0.20912266202E+02  0.16860006445E+02 -0.26675622755E+02  0.37857252203E+02  0.00000000000E+00 0. -1.
         11    1    3    3    0    0 -0.80005402563E+02  0.22184544326E+01 -0.23362192712E+02  0.83376123846E+02  0.00000000000E+00 0.  1.
        -11    1    4    4    0    0  0.30902476479E+02  0.39613552685E+02  0.12257124074E+03  0.13246850820E+03  0.00000000000E+00 0. -1.
         11    1    4    4    0    0  0.11364853908E+02 -0.42398042674E+02  0.59757571080E+02  0.74146619804E+02  0.00000000000E+00 0.  1.
         21    1    1    2  502  501  0.16825805973E+02 -0.16293970888E+02  0.17093435017E+02  0.28996323123E+02  0.00000000000E+00 0. -1.
<scales pt_clust_5="13000.00000" pt_clust_6="13000.00000" pt_clust_7="13000.00000" pt_clust_8="13000.00000" pt_clust_9="23.42224"></scales>
<clustering>
<clus scale="   23.422">  1  9  2 -1</clus>
<clus scale="   87.474">  7  8 -1 -1</clus>
<clus scale="   91.311">  5  6 -1 -1</clus>
<clus scale="  105.437">  1  7  2 -1</clus>
<clus scale="   23.422">  1  5  2 -1</clus>
</clustering>
</event>
<event>
 9    1  0.1713970E-005  0.1218615E+03  0.7546771E-02  0.1240218E+00
         -2   -1    0    0    0  501 -0.00000000000E+00  0.00000000000E+00  0.72250520414E+02  0.72250520414E+02  0.00000000000E+00 0.  1.
          2   -1    0    0  502    0  0.00000000000E+00 -0.00000000000E+00 -0.40673042186E+03  0.40673042186E+03  0.00000000000E+00 0. -1.
         23    2    1    2    0    0 -0.80837412999E+01  0.11551684837E+03 -0.68549003263E+02  0.16227931556E+03  0.90697967335E+02 0.  0.
         23    2    1    2    0    0  0.23353476835E+02 -0.67953958710E+02 -0.22211115339E+03  0.25025192145E+03  0.90163930410E+02 0.  0.
        -13    1    4    4    0    0  0.25810765205E+01  0.22284360250E+02 -0.50315192089E+02  0.55089683451E+02  0.00000000000E+00 0.  1.
         13    1    4    4    0    0  0.20772400315E+02 -0.90238318960E+02 -0.17179596130E+03  0.19516223800E+03  0.00000000000E+00 0. -1.
        -13    1    3    3    0    0  0.20664879155E+02  0.10960308122E+03 -0.71956900971E+02  0.13273156460E+03  0.00000000000E+00 0.  1.
         13    1    3    3    0    0 -0.28748620455E+02  0.59137671503E+01  0.34078977083E+01  0.29547750959E+02  0.00000000000E+00 0. -1.
         21    1    1    2  502  501 -0.15269735535E+02 -0.47562889658E+02 -0.43819744800E+02  0.66449705269E+02  0.00000000000E+00 0. -1.
<scales pt_clust_5="13000.00000" pt_clust_6="13000.00000" pt_clust_7="13000.00000" pt_clust_8="13000.00000" pt_clust_9="49.95391"></scales>
<clustering>
<clus scale="   49.954">  1  9  2 -1</clus>
<clus scale="   90.164">  5  6 -1 -1</clus>
<clus scale="   90.698">  7  8 -1 -1</clus>
<clus scale="  121.465">  2  5  1 -1</clus>
<clus scale="  121.465">  2  5  1 -1</clus>
</clustering>
</event>
<event>
 9    1  0.1713970E-005  0.1251528E+03  0.7546771E-02  0.1241339E+00
         -2   -1    0    0    0  501 -0.00000000000E+00  0.00000000000E+00  0.10506000643E+03  0.10506000643E+03  0.00000000000E+00 0.  1.
          2   -1    0    0  502    0  0.00000000000E+00 -0.00000000000E+00 -0.20482516486E+03  0.20482516486E+03  0.00000000000E+00 0. -1.
         23    2    1    2    0    0  0.32642743597E+02 -0.64139281229E+02 -0.26372157810E+02  0.11939247175E+03  0.91540567492E+02 0.  0.
         23    2    1    2    0    0  0.29743544161E+01  0.55816545164E+02 -0.87779713390E+02  0.15118846172E+03  0.10967378618E+03 0.  0.
        -11    1    3    3    0    0  0.31857687842E+02 -0.24152349765E+02 -0.56575085068E+02  0.69274732221E+02  0.00000000000E+00 0.  1.
         11    1    3    3    0    0  0.78505575547E+00 -0.39986931464E+02  0.30202927259E+02  0.50117739529E+02  0.00000000000E+00 0. -1.
        -13    1    4    4    0    0  0.18376168269E+02  0.26429833193E+02  0.20349806902E+02  0.38083254638E+02  0.00000000000E+00 0.  1.
         13    1    4    4    0    0 -0.15401813853E+02  0.29386711971E+02 -0.10812952029E+03  0.11310520708E+03  0.00000000000E+00 0. -1.
         21    1    1    2  502  501 -0.35617098013E+02  0.83227360650E+01  0.14386712767E+02  0.39304237822E+02  0.00000000000E+00 0.  1.
<scales pt_clust_5="13000.00000" pt_clust_6="13000.00000" pt_clust_7="13000.00000" pt_clust_8="13000.00000" pt_clust_9="36.57657"></scales>
<clustering>
<clus scale="   36.577">  1  9  2 -1</clus>
<clus scale="   91.541">  5  6 -1 -1</clus>
<clus scale="  109.611">  1  5  2 -1</clus>
<clus scale="  109.674">  7  8 -1 -1</clus>
<clus scale="  125.153">  2  5  1 -1</clus>
</clustering>
</event>
<event>
 9    1  0.1713970E-005  0.1220474E+03  0.7546771E-02  0.1239970E+00
          4   -1    0    0  502    0  0.00000000000E+00  0.00000000000E+00  0.26862854778E+03  0.26862854778E+03  0.00000000000E+00 0. -1.
         -4   -1    0    0    0  501 -0.00000000000E+00 -0.00000000000E+00 -0.16060696827E+03  0.16060696827E+03  0.00000000000E+00 0.  1.
         23    2    1    2    0    0  0.90614193017E+02  0.38426476358E+02  0.30097592282E+01  0.13385397511E+03  0.90665880804E+02 0.  0.
         23    2    1    2    0    0 -0.72479187811E+02 -0.23570599804E+02  0.18058309984E+03  0.21625762687E+03  0.91369028607E+02 0.  0.
        -11    1    4    4    0    0 -0.65105383150E+02 -0.52360975123E+02  0.99650498342E+02  0.13004077995E+03  0.00000000000E+00 0.  1.
         11    1    4    4    0    0 -0.73738046613E+01  0.28790375319E+02  0.80932601502E+02  0.86216846916E+02  0.00000000000E+00 0. -1.
        -13    1    3    3    0    0  0.51636407325E+02  0.65893865244E+02  0.14107292848E+02  0.84896029058E+02  0.00000000000E+00 0.  1.
         13    1    3    3    0    0  0.38977785691E+02 -0.27467388886E+02 -0.11097533620E+02  0.48957946056E+02  0.00000000000E+00 0. -1.
         21    1    1    2  502  501 -0.18135005205E+02 -0.14855876554E+02 -0.75571279566E+02  0.79123914066E+02  0.00000000000E+00 0.  1.
<scales pt_clust_5="13000.00000" pt_clust_6="13000.00000" pt_clust_7="13000.00000" pt_clust_8="13000.00000" pt_clust_9="23.44303"></scales>
<clustering>
<clus scale="   23.443">  2  9  1 -1</clus>
<clus scale="   90.666">  7  8 -1 -1</clus>
<clus scale="   91.369">  5  6 -1 -1</clus>
<clus scale="  121.522">  2  7  1 -1</clus>
<clus scale="  122.047">  1  5  2 -1</clus>
</clustering>
</event>
<event>
 9    1  0.1713970E-005  0.1140995E+03  0.7546771E-02  0.1259001E+00
          2   -1    0    0  502    0  0.00000000000E+00  0.00000000000E+00  0.19778418379E+03  0.19778418379E+03  0.00000000000E+00 0. -1.
         -2   -1    0    0    0  501 -0.00000000000E+00 -0.00000000000E+00 -0.26378053138E+03  0.26378053138E+03  0.00000000000E+00 0.  1.
         23    2    1    2    0    0  0.28309937364E+02 -0.75206760636E+01 -0.41005272811E+02  0.11552232544E+03  0.10395172992E+03 0.  0.
         23    2    1    2    0    0 -0.33537723706E+02  0.39642735933E+02  0.14194201573E+03  0.17596648554E+03  0.90112944583E+02 0.  0.
        -11    1    3    3    0    0  0.33484255378E+02  0.43958810948E+02 -0.29009940630E+02  0.62411129405E+02  0.00000000000E+00 0. -1.
         11    1    3    3    0    0 -0.51743180141E+01 -0.51479487012E+02 -0.11995332181E+02  0.53111196033E+02  0.00000000000E+00 0.  1.
        -13    1    4    4    0    0 -0.62892115112E+02  0.38275296247E+02  0.11184979193E+03  0.13390590876E+03  0.00000000000E+00 0. -1.
         13    1    4    4    0    0  0.29354391406E+02  0.13674396862E+01  0.30092223799E+02  0.42060576782E+02  0.00000000000E+00 0.  1.
         21    1    1    2  502  501  0.52277863424E+01 -0.32122059869E+02 -0.16693309050E+03  0.17007590419E+03  0.00000000000E+00 0.  1.
<scales pt_clust_5="13000.00000" pt_clust_6="13000.00000" pt_clust_7="13000.00000" pt_clust_8="13000.00000" pt_clust_9="32.54468"></scales>
<clustering>
<clus scale="   32.545">  2  9  1 -1</clus>
<clus scale="   90.113">  7  8 -1 -1</clus>
<clus scale="  101.652">  1  7  2 -1</clus>
<clus scale="  103.952">  5  6 -1 -1</clus>
<clus scale="  101.652">  1  5  2 -1</clus>
</clustering>
</event>
<event>
 9    1  0.1713970E-005  0.9768438E+02  0.7546771E-02  0.1285672E+00
          1   -1    0    0  502    0  0.00000000000E+00  0.00000000000E+00  0.29385932134E+03  0.29385932134E+03  0.00000000000E+00 0. -1.
         -1   -1    0    0    0  501 -0.00000000000E+00 -0.00000000000E+00 -0.63781447143E+02  0.63781447143E+02  0.00000000000E+00 0.  1.
         23    2    1    2    0    0  0.30212738266E+01  0.10880711734E+02  0.80918185870E+01  0.92937167265E+02  0.91892989656E+02 0.  0.
         23    2    1    2    0    0  0.28821471444E+02 -0.28928177067E+02  0.19559128087E+03  0.21957760466E+03  0.91054152420E+02 0.  0.
        -11    1    3    3    0    0  0.39933603703E+01 -0.38539899661E+02 -0.10471381105E+02  0.40136275552E+02  0.00000000000E+00 0. -1.
         11    1    3    3    0    0 -0.97208654368E+00  0.49420611395E+02  0.18563199692E+02  0.52800891713E+02  0.00000000000E+00 0.  1.
        -13    1    4    4    0    0 -0.11220556299E+02 -0.52061406168E+02  0.96293571691E+02  0.11003973303E+03  0.00000000000E+00 0. -1.
         13    1    4    4    0    0  0.40042027743E+02  0.23133229101E+02  0.99297709178E+02  0.10953787164E+03  0.00000000000E+00 0.  1.
         21    1    1    2  502  501 -0.31842745271E+02  0.18047465333E+02  0.26394774738E+02  0.45125996552E+02  0.00000000000E+00 0.  1.
<scales pt_clust_5="13000.00000" pt_clust_6="13000.00000" pt_clust_7="13000.00000" pt_clust_8="13000.00000" pt_clust_9="36.60152"></scales>
<clustering>
<clus scale="   36.602">  2  9  1 -1</clus>
<clus scale="   91.054">  7  8 -1 -1</clus>
<clus scale="   91.893">  5  6 -1 -1</clus>
<clus scale="   96.896">  1  7  2 -1</clus>
<clus scale="   96.896">  1  5  2 -1</clus>
</clustering>
</event>
<event>
 9    1  0.1713970E-005  0.1203573E+03  0.7546771E-02  0.1243498E+00
          1   -1    0    0  502    0  0.00000000000E+00  0.00000000000E+00  0.17820002517E+03  0.17820002517E+03  0.00000000000E+00 0. -1.
         -1   -1    0    0    0  501 -0.00000000000E+00 -0.00000000000E+00 -0.15894031241E+03  0.15894031241E+03  0.00000000000E+00 0.  1.
         23    2    1    2    0    0  0.61874457490E+02 -0.55242469370E+01  0.17330749540E+02  0.11285219369E+03  0.92608298484E+02 0.  0.
         23    2    1    2    0    0 -0.65045235960E+02  0.63982797400E+02  0.56977277325E+02  0.14392787482E+03  0.95625006854E+02 0.  0.
        -11    1    3    3    0    0 -0.53364007738E+01 -0.36937633248E+02  0.61755985016E+01  0.37828612716E+02  0.00000000000E+00 0.  1.
         11    1    3    3    0    0  0.67210858264E+02  0.31413386311E+02  0.11155151038E+02  0.75023580978E+02  0.00000000000E+00 0. -1.
        -13    1    4    4    0    0 -0.30514141853E+02 -0.13253482541E+01 -0.20570532472E+02  0.36824125342E+02  0.00000000000E+00 0.  1.
         13    1    4    4    0    0 -0.34531094108E+02  0.65308145654E+02  0.77547809796E+02  0.10710374948E+03  0.00000000000E+00 0. -1.
         21    1    1    2  502  501  0.31707784700E+01 -0.58458550463E+02 -0.55048314099E+02  0.80360269061E+02  0.00000000000E+00 0. -1.
<scales pt_clust_5="13000.00000" pt_clust_6="13000.00000" pt_clust_7="13000.00000" pt_clust_8="13000.00000" pt_clust_9="58.54448"></scales>
<clustering>
<clus scale="   58.544">  2  9  1 -1</clus>
<clus scale="   92.608">  5  6 -1 -1</clus>
<clus scale="   95.625">  7  8 -1 -1</clus>
<clus scale="  117.975">  2  5  1 -1</clus>
<clus scale="  120.357">  1  5  2 -1</clus>
</clustering>
</event>
<event>
 9    1  0.1713970E-005  0.1141333E+03  0.7546771E-02  0.1254471E+00
          2   -1    0    0  502    0  0.00000000000E+00  0.00000000000E+00  0.28105869461E+03  0.28105869461E+03  0.00000000000E+00 0. -1.
         -2   -1    0    0    0  501 -0.00000000000E+00 -0.00000000000E+00 -0.13727542646E+03  0.13727542646E+03  0.00000000000E+00 0.  1.
         23    2    1    2    0    0 -0.50023589774E+02 -0.44320432453E+02 -0.87796127898E+02  0.14077157910E+03  0.87417487618E+02 0.  0.
         23    2    1    2    0    0  0.69884911938E+02  0.47365717046E+02  0.22379570722E+03  0.25601418501E+03  0.91276132069E+02 0.  0.
        -11    1    4    4    0    0  0.75279288860E+02  0.25139522254E+02  0.21859769705E+03  0.23255949790E+03  0.00000000000E+00 0. -1.
         11    1    4    4    0    0 -0.53943769226E+01  0.22226194793E+02  0.51980101750E+01  0.23454687103E+02  0.00000000000E+00 0.  1.
        -11    1    3    3    0    0 -0.59891097027E+02 -0.48061577074E+01 -0.78746189260E+02  0.99050517303E+02  0.00000000000E+00 0.  1.
         11    1    3    3    0    0  0.98675072522E+01 -0.39514274746E+02 -0.90499386378E+01  0.41721061796E+02  0.00000000000E+00 0. -1.
         21    1    1    2  502  501 -0.19861322163E+02 -0.30452845936E+01  0.77836888211E+01  0.21548356967E+02  0.00000000000E+00 0.  1.
<scales pt_clust_5="13000.00000" pt_clust_6="13000.00000" pt_clust_7="13000.00000" pt_clust_8="13000.00000" pt_clust_9="20.09343"></scales>
<clustering>
<clus scale="   20.093">  1  9  2 -1</clus>
<clus scale="   87.417">  7  8 -1 -1</clus>
<clus scale="   91.276">  5  6 -1 -1</clus>
<clus scale="  111.072">  2  7  1 -1</clus>
<clus scale="   20.093">  1  5  2 -1</clus>
</clustering>
</event>
<event>
 9    1  0.1713970E-005  0.1167193E+03  0.7546771E-02  0.1249449E+00
         -2   -1    0    0    0  501 -0.00000000000E+00  0.00000000000E+00  0.95978764627E+02  0.95978764627E+02  0.00000000000E+00 0.  1.
          2   -1    0    0  502    0  0.00000000000E+00 -0.00000000000E+00 -0.28038715245E+03  0.28038715245E+03  0.00000000000E+00 0. -1.
         23    2    1    2    0    0  0.24332656738E+02  0.38700073283E+02  0.13431857616E+02  0.10254133921E+03  0.90799436072E+02 0.  0.
         23    2    1    2    0    0 -0.63535748285E+01 -0.82917957929E+02 -0.19005886742E+03  0.22546117691E+03  0.88287108621E+02 0.  0.
        -11    1    3    3    0    0 -0.28990923705E+02  0.27988523031E+01 -0.14401114046E+02  0.32491526853E+02  0.00000000000E+00 0. -1.
         11    1    3    3    0    0  0.53323580443E+02  0.35901220980E+02  0.27832971662E+02  0.70049812352E+02  0.00000000000E+00 0.  1.
        -11    1    4    4    0    0 -0.27663129004E+02  0.38408968091E+01 -0.73331246346E+02  0.78469566618E+02  0.00000000000E+00 0.  1.
         11    1    4    4    0    0  0.21309554176E+02 -0.86758854738E+02 -0.11672762107E+03  0.14699161029E+03  0.00000000000E+00 0. -1.
         21    1    1    2  502  501 -0.17979081909E+02  0.44217884646E+02 -0.77813780219E+01  0.48363400964E+02  0.00000000000E+00 0.  1.
<scales pt_clust_5="13000.00000" pt_clust_6="13000.00000" pt_clust_7="13000.00000" pt_clust_8="13000.00000" pt_clust_9="47.73331"></scales>
<clustering>
<clus scale="   47.733">  1  9  2 -1</clus>
<clus scale="   88.287">  7  8 -1 -1</clus>
<clus scale="   90.799">  5  6 -1 -1</clus>
<clus scale="  114.776">  2  7  1 -1</clus>
<clus scale="  114.776">  2  5  1 -1</clus>
</clustering>
</event>
<event>
 9    1  0.1713970E-005  0.1180750E+03  0.7546771E-02  0.1246559E+00
         -1   -1    0    0    0  501 -0.00000000000E+00  0.00000000000E+00  0.21741085544E+03  0.21741085544E+03  0.00000000000E+00 0.  1.
          1   -1    0    0  502    0  0.00000000000E+00 -0.00000000000E+00 -0.14028588498E+03  0.14028588498E+03  0.00000000000E+00 0. -1.
         23    2    1    2    0    0 -0.14641501761E+02 -0.66613312685E+02  0.44189154154E+02  0.12237266480E+03  0.91491424428E+02 0.  0.
         23    2    1    2    0    0 -0.56914311363E+01  0.78104707861E+02 -0.63827859107E+02  0.13578167661E+03  0.90718963426E+02 0.  0.
        -13    1    4    4    0    0  0.40160847428E+02  0.39922090859E+02 -0.47520688542E+02  0.73924845919E+02  0.00000000000E+00 0. -1.
         13    1    4    4    0    0 -0.45852278564E+02  0.38182617002E+02 -0.16307170565E+02  0.61856830686E+02  0.00000000000E+00 0.  1.
        -13    1    3    3    0    0  0.42875801129E+01 -0.56869346069E+02 -0.15417576251E+02  0.59077978326E+02  0.00000000000E+00 0. -1.
         13    1    3    3    0    0 -0.18929081873E+02 -0.97439666158E+01  0.59606730404E+02  0.63294686471E+02  0.00000000000E+00 0.  1.
         21    1    1    2  502  501  0.20332932897E+02 -0.11491395176E+02  0.96763675409E+02  0.99542399016E+02  0.00000000000E+00 0.  1.
<scales pt_clust_5="13000.00000" pt_clust_6="13000.00000" pt_clust_7="13000.00000" pt_clust_8="13000.00000" pt_clust_9="23.35552"></scales>
<clustering>
<clus scale="   23.356">  1  9  2 -1</clus>
<clus scale="   90.719">  5  6 -1 -1</clus>
<clus scale="   91.491">  7  8 -1 -1</clus>
<clus scale="  117.478">  2  5  1 -1</clus>
<clus scale="  117.478">  2  5  1 -1</clus>
</clustering>
</event>
<event>
 9    1  0.1713970E-005  0.1056270E+03  0.7546771E-02  0.1269667E+00
         -1   -1    0    0    0  501 -0.00000000000E+00  0.00000000000E+00  0.28006560528E+03  0.28006560528E+03  0.00000000000E+00 0.  1.
          1   -1    0    0  502    0  0.00000000000E+00 -0.00000000000E+00 -0.55549773927E+02  0.55549773927E+02  0.00000000000E+00 0. -1.
         23    2    1    2    0    0 -0.31967507738E+02 -0.18632023937E+02  0.13180803052E+03  0.16437051169E+03  0.90968315004E+02 0.  0.
         23    2    1    2    0    0  0.51009782906E+02  0.27284064477E+02  0.43298581909E+02  0.11759100500E+03  0.92771003740E+02 0.  0.
        -11    1    4    4    0    0  0.55123516462E+02 -0.20324709502E+02  0.36900897179E+02  0.69378469975E+02  0.00000000000E+00 0. -1.
         11    1    4    4    0    0 -0.41137335566E+01  0.47608773979E+02  0.63976847303E+01  0.48212535024E+02  0.00000000000E+00 0.  1.
        -13    1    3    3    0    0 -0.15220553955E+02 -0.38948818180E+02  0.13155363254E+03  0.13803997224E+03  0.00000000000E+00 0.  1.
         13    1    3    3    0    0 -0.16746953783E+02  0.20316794243E+02  0.25439798053E+00  0.26330539449E+02  0.00000000000E+00 0. -1.
         21    1    1    2  502  501 -0.19042275167E+02 -0.86520405393E+01  0.49409218926E+02  0.53653862526E+02  0.00000000000E+00 0.  1.
<scales pt_clust_5="13000.00000" pt_clust_6="13000.00000" pt_clust_7="13000.00000" pt_clust_8="13000.00000" pt_clust_9="20.91569"></scales>
<clustering>
<clus scale="   20.916">  1  9  2 -1</clus>
<clus scale="   90.968">  7  8 -1 -1</clus>
<clus scale="   92.771">  5  6 -1 -1</clus>
<clus scale="  104.047">  1  7  2 -1</clus>
<clus scale="  105.627">  2  5  1 -1</clus>
</clustering>
</event>
<event>
 9    1  0.1713970E-005  0.1025176E+03  0.7546771E-02  0.1276355E+00
          1   -1    0    0  502    0  0.00000000000E+00  0.00000000000E+00  0.81780420726E+02  0.81780420726E+02  0.00000000000E+00 0. -1.
         -1   -1    0    0    0  501 -0.00000000000E+00 -0.00000000000E+00 -0.27414791910E+03  0.27414791910E+03  0.00000000000E+00 0.  1.
         23    2    1    2    0    0 -0.56037199669E+02 -0.18752463110E+02 -0.16305835682E+03  0.19574747755E+03  0.90759157212E+02 0.  0.
         23    2    1    2    0    0  0.31396657230E+02  0.22656495442E+02  0.21639946159E+02  0.10345161639E+03  0.93460594869E+02 0.  0.
        -11    1    3    3    0    0 -0.17525586531E+02 -0.30740145007E+02 -0.14882774332E+03  0.15297646839E+03  0.00000000000E+00 0. -1.
         11    1    3    3    0    0 -0.38511613138E+02  0.11987681897E+02 -0.14230613495E+02  0.42771009156E+02  0.00000000000E+00 0.  1.
        -13    1    4    4    0    0 -0.32578503103E+02  0.16448115227E+02  0.34853935443E+01  0.36661251030E+02  0.00000000000E+00 0.  1.
         13    1    4    4    0    0  0.63975160332E+02  0.62083802146E+01  0.18154552615E+02  0.66790365361E+02  0.00000000000E+00 0. -1.
         21    1    1    2  502  501  0.24640542439E+02 -0.39040323324E+01 -0.50949087714E+02  0.56729245888E+02  0.00000000000E+00 0.  1.
<scales pt_clust_5="13000.00000" pt_clust_6="13000.00000" pt_clust_7="13000.00000" pt_clust_8="13000.00000" pt_clust_9="24.94790"></scales>
<clustering>
<clus scale="   24.948">  2  9  1 -1</clus>
<clus scale="   90.759">  5  6 -1 -1</clus>
<clus scale="   93.461">  7  8 -1 -1</clus>
<clus scale="  100.061">  2  5  1 -1</clus>
<clus scale="  102.518">  1  5  2 -1</clus>
</clustering>
</event>
<event>
 9    1  0.1713970E-005  0.9271230E+02  0.7546771E-02  0.1297154E+00
          1   -1    0    0  502    0  0.00000000000E+00  0.00000000000E+00  0.11273416545E+03  0.11273416545E+03  0.00000000000E+00 0. -1.
         -1   -1    0    0    0  501 -0.00000000000E+00 -0.00000000000E+00 -0.10451418955E+03  0.10451418955E+03  0.00000000000E+00 0.  1.
         23    2    1    2    0    0 -0.50799134115E+00  0.32153108801E+02 -0.24888495404E+02  0.99489681844E+02  0.90800215469E+02 0.  0.
         23    2    1    2    0    0 -0.51843393970E+01 -0.11497138702E+02  0.33298666835E+02  0.96331869750E+02  0.89509587996E+02 0.  0.
        -11    1    4    4    0    0 -0.35313709960E+02  0.11442533227E+02 -0.10358580711E+02  0.38539458639E+02  0.00000000000E+00 0.  1.
         11    1    4    4    0    0  0.30129370563E+02 -0.22939671929E+02  0.43657247546E+02  0.57792411111E+02  0.00000000000E+00 0. -1.
        -13    1    3    3    0    0  0.21630273140E+02  0.18915769524E+02  0.28328714837E+02  0.40350850513E+02  0.00000000000E+00 0. -1.
         13    1    3    3    0    0 -0.22138264482E+02  0.13237339277E+02 -0.53217210241E+02  0.59138831331E+02  0.00000000000E+00 0.  1.
         21    1    1    2  502  501  0.56923307381E+01 -0.20655970098E+02 -0.19019553375E+00  0.21426803408E+02  0.00000000000E+00 0. -1.
<scales pt_clust_5="13000.00000" pt_clust_6="13000.00000" pt_clust_7="13000.00000" pt_clust_8="13000.00000" pt_clust_9="21.42596"></scales>
<clustering>
<clus scale="   21.426">  2  9  1 -1</clus>
<clus scale="   89.510">  5  6 -1 -1</clus>
<clus scale="   90.800">  7  8 -1 -1</clus>
<clus scale="   91.449">  1  5  2 -1</clus>
<clus scale="   91.449">  1  5  2 -1</clus>
</clustering>
</event>
<event>
 9    1  0.1713970E-005  0.1136090E+03  0.7546771E-02  0.1255139E+00
         -1   -1    0    0    0  501 -0.00000000000E+00  0.00000000000E+00  0.25212227583E+03  0.25212227583E+03  0.00000000000E+00 0.  1.
          1   -1    0    0  502    0  0.00000000000E+00 -0.00000000000E+00 -0.40233807262E+03  0.40233807262E+03  0.00000000000E+00 0. -1.
         23    2    1    2    0    0  0.47529279593E+02 -0.57937194180E+02  0.10399212662E+03  0.15707212811E+03  0.90782928693E+02 0.  0.
         23    2    1    2    0    0 -0.57468285426E+02  0.27748292717E+02 -0.36494965962E+03  0.38217586967E+03  0.93795360912E+02 0.  0.
        -11    1    3    3    0    0  0.10759167969E+02 -0.68655640092E+02  0.34181123241E+02  0.77444856497E+02  0.00000000000E+00 0. -1.
         11    1    3    3    0    0  0.36770111624E+02  0.10718445912E+02  0.69811003382E+02  0.79627271615E+02  0.00000000000E+00 0.  1.
        -13    1    4    4    0    0 -0.11164913970E+02  0.57391258814E+02 -0.18852608366E+03  0.19738413338E+03  0.00000000000E+00 0.  1.
         13    1    4    4    0    0 -0.46303371456E+02 -0.29642966098E+02 -0.17642357596E+03  0.18479173629E+03  0.00000000000E+00 0. -1.
         21    1    1    2  502  501  0.99390058333E+01  0.30188901464E+02  0.11074173620E+03  0.11521235067E+03  0.00000000000E+00 0. -1.
<scales pt_clust_5="13000.00000" pt_clust_6="13000.00000" pt_clust_7="13000.00000" pt_clust_8="13000.00000" pt_clust_9="31.78291"></scales>
<clustering>
<clus scale="   31.783">  1  9  2 -1</clus>
<clus scale="   90.783">  5  6 -1 -1</clus>
<clus scale="   93.795">  7  8 -1 -1</clus>
<clus scale="  111.135">  1  5  2 -1</clus>
<clus scale="  113.609">  2  5  1 -1</clus>
</clustering>
</event>
<event>
 9    1  0.1713970E-005  0.9906199E+02  0.7546771E-02  0.1288411E+00
         -1   -1    0    0    0  501 -0.00000000000E+00  0.00000000000E+00  0.32495738668E+02  0.32495738668E+02  0.00000000000E+00 0.  1.
          1   -1    0    0  502    0  0.00000000000E+00 -0.00000000000E+00 -0.35962096308E+03  0.35962096308E+03  0.00000000000E+00 0. -1.
         23    2    1    2    0    0 -0.15892335962E+02  0.35214055481E+02 -0.11701200923E+03  0.14865374114E+03  0.83147630174E+02 0.  0.
         23    2    1    2    0    0  0.22672782973E+02 -0.11475057142E+02 -0.17522261002E+03  0.20072107445E+03  0.94552919807E+02 0.  0.
        -11    1    4    4    0    0 -0.26248717189E+02 -0.27795737030E+02 -0.11627096774E+03  0.12239500027E+03  0.00000000000E+00 0.  1.
         11    1    4    4    0    0  0.48921500162E+02  0.16320679888E+02 -0.58951642273E+02  0.78326074182E+02  0.00000000000E+00 0. -1.
        -11    1    3    3    0    0  0.21605223770E+02  0.21054820605E+02 -0.10114073668E+03  0.10554401821E+03  0.00000000000E+00 0. -1.
         11    1    3    3    0    0 -0.37497559732E+02  0.14159234876E+02 -0.15871272555E+02  0.43109722924E+02  0.00000000000E+00 0.  1.
         21    1    1    2  502  501 -0.67804470112E+01 -0.23738998339E+02 -0.34890605165E+02  0.42741886161E+02  0.00000000000E+00 0.  1.
<scales pt_clust_5="13000.00000" pt_clust_6="13000.00000" pt_clust_7="13000.00000" pt_clust_8="13000.00000" pt_clust_9="24.68835"></scales>
<clustering>
<clus scale="   24.688">  1  9  2 -1</clus>
<clus scale="   83.148">  7  8 -1 -1</clus>
<clus scale="   88.241">  1  7  2 -1</clus>
<clus scale="   94.553">  5  6 -1 -1</clus>
<clus scale="   99.062">  2  5  1 -1</clus>
</clustering>
</event>
<event>
 9    1  0.1713970E-005  0.1429940E+03  0.7546771E-02  0.1210230E+00
         -1   -1    0    0    0  501 -0.00000000000E+00  0.00000000000E+00  0.91230328663E+02  0.91230328663E+02  0.00000000000E+00 0.  1.
          1   -1    0    0  502    0  0.00000000000E+00 -0.00000000000E+00 -0.43414077733E+03  0.43414077733E+03  0.00000000000E+00 0. -1.
         23    2    1    2    0    0  0.14124205765E+03 -0.27443950979E+02 -0.21110371123E+03  0.27071409004E+03  0.89548044985E+02 0.  0.
         23    2    1    2    0    0 -0.66535208838E+02  0.47794940933E+02 -0.12589993070E+03  0.17700286979E+03  0.93637241358E+02 0.  0.
        -11    1    3    3    0    0  0.34168495870E+00 -0.27565902838E+02 -0.24439469653E+02  0.36841327674E+02  0.00000000000E+00 0.  1.
         11    1    3    3    0    0  0.14090037269E+03  0.12195185874E+00 -0.18666424157E+03  0.23387276237E+03  0.00000000000E+00 0. -1.
        -13    1    4    4    0    0 -0.39188814392E+02  0.73027208186E+02 -0.10677978564E+03  0.13516900137E+03  0.00000000000E+00 0. -1.
         13    1    4    4    0    0 -0.27346394446E+02 -0.25232267253E+02 -0.19120145054E+02  0.41833868418E+02  0.00000000000E+00 0.  1.
         21    1    1    2  502  501 -0.74706848807E+02 -0.20350989954E+02 -0.59068067461E+01  0.77654146166E+02  0.00000000000E+00 0.  1.
<scales pt_clust_5="13000.00000" pt_clust_6="13000.00000" pt_clust_7="13000.00000" pt_clust_8="13000.00000" pt_clust_9="77.42917"></scales>
<clustering>
<clus scale="   77.429">  1  9  2 -1</clus>
<clus scale="   89.548">  5  6 -1 -1</clus>
<clus scale="   93.637">  7  8 -1 -1</clus>
<clus scale="  140.350">  1  5  2 -1</clus>
<clus scale="  142.994">  2  5  1 -1</clus>
</clustering>
</event>
<event>
 9    1  0.1713970E-005  0.1165410E+03  0.7546771E-02  0.1250765E+00
         -2   -1    0    0    0  501 -0.00000000000E+00  0.00000000000E+00  0.34691703403E+02  0.34691703403E+02  0.00000000000E+00 0.  1.
          2   -1    0    0  502    0  0.00000000000E+00 -0.00000000000E+00 -0.74616406073E+03  0.74616406073E+03  0.00000000000E+00 0. -1.
         23    2    1    2    0    0 -0.61436359893E+02 -0.31343671918E+00 -0.10746949470E+03  0.15367852292E+03  0.91065204962E+02 0.  0.
         23    2    1    2    0    0  0.55848282919E+02  0.41952252685E+02 -0.51784553544E+03  0.53132265016E+03  0.96232727208E+02 0.  0.
        -11    1    3    3    0    0 -0.11875657609E+02  0.42642960865E+02 -0.43234503073E+02  0.61876292802E+02  0.00000000000E+00 0. -1.
         11    1    3    3    0    0 -0.49560702284E+02 -0.42956397584E+02 -0.64234991632E+02  0.91802230116E+02  0.00000000000E+00 0.  1.
        -11    1    4    4    0    0  0.10938828846E+02 -0.30684257191E+02 -0.11499930360E+03  0.11952414587E+03  0.00000000000E+00 0.  1.
         11    1    4    4    0    0  0.44909454072E+02  0.72636509875E+02 -0.40284623184E+03  0.41179850429E+03  0.00000000000E+00 0. -1.
         21    1    1    2  502  501  0.55880769744E+01 -0.41638815965E+02 -0.86157327184E+02  0.95854591058E+02  0.00000000000E+00 0.  1.
<scales pt_clust_5="13000.00000" pt_clust_6="13000.00000" pt_clust_7="13000.00000" pt_clust_8="13000.00000" pt_clust_9="42.01211"></scales>
<clustering>
<clus scale="   42.012">  1  9  2 -1</clus>
<clus scale="   91.065">  5  6 -1 -1</clus>
<clus scale="   96.233">  7  8 -1 -1</clus>
<clus scale="  112.312">  1  5  2 -1</clus>
<clus scale="  116.541">  2  5  1 -1</clus>
</clustering>
</event>
<event>
 9    1  0.1713970E-005  0.1009405E+03  0.7546771E-02  0.1279452E+00
         -1   -1    0    0    0  501 -0.00000000000E+00  0.00000000000E+00  0.26570488058E+03  0.26570488058E+03  0.00000000000E+00 0.  1.
          1   -1    0    0  502    0  0.00000000000E+00 -0.00000000000E+00 -0.65977684864E+02  0.65977684864E+02  0.00000000000E+00 0. -1.
         23    2    1    2    0    0 -0.81681639631E+01  0.10900382994E+02  0.12277312759E+03  0.15492501873E+03  0.93503921408E+02 0.  0.
         23    2    1    2    0    0 -0.22094968933E+02 -0.49232729801E+02  0.32819318553E+02  0.11093124388E+03  0.91195306146E+02 0.  0.
        -13    1    4    4    0    0 -0.27711128219E+02  0.27164210915E+01  0.48890801013E+02  0.56263629410E+02  0.00000000000E+00 0.  1.
         13    1    4    4    0    0  0.56161592853E+01 -0.51949150892E+02 -0.16071482460E+02  0.54667614472E+02  0.00000000000E+00 0. -1.
        -13    1    3    3    0    0 -0.29719244985E+02 -0.12679478857E+02  0.47538388268E+01  0.32658868476E+02  0.00000000000E+00 0.  1.
         13    1    3    3    0    0  0.21551081022E+02  0.23579861851E+02  0.11801928876E+03  0.12226615025E+03  0.00000000000E+00 0. -1.
         21    1    1    2  502  501  0.30263132896E+02  0.38332346807E+02  0.44134749573E+02  0.65826302830E+02  0.00000000000E+00 0. -1.
<scales pt_clust_5="13000.00000" pt_clust_6="13000.00000" pt_clust_7="13000.00000" pt_clust_8="13000.00000" pt_clust_9="48.83878"></scales>
<clustering>
<clus scale="   48.839">  1  9  2 -1</clus>
<clus scale="   91.195">  5  6 -1 -1</clus>
<clus scale="   93.504">  7  8 -1 -1</clus>
<clus scale="   98.806">  2  5  1 -1</clus>
<clus scale="   98.806">  2  5  1 -1</clus>
</clustering>
</event>
<event>
 9    1  0.1713970E-005  0.9592193E+02  0.7546771E-02  0.1299134E+00
          1   -1    0    0  502    0  0.00000000000E+00  0.00000000000E+00  0.20370899759E+03  0.20370899759E+03  0.00000000000E+00 0. -1.
         -1   -1    0    0    0  501 -0.00000000000E+00 -0.00000000000E+00 -0.56040661119E+02  0.56040661119E+02  0.00000000000E+00 0.  1.
         23    2    1    2    0    0  0.32289367544E+01  0.51998113226E+02  0.53112995912E+02  0.10017734394E+03  0.67084126974E+02 0.  0.
         23    2    1    2    0    0  0.12608628617E+02 -0.34953649483E+02  0.98669871767E+02  0.13594454323E+03  0.85816316118E+02 0.  0.
        -11    1    3    3    0    0 -0.29683144938E+02  0.39607154875E+02  0.27049822316E+02  0.56404864134E+02  0.00000000000E+00 0.  1.
         11    1    3    3    0    0  0.32912081692E+02  0.12390958350E+02  0.26063173596E+02  0.43772479802E+02  0.00000000000E+00 0. -1.
        -13    1    4    4    0    0 -0.25886558978E+02 -0.73215226653E+01  0.81034805522E+02  0.85383595238E+02  0.00000000000E+00 0. -1.
         13    1    4    4    0    0  0.38495187595E+02 -0.27632126818E+02  0.17635066245E+02  0.50560947993E+02  0.00000000000E+00 0.  1.
         21    1    1    2  502  501 -0.15837565372E+02 -0.17044463742E+02 -0.41145312036E+01  0.23627771545E+02  0.00000000000E+00 0.  1.
<scales pt_clust_5="13000.00000" pt_clust_6="13000.00000" pt_clust_7="13000.00000" pt_clust_8="13000.00000" pt_clust_9="23.26676"></scales>
<clustering>
<clus scale="   23.267">  2  9  1 -1</clus>
<clus scale="   67.084">  5  6 -1 -1</clus>
<clus scale="   79.604">  2  5  1 -1</clus>
<clus scale="   85.816">  7  8 -1 -1</clus>
<clus scale="   95.922">  1  5  2 -1</clus>
</clustering>
</event>
<event>
 9    1  0.1713970E-005  0.9374560E+02  0.7546771E-02  0.1294165E+00
          3   -1    0    0  502    0  0.00000000000E+00  0.00000000000E+00  0.20511190695E+03  0.20511190695E+03  0.00000000000E+00 0. -1.
         -3   -1    0    0    0  501 -0.00000000000E+00 -0.00000000000E+00 -0.78541094074E+02  0.78541094074E+02  0.00000000000E+00 0.  1.
         23    2    1    2    0    0  0.31328529919E+02  0.21110351517E+02  0.70746194900E+02  0.12099900603E+03  0.90601388725E+02 0.  0.
         23    2    1    2    0    0 -0.75891267847E+01 -0.88321744659E+01  0.83671136684E+02  0.12405682545E+03  0.90849516655E+02 0.  0.
        -11    1    3    3    0    0  0.33200751111E+02  0.52567827270E+02  0.28764949828E+02  0.68506121455E+02  0.00000000000E+00 0.  1.
         11    1    3    3    0    0 -0.18722211920E+01 -0.31457475754E+02  0.41981245071E+02  0.52492884572E+02  0.00000000000E+00 0. -1.
        -13    1    4    4    0    0 -0.56180642299E+01  0.24907958794E+02 -0.76721025290E+01  0.26661399329E+02  0.00000000000E+00 0.  1.
         13    1    4    4    0    0 -0.19710625547E+01 -0.33740133260E+02  0.91343239213E+02  0.97395426124E+02  0.00000000000E+00 0. -1.
         21    1    1    2  502  501 -0.23739403134E+02 -0.12278177051E+02 -0.27846518705E+02  0.38597169545E+02  0.00000000000E+00 0. -1.
<scales pt_clust_5="13000.00000" pt_clust_6="13000.00000" pt_clust_7="13000.00000" pt_clust_8="13000.00000" pt_clust_9="26.72663"></scales>
<clustering>
<clus scale="   26.727">  2  9  1 -1</clus>
<clus scale="   90.601">  5  6 -1 -1</clus>
<clus scale="   90.850">  7  8 -1 -1</clus>
<clus scale="   93.505">  2  5  1 -1</clus>
<clus scale="   93.746">  1  5  2 -1</clus>
</clustering>
</event>
<event>
 9    1  0.1713970E-005  0.2082402E+03  0.7546771E-02  0.1143307E+00
          2   -1    0    0  502    0  0.00000000000E+00  0.00000000000E+00  0.93609247721E+02  0.93609247721E+02  0.00000000000E+00 0. -1.
         -2   -1    0    0    0  501 -0.00000000000E+00 -0.00000000000E+00 -0.63843178473E+03  0.63843178473E+03  0.00000000000E+00 0.  1.
         23    2    1    2    0    0  0.64759125887E+02 -0.15537351476E+03 -0.35936090296E+03  0.40711501505E+03  0.90926912550E+02 0.  0.
         23    2    1    2    0    0 -0.85619613824E+02  0.17323332038E+03 -0.10409874575E+03  0.23905371566E+03  0.94708122907E+02 0.  0.
        -11    1    3    3    0    0  0.72516455549E+01 -0.90861643019E+02 -0.10806473175E+03  0.14137330294E+03  0.00000000000E+00 0.  1.
         11    1    3    3    0    0  0.57507480332E+02 -0.64511871739E+02 -0.25129617121E+03  0.26574171211E+03  0.00000000000E+00 0. -1.
        -13    1    4    4    0    0 -0.36142054195E+02  0.13746646055E+02  0.58696823243E+01  0.39111015453E+02  0.00000000000E+00 0. -1.
         13    1    4    4    0    0 -0.49477559628E+02  0.15948667433E+03 -0.10996842807E+03  0.19994270021E+03  0.00000000000E+00 0.  1.
         21    1    1    2  502  501  0.20860487937E+02 -0.17859805624E+02 -0.81362888299E+02  0.85872301740E+02  0.00000000000E+00 0. -1.
<scales pt_clust_5="13000.00000" pt_clust_6="13000.00000" pt_clust_7="13000.00000" pt_clust_8="13000.00000" pt_clust_9="27.46148"></scales>
<clustering>
<clus scale="   27.461">  2  9  1 -1</clus>
<clus scale="   90.927">  5  6 -1 -1</clus>
<clus scale="   94.708">  7  8 -1 -1</clus>
<clus scale="  206.548">  2  5  1 -1</clus>
<clus scale="  208.240">  1  5  2 -1</clus>
</clustering>
</event>
<event>
 9    1  0.1713970E-005  0.9910261E+02  0.7546771E-02  0.1283509E+00
          4   -1    0    0  502    0  0.00000000000E+00  0.00000000000E+00  0.46036894171E+02  0.46036894171E+02  0.00000000000E+00 0. -1.
         -4   -1    0    0    0  501 -0.00000000000E+00 -0.00000000000E+00 -0.33717032799E+03  0.33717032799E+03  0.00000000000E+00 0.  1.
         23    2    1    2    0    0 -0.11587006400E+02  0.40683451294E+02 -0.12492891419E+03  0.16040386243E+03  0.91283972072E+02 0.  0.
         23    2    1    2    0    0 -0.72935700524E+01 -0.26284789397E+02 -0.61597710475E+02  0.11553555396E+03  0.93862132811E+02 0.  0.
        -11    1    3    3    0    0 -0.48442281295E+02  0.38514403179E+02 -0.92330430814E+02  0.11115269823E+03  0.00000000000E+00 0.  1.
         11    1    3    3    0    0  0.36855274895E+02  0.21690481147E+01 -0.32598483374E+02  0.49251164206E+02  0.00000000000E+00 0. -1.
        -11    1    4    4    0    0  0.14926089730E+02 -0.54918039341E+02 -0.54107374024E+02  0.78526346684E+02  0.00000000000E+00 0. -1.
         11    1    4    4    0    0 -0.22219659783E+02  0.28633249945E+02 -0.74903364509E+01  0.37009207279E+02  0.00000000000E+00 0.  1.
         21    1    1    2  502  501  0.18880576452E+02 -0.14398661897E+02 -0.10460680916E+03  0.10726780577E+03  0.00000000000E+00 0. -1.
<scales pt_clust_5="13000.00000" pt_clust_6="13000.00000" pt_clust_7="13000.00000" pt_clust_8="13000.00000" pt_clust_9="23.74442"></scales>
<clustering>
<clus scale="   23.744">  2  9  1 -1</clus>
<clus scale="   91.284">  5  6 -1 -1</clus>
<clus scale="   93.862">  7  8 -1 -1</clus>
<clus scale="   96.664">  2  5  1 -1</clus>
<clus scale="   99.103">  1  5  2 -1</clus>
</clustering>
</event>
<event>
 9    1  0.1713970E-005  0.1176518E+03  0.7546771E-02  0.1250297E+00
         -1   -1    0    0    0  501 -0.00000000000E+00  0.00000000000E+00  0.81037524857E+02  0.81037524857E+02  0.00000000000E+00 0.  1.
          1   -1    0    0  502    0  0.00000000000E+00 -0.00000000000E+00 -0.26141849148E+03  0.26141849148E+03  0.00000000000E+00 0. -1.
         23    2    1    2    0    0  0.54402481826E+02 -0.63459852192E+02 -0.21299135704E+02  0.12227172105E+03  0.86659896832E+02 0.  0.
         23    2    1    2    0    0 -0.22885524207E+02  0.58863742559E+02 -0.14591918748E+03  0.18572130029E+03  0.95975542206E+02 0.  0.
        -11    1    3    3    0    0  0.41239500855E+02  0.29163382693E+01 -0.33870132276E+02  0.53445180513E+02  0.00000000000E+00 0. -1.
         11    1    3    3    0    0  0.13162980971E+02 -0.66376190461E+02  0.12570996572E+02  0.68826540542E+02  0.00000000000E+00 0.  1.
        -13    1    4    4    0    0 -0.46623465928E+02 -0.11428818570E+01 -0.38804522222E+02  0.60669965378E+02  0.00000000000E+00 0.  1.
         13    1    4    4    0    0  0.23737941721E+02  0.60006624416E+02 -0.10711466526E+03  0.12505133492E+03  0.00000000000E+00 0. -1.
         21    1    1    2  502  501 -0.31516957619E+02  0.45961096329E+01 -0.13162643439E+02  0.34462994989E+02  0.00000000000E+00 0. -1.
<scales pt_clust_5="13000.00000" pt_clust_6="13000.00000" pt_clust_7="13000.00000" pt_clust_8="13000.00000" pt_clust_9="31.85032"></scales>
<clustering>
<clus scale="   31.850">  1  9  2 -1</clus>
<clus scale="   86.660">  5  6 -1 -1</clus>
<clus scale="   95.976">  7  8 -1 -1</clus>
<clus scale="  110.184">  1  5  2 -1</clus>
<clus scale="  117.652">  2  5  1 -1</clus>
</clustering>
</event>
<event>
 9    1  0.1713970E-005  0.1014406E+03  0.7546771E-02  0.1280961E+00
          1   -1    0    0  502    0  0.00000000000E+00  0.00000000000E+00  0.12136387947E+03  0.12136387947E+03  0.00000000000E+00 0. -1.
         -1   -1    0    0    0  501 -0.00000000000E+00 -0.00000000000E+00 -0.24290040431E+03  0.24290040431E+03  0.00000000000E+00 0.  1.
         23    2    1    2    0    0  0.63957809768E+02  0.63269508396E+01 -0.14852199473E+03  0.18612071493E+03  0.91932072039E+02 0.  0.
         23    2    1    2    0    0 -0.40077838090E+02 -0.13952301554E+01  0.77959443906E+02  0.12163763161E+03  0.84319978394E+02 0.  0.
        -13    1    3    3    0    0 -0.89447425171E+00 -0.34560121975E+02 -0.57728286113E+02  0.67288610720E+02  0.00000000000E+00 0.  1.
         13    1    3    3    0    0  0.64852284020E+02  0.40887072815E+02 -0.90793708615E+02  0.11883210421E+03  0.00000000000E+00 0. -1.
        -13    1    4    4    0    0 -0.59596335479E+02 -0.87625455625E+01  0.80585074060E+02  0.10061043469E+03  0.00000000000E+00 0. -1.
         13    1    4    4    0    0  0.19518497388E+02  0.73673154071E+01 -0.26256301542E+01  0.21027196920E+02  0.00000000000E+00 0.  1.
         21    1    1    2  502  501 -0.23879971677E+02 -0.49317206841E+01 -0.50973974025E+02  0.56505937246E+02  0.00000000000E+00 0.  1.
<scales pt_clust_5="13000.00000" pt_clust_6="13000.00000" pt_clust_7="13000.00000" pt_clust_8="13000.00000" pt_clust_9="24.38391"></scales>
<clustering>
<clus scale="   24.384">  2  9  1 -1</clus>
<clus scale="   84.320">  7  8 -1 -1</clus>
<clus scale="   91.932">  5  6 -1 -1</clus>
<clus scale="   94.597">  1  7  2 -1</clus>
<clus scale="   94.597">  1  5  2 -1</clus>
</clustering>
</event>
<event>
 9    1  0.1713970E-005  0.9584620E+02  0.7546771E-02  0.1292517E+00
          1   -1    0    0  502    0  0.00000000000E+00  0.00000000000E+00  0.10972522573E+03  0.10972522573E+03  0.00000000000E+00 0. -1.
         -1   -1    0    0    0  501 -0.00000000000E+00 -0.00000000000E+00 -0.19863078181E+03  0.19863078181E+03  0.00000000000E+00 0.  1.
         23    2    1    2    0    0  0.40688152734E+02  0.22489768539E+02 -0.34251201949E+02  0.10376056212E+03  0.86207853213E+02 0.  0.
         23    2    1    2    0    0 -0.57453792100E+01 -0.20039823044E+02  0.40849627711E+02  0.10287027545E+03  0.92081472607E+02 0.  0.
        -11    1    4    4    0    0 -0.28119292324E+02 -0.39518163324E+02  0.52065397285E+02  0.71156063886E+02  0.00000000000E+00 0. -1.
         11    1    4    4    0    0  0.22373913114E+02  0.19478340280E+02 -0.11215769573E+02  0.31714211566E+02  0.00000000000E+00 0.  1.
        -11    1    3    3    0    0  0.59512006346E+02  0.67994809687E+01 -0.46999692689E+02  0.76137263897E+02  0.00000000000E+00 0.  1.
         11    1    3    3    0    0 -0.18823853612E+02  0.15690287570E+02  0.12748490740E+02  0.27623298228E+02  0.00000000000E+00 0. -1.
         21    1    1    2  502  501 -0.34942773524E+02 -0.24499454950E+01 -0.95503981849E+02  0.10172516996E+03  0.00000000000E+00 0. -1.
<scales pt_clust_5="13000.00000" pt_clust_6="13000.00000" pt_clust_7="13000.00000" pt_clust_8="13000.00000" pt_clust_9="35.02855"></scales>
<clustering>
<clus scale="   35.029">  2  9  1 -1</clus>
<clus scale="   86.208">  7  8 -1 -1</clus>
<clus scale="   90.218">  2  7  1 -1</clus>
<clus scale="   92.081">  5  6 -1 -1</clus>
<clus scale="   95.846">  1  5  2 -1</clus>
</clustering>
</event>
<event>
 9    1  0.1713970E-005  0.1656672E+03  0.7546771E-02  0.1182794E+00
         -1   -1    0    0    0  501 -0.00000000000E+00  0.00000000000E+00  0.22926916021E+03  0.22926916021E+03  0.00000000000E+00 0.  1.
          1   -1    0    0  502    0  0.00000000000E+00 -0.00000000000E+00 -0.62405766762E+03  0.62405766762E+03  0.00000000000E+00 0. -1.
         23    2    1    2    0    0 -0.26065436481E+03  0.83430935677E+01 -0.99079578844E+02  0.29340033371E+03  0.90866318142E+02 0.  0.
         23    2    1    2    0    0  0.11289951370E+03 -0.37762180165E+02 -0.36427513240E+03  0.39440216662E+03  0.93190206047E+02 0.  0.
        -13    1    3    3    0    0 -0.23825527481E+02  0.27323397800E+02 -0.72688598023E+00  0.36259511722E+02  0.00000000000E+00 0. -1.
         13    1    3    3    0    0 -0.23682883733E+03 -0.18980304232E+02 -0.98352692864E+02  0.25714082199E+03  0.00000000000E+00 0.  1.
        -13    1    4    4    0    0  0.42753998405E+02 -0.61669814812E+02 -0.15099164417E+03  0.16861063741E+03  0.00000000000E+00 0.  1.
         13    1    4    4    0    0  0.70145515290E+02  0.23907634647E+02 -0.21328348823E+03  0.22579152921E+03  0.00000000000E+00 0. -1.
         21    1    1    2  502  501  0.14775485112E+03  0.29419086598E+02  0.68566203835E+02  0.16552432750E+03  0.00000000000E+00 0. -1.
<scales pt_clust_5="13000.00000" pt_clust_6="13000.00000" pt_clust_7="13000.00000" pt_clust_8="13000.00000" pt_clust_9="150.65516"></scales>
<clustering>
<clus scale="   90.866">  5  6 -1 -1</clus>
<clus scale="   93.190">  7  8 -1 -1</clus>
<clus scale="  150.655">  1  9  2 -1</clus>
<clus scale="  164.371">  1  5  2 -1</clus>
<clus scale="  165.667">  2  5  1 -1</clus>
</clustering>
</event>
<event>
 9    1  0.1713970E-005  0.1161714E+03  0.7546771E-02  0.1250072E+00
          1   -1    0    0  502    0  0.00000000000E+00  0.00000000000E+00  0.46705316251E+03  0.46705316251E+03  0.00000000000E+00 0. -1.
         -1   -1    0    0    0  501 -0.00000000000E+00 -0.00000000000E+00 -0.38310248127E+02  0.38310248127E+02  0.00000000000E+00 0.  1.
         23    2    1    2    0    0  0.13394504532E+02 -0.59581001864E+02  0.10540416055E+03  0.15257801258E+03  0.91873305839E+02 0.  0.
         23    2    1    2    0    0 -0.21527416008E+01  0.76292100624E+02  0.29660368116E+03  0.31931298903E+03  0.90343358193E+02 0.  0.
        -11    1    3    3    0    0  0.28172645146E+02 -0.73948453847E+02  0.50353027302E+02  0.93794984511E+02  0.00000000000E+00 0. -1.
         11    1    3    3    0    0 -0.14778140614E+02  0.14367451984E+02  0.55051133253E+02  0.58783028069E+02  0.00000000000E+00 0.  1.
        -11    1    4    4    0    0 -0.33615689037E+02  0.37647230327E+02  0.64394301480E+02  0.81816591006E+02  0.00000000000E+00 0.  1.
         11    1    4    4    0    0  0.31462947436E+02  0.38644870297E+02  0.23220937968E+03  0.23749639802E+03  0.00000000000E+00 0. -1.
         21    1    1    2  502  501 -0.11241762931E+02 -0.16711098761E+02  0.26735072663E+02  0.33472409024E+02  0.00000000000E+00 0.  1.
<scales pt_clust_5="13000.00000" pt_clust_6="13000.00000" pt_clust_7="13000.00000" pt_clust_8="13000.00000" pt_clust_9="20.14046"></scales>
<clustering>
<clus scale="   20.140">  2  9  1 -1</clus>
<clus scale="   90.343">  7  8 -1 -1</clus>
<clus scale="   91.873">  5  6 -1 -1</clus>
<clus scale="  114.965">  1  7  2 -1</clus>
<clus scale="  114.965">  1  5  2 -1</clus>
</clustering>
</event>
<event>
 9    1  0.1713970E-005  0.1334449E+03  0.7546771E-02  0.1222646E+00
         -2   -1    0    0    0  501 -0.00000000000E+00  0.00000000000E+00  0.37050654567E+03  0.37050654567E+03  0.00000000000E+00 0.  1.
          2   -1    0    0  502    0  0.00000000000E+00 -0.00000000000E+00 -0.88413226510E+02  0.88413226510E+02  0.00000000000E+00 0. -1.
         23    2    1    2    0    0 -0.52468125170E+02 -0.60218775094E+02  0.13791788086E+03  0.18397035691E+03  0.91894207257E+02 0.  0.
         23    2    1    2    0    0  0.88865409489E+02  0.57776771932E+02  0.14765299419E+02  0.14049604146E+03  0.91026958753E+02 0.  0.
        -11    1    3    3    0    0 -0.28735691217E+02 -0.55847399365E+02  0.14566274956E+03  0.15862631741E+03  0.00000000000E+00 0.  1.
         11    1    3    3    0    0 -0.23732433954E+02 -0.43713757285E+01 -0.77448686964E+01  0.25344039501E+02  0.00000000000E+00 0. -1.
        -13    1    4    4    0    0  0.26137428313E+02  0.35772932957E+02  0.48718988393E+02  0.65851406373E+02  0.00000000000E+00 0.  1.
         13    1    4    4    0    0  0.62727981175E+02  0.22003838975E+02 -0.33953688975E+02  0.74644635085E+02  0.00000000000E+00 0. -1.
         21    1    1    2  502  501 -0.36397284318E+02  0.24420031620E+01  0.12941013888E+03  0.13445337381E+03  0.00000000000E+00 0.  1.
<scales pt_clust_5="13000.00000" pt_clust_6="13000.00000" pt_clust_7="13000.00000" pt_clust_8="13000.00000" pt_clust_9="36.47911"></scales>
<clustering>
<clus scale="   36.479">  1  9  2 -1</clus>
<clus scale="   91.027">  7  8 -1 -1</clus>
<clus scale="   91.894">  5  6 -1 -1</clus>
<clus scale="  132.849">  2  7  1 -1</clus>
<clus scale="  132.849">  2  5  1 -1</clus>
</clustering>
</event>
<event>
 9    1  0.1713970E-005  0.1000296E+03  0.7546771E-02  0.1280421E+00
         -2   -1    0    0    0  501 -0.00000000000E+00  0.00000000000E+00  0.62782156741E+02  0.62782156741E+02  0.00000000000E+00 0.  1.
          2   -1    0    0  502    0  0.00000000000E+00 -0.00000000000E+00 -0.39898043842E+03  0.39898043842E+03  0.00000000000E+00 0. -1.
         23    2    1    2    0    0  0.27075237537E+02 -0.34131302427E+02 -0.19014352987E+01  0.10126363485E+03  0.91393074107E+02 0.  0.
         23    2    1    2    0    0  0.63935111689E+01  0.27367997782E+02 -0.28336115113E+03  0.29917731258E+03  0.91780379729E+02 0.  0.
        -11    1    4    4    0    0  0.13271667502E+00  0.52180319158E+02 -0.25772720348E+03  0.26295648829E+03  0.00000000000E+00 0.  1.
         11    1    4    4    0    0  0.62607944939E+01 -0.24812321376E+02 -0.25633947649E+02  0.36220824284E+02  0.00000000000E+00 0. -1.
        -13    1    3    3    0    0  0.11096435087E+02 -0.64488771873E+02 -0.95104458689E+01  0.66123983167E+02  0.00000000000E+00 0. -1.
         13    1    3    3    0    0  0.15978802450E+02  0.30357469446E+02  0.76090105702E+01  0.35139651688E+02  0.00000000000E+00 0.  1.
         21    1    1    2  502  501 -0.33468748706E+02  0.67633046445E+01 -0.50935695254E+02  0.61321647732E+02  0.00000000000E+00 0. -1.
<scales pt_clust_5="13000.00000" pt_clust_6="13000.00000" pt_clust_7="13000.00000" pt_clust_8="13000.00000" pt_clust_9="34.14527"></scales>
<clustering>
<clus scale="   34.145">  2  9  1 -1</clus>
<clus scale="   91.393">  7  8 -1 -1</clus>
<clus scale="   91.780">  5  6 -1 -1</clus>
<clus scale="   99.674">  1  7  2 -1</clus>
<clus scale="   34.145">  2  5  1 -1</clus>
</clustering>
</event>
<event>
 9    1  0.1713970E-005  0.1044804E+03  0.7546771E-02  0.1273672E+00
         -3   -1    0    0    0  501 -0.00000000000E+00  0.00000000000E+00  0.24637422095E+03  0.24637422095E+03  0.00000000000E+00 0.  1.
          3   -1    0    0  502    0  0.00000000000E+00 -0.00000000000E+00 -0.99628095253E+02  0.99628095253E+02  0.00000000000E+00 0. -1.
         23    2    1    2    0    0  0.10909051275E+02  0.59066258732E+02  0.38712117143E+02  0.11393809019E+03  0.88743619843E+02 0.  0.
         23    2    1    2    0    0 -0.25091636409E+02 -0.29757577827E+02 -0.16522439451E+02  0.10332241758E+03  0.94273152668E+02 0.  0.
        -11    1    3    3    0    0  0.46473107319E+02  0.17036678215E+02  0.59072132482E+01  0.49848703863E+02  0.00000000000E+00 0. -1.
         11    1    3    3    0    0 -0.35564056043E+02  0.42029580517E+02  0.32804903895E+02  0.64089386331E+02  0.00000000000E+00 0.  1.
        -13    1    4    4    0    0  0.30957727463E+02 -0.19636010546E+02 -0.26845879886E+02  0.45438475620E+02  0.00000000000E+00 0. -1.
         13    1    4    4    0    0 -0.56049363872E+02 -0.10121567281E+02  0.10323440436E+02  0.57883941962E+02  0.00000000000E+00 0.  1.
         21    1    1    2  502  501  0.14182585134E+02 -0.29308680905E+02  0.12455644800E+03  0.12874180842E+03  0.00000000000E+00 0. -1.
<scales pt_clust_5="13000.00000" pt_clust_6="13000.00000" pt_clust_7="13000.00000" pt_clust_8="13000.00000" pt_clust_9="32.55986"></scales>
<clustering>
<clus scale="   32.560">  1  9  2 -1</clus>
<clus scale="   88.744">  5  6 -1 -1</clus>
<clus scale="   94.273">  7  8 -1 -1</clus>
<clus scale="   99.520">  1  5  2 -1</clus>
<clus scale="  104.480">  2  5  1 -1</clus>
</clustering>
</event>
<event>
 9    1  0.1713970E-005  0.9752083E+02  0.7546771E-02  0.1286663E+00
         -2   -1    0    0    0  501 -0.00000000000E+00  0.00000000000E+00  0.39099911716E+02  0.39099911716E+02  0.00000000000E+00 0.  1.
          2   -1    0    0  502    0  0.00000000000E+00 -0.00000000000E+00 -0.42972922997E+03  0.42972922997E+03  0.00000000000E+00 0. -1.
         23    2    1    2    0    0 -0.23716857340E+02  0.39997461061E+02 -0.10529088772E+03  0.14628410587E+03  0.90280575880E+02 0.  0.
         23    2    1    2    0    0 -0.23694614588E+02 -0.25522036296E+02 -0.21420224089E+03  0.23584011629E+03  0.92331746173E+02 0.  0.
        -11    1    3    3    0    0  0.23635621024E+02  0.38395534238E+02 -0.81795134592E+02  0.93398627793E+02  0.00000000000E+00 0.  1.
         11    1    3    3    0    0 -0.47352478364E+02  0.16019268229E+01 -0.23495753123E+02  0.52885478078E+02  0.00000000000E+00 0. -1.
        -11    1    4    4    0    0  0.12353651592E+02  0.27197971014E+02 -0.10665170306E+03  0.11075616506E+03  0.00000000000E+00 0.  1.
         11    1    4    4    0    0 -0.36048266180E+02 -0.52720007311E+02 -0.10755053783E+03  0.12508395122E+03  0.00000000000E+00 0. -1.
         21    1    1    2  502  501  0.47411471928E+02 -0.14475424765E+02 -0.71136189651E+02  0.86704919529E+02  0.00000000000E+00 0. -1.
<scales pt_clust_5="13000.00000" pt_clust_6="13000.00000" pt_clust_7="13000.00000" pt_clust_8="13000.00000" pt_clust_9="49.57202"></scales>
<clustering>
<clus scale="   49.572">  1  9  2 -1</clus>
<clus scale="   90.281">  5  6 -1 -1</clus>
<clus scale="   92.332">  7  8 -1 -1</clus>
<clus scale="   95.581">  1  5  2 -1</clus>
<clus scale="   97.521">  2  5  1 -1</clus>
</clustering>
</event>
<event>
 9    1  0.1713970E-005  0.1126047E+03  0.7546771E-02  0.1257895E+00
         -2   -1    0    0    0  501 -0.00000000000E+00  0.00000000000E+00  0.21754514369E+03  0.21754514369E+03  0.00000000000E+00 0.  1.
          2   -1    0    0  502    0  0.00000000000E+00 -0.00000000000E+00 -0.16050920706E+03  0.16050920706E+03  0.00000000000E+00 0. -1.
         23    2    1    2    0    0  0.13013108664E+02  0.37555406674E+02  0.62023958994E+02  0.11834296328E+03  0.92619306307E+02 0.  0.
         23    2    1    2    0    0 -0.32809152801E+02 -0.50775666367E+02 -0.10570570999E+03  0.15621882141E+03  0.97857111319E+02 0.  0.
        -11    1    4    4    0    0  0.20709823542E+02  0.18250550313E+02 -0.27861676570E+02  0.39220560923E+02  0.00000000000E+00 0.  1.
         11    1    4    4    0    0 -0.53518976342E+02 -0.69026216680E+02 -0.77844033423E+02  0.11699826049E+03  0.00000000000E+00 0. -1.
        -13    1    3    3    0    0 -0.36349461712E+02 -0.35517126624E+01  0.21163836044E+02  0.42211443776E+02  0.00000000000E+00 0. -1.
         13    1    3    3    0    0  0.49362570376E+02  0.41107119336E+02  0.40860122951E+02  0.76131519503E+02  0.00000000000E+00 0.  1.
         21    1    1    2  502  501  0.19796044137E+02  0.13220259693E+02  0.10071768762E+03  0.10349256606E+03  0.00000000000E+00 0.  1.
<scales pt_clust_5="13000.00000" pt_clust_6="13000.00000" pt_clust_7="13000.00000" pt_clust_8="13000.00000" pt_clust_9="23.80459"></scales>
<clustering>
<clus scale="   23.805">  1  9  2 -1</clus>
<clus scale="   92.619">  7  8 -1 -1</clus>
<clus scale="   97.857">  5  6 -1 -1</clus>
<clus scale="  108.084">  1  7  2 -1</clus>
<clus scale="  112.605">  2  5  1 -1</clus>
</clustering>
</event>
<event>
 9    1  0.1713970E-005  0.1399469E+03  0.7546771E-02  0.1213828E+00
          1   -1    0    0  502    0  0.00000000000E+00  0.00000000000E+00  0.15312608182E+03  0.15312608182E+03  0.00000000000E+00 0. -1.
         -1   -1    0    0    0  501 -0.00000000000E+00 -0.00000000000E+00 -0.30517791566E+03  0.30517791566E+03  0.00000000000E+00 0.  1.
         23    2    1    2    0    0  0.28592919206E+02 -0.11218624869E+03 -0.22461595276E+03  0.26697184421E+03  0.86129727418E+02 0.  0.
         23    2    1    2    0    0 -0.14159245951E+01  0.72609769743E+02  0.84246096363E+02  0.14192208022E+03  0.88149240484E+02 0.  0.
        -11    1    4    4    0    0 -0.43398238601E+02  0.39609137262E+02  0.57452696610E+02  0.82177267027E+02  0.00000000000E+00 0. -1.
         11    1    4    4    0    0  0.41982314006E+02  0.33000632481E+02  0.26793399753E+02  0.59744813195E+02  0.00000000000E+00 0.  1.
        -11    1    3    3    0    0  0.12009242920E+02 -0.23084203588E+02 -0.14190755726E+03  0.14427354982E+03  0.00000000000E+00 0.  1.
         11    1    3    3    0    0  0.16583676285E+02 -0.89102045101E+02 -0.82708395497E+02  0.12269829439E+03  0.00000000000E+00 0. -1.
         21    1    1    2  502  501 -0.27176994611E+02  0.39576478946E+02 -0.11681977449E+02  0.49410073051E+02  0.00000000000E+00 0. -1.
<scales pt_clust_5="13000.00000" pt_clust_6="13000.00000" pt_clust_7="13000.00000" pt_clust_8="13000.00000" pt_clust_9="48.00924"></scales>
<clustering>
<clus scale="   48.009">  1  9  2 -1</clus>
<clus scale="   86.130">  7  8 -1 -1</clus>
<clus scale="   88.149">  5  6 -1 -1</clus>
<clus scale="  138.684">  2  7  1 -1</clus>
<clus scale="   48.009">  1  5  2 -1</clus>
</clustering>
</event>
<event>
 9    1  0.1713970E-005  0.1141208E+03  0.7546771E-02  0.1253528E+00
         -1   -1    0    0    0  501 -0.00000000000E+00  0.00000000000E+00  0.39937387947E+03  0.39937387947E+03  0.00000000000E+00 0.  1.
          1   -1    0    0  502    0  0.00000000000E+00 -0.00000000000E+00 -0.90122346869E+02  0.90122346869E+02  0.00000000000E+00 0. -1.
         23    2    1    2    0    0  0.10839803667E+03 -0.68527448937E+01  0.16499609994E+03  0.21790547353E+03  0.91989064202E+02 0.  0.
         23    2    1    2    0    0 -0.53322226593E+02  0.22767754998E+02 -0.88138066970E+01  0.10813793258E+03  0.90854272091E+02 0.  0.
        -13    1    4    4    0    0 -0.20767615100E+02  0.56644570808E+02  0.18201191898E-01  0.60331596782E+02  0.00000000000E+00 0. -1.
         13    1    4    4    0    0 -0.32554611493E+02 -0.33876815810E+02 -0.88320078889E+01  0.47806335796E+02  0.00000000000E+00 0.  1.
        -13    1    3    3    0    0  0.43939145273E+02  0.12924045825E+02  0.13778379664E+03  0.14519660487E+03  0.00000000000E+00 0.  1.
         13    1    3    3    0    0  0.64458891400E+02 -0.19776790718E+02  0.27212303295E+02  0.72708868663E+02  0.00000000000E+00 0. -1.
         21    1    1    2  502  501 -0.55075810081E+02 -0.15915010104E+02  0.15306923937E+03  0.16345282023E+03  0.00000000000E+00 0.  1.
<scales pt_clust_5="13000.00000" pt_clust_6="13000.00000" pt_clust_7="13000.00000" pt_clust_8="13000.00000" pt_clust_9="57.32916"></scales>
<clustering>
<clus scale="   57.329">  1  9  2 -1</clus>
<clus scale="   90.854">  5  6 -1 -1</clus>
<clus scale="   91.989">  7  8 -1 -1</clus>
<clus scale="  113.208">  2  5  1 -1</clus>
<clus scale="  113.208">  2  5  1 -1</clus>
</clustering>
</event>
<event>
 9    1  0.1713970E-005  0.9180287E+02  0.7546771E-02  0.1299556E+00
          1   -1    0    0  502    0  0.00000000000E+00  0.00000000000E+00  0.31913468918E+03  0.31913468918E+03  0.00000000000E+00 0. -1.
         -1   -1    0    0    0  501 -0.00000000000E+00 -0.00000000000E+00 -0.40686743084E+02  0.40686743084E+02  0.00000000000E+00 0.  1.
         23    2    1    2    0    0  0.20073765557E+02 -0.83876587497E+01  0.10823612295E+03  0.14229723149E+03  0.89778254036E+02 0.  0.
         23    2    1    2    0    0  0.19114035604E+02  0.68483314080E+01  0.13780712700E+03  0.16665065537E+03  0.91484373986E+02 0.  0.
        -11    1    4    4    0    0  0.17329482008E+02 -0.40445698742E+02  0.85171696167E+02  0.95866486956E+02  0.00000000000E+00 0.  1.
         11    1    4    4    0    0  0.17845535958E+01  0.47294030149E+02  0.52635430835E+02  0.70784168417E+02  0.00000000000E+00 0. -1.
        -11    1    3    3    0    0 -0.31499309614E+02 -0.19553367811E+02  0.61485945486E+02  0.71798761767E+02  0.00000000000E+00 0.  1.
         11    1    3    3    0    0  0.51573075172E+02  0.11165709061E+02  0.46750177460E+02  0.70498469728E+02  0.00000000000E+00 0. -1.
         21    1    1    2  502  501 -0.39187801161E+02  0.15393273417E+01  0.32404696143E+02  0.50873545391E+02  0.00000000000E+00 0.  1.
<scales pt_clust_5="13000.00000" pt_clust_6="13000.00000" pt_clust_7="13000.00000" pt_clust_8="13000.00000" pt_clust_9="39.21802"></scales>
<clustering>
<clus scale="   39.218">  2  9  1 -1</clus>
<clus scale="   89.778">  7  8 -1 -1</clus>
<clus scale="   90.103">  2  7  1 -1</clus>
<clus scale="   91.484">  5  6 -1 -1</clus>
<clus scale="   91.803">  1  5  2 -1</clus>
</clustering>
</event>
<event>
 9    1  0.1713970E-005  0.1237011E+03  0.7546771E-02  0.1237936E+00
          1   -1    0    0  502    0  0.00000000000E+00  0.00000000000E+00  0.43371466306E+03  0.43371466306E+03  0.00000000000E+00 0. -1.
         -1   -1    0    0    0  501 -0.00000000000E+00 -0.00000000000E+00 -0.85924111270E+02  0.85924111270E+02  0.00000000000E+00 0.  1.
         23    2    1    2    0    0 -0.29435183858E+02 -0.38085643314E+02  0.24136848091E+02  0.10838404126E+03  0.94061504818E+02 0.  0.
         23    2    1    2    0    0  0.94446941397E+02  0.83177154027E+01  0.31222286798E+03  0.33884394551E+03  0.91338332531E+02 0.  0.
        -11    1    3    3    0    0 -0.37557711538E+02 -0.63350164489E+02  0.17545939766E+01  0.73667520908E+02  0.00000000000E+00 0.  1.
         11    1    3    3    0    0  0.81225276800E+01  0.25264521175E+02  0.22382254114E+02  0.34716520352E+02  0.00000000000E+00 0. -1.
        -11    1    4    4    0    0  0.29203854293E+02 -0.39216452210E+02  0.14773302005E+03  0.15561439665E+03  0.00000000000E+00 0.  1.
         11    1    4    4    0    0  0.65243087103E+02  0.47534167612E+02  0.16448984793E+03  0.18322954886E+03  0.00000000000E+00 0. -1.
         21    1    1    2  502  501 -0.65011757539E+02  0.29767927911E+02  0.11430835721E+02  0.72410787564E+02  0.00000000000E+00 0.  1.
<scales pt_clust_5="13000.00000" pt_clust_6="13000.00000" pt_clust_7="13000.00000" pt_clust_8="13000.00000" pt_clust_9="71.50285"></scales>
<clustering>
<clus scale="   71.503">  2  9  1 -1</clus>
<clus scale="   91.338">  7  8 -1 -1</clus>
<clus scale="   94.062">  5  6 -1 -1</clus>
<clus scale="  121.643">  1  7  2 -1</clus>
<clus scale="  121.643">  1  5  2 -1</clus>
</clustering>
</event>
<event>
 9    1  0.1713970E-005  0.1822727E+03  0.7546771E-02  0.1166018E+00
          1   -1    0    0  502    0  0.00000000000E+00  0.00000000000E+00  0.31344610195E+03  0.31344610195E+03  0.00000000000E+00 0. -1.
         -1   -1    0    0    0  501 -0.00000000000E+00 -0.00000000000E+00 -0.17780519668E+03  0.17780519668E+03  0.00000000000E+00 0.  1.
         23    2    1    2    0    0  0.16722208282E+01 -0.15653962654E+03 -0.60717392841E+02  0.18939479420E+03  0.87614697838E+02 0.  0.
         23    2    1    2    0    0 -0.37944471324E+02  0.15470914099E+03  0.19154480806E+03  0.26522050411E+03  0.90982421903E+02 0.  0.
        -11    1    3    3    0    0 -0.11118839942E+02 -0.12547810154E+03 -0.71583968719E+01  0.12617299717E+03  0.00000000000E+00 0. -1.
         11    1    3    3    0    0  0.12791060771E+02 -0.31061524994E+02 -0.53558995969E+02  0.63221797030E+02  0.00000000000E+00 0.  1.
        -13    1    4    4    0    0 -0.26751415938E+02 -0.34280838559E+00  0.18077647705E+02  0.32288653097E+02  0.00000000000E+00 0.  1.
         13    1    4    4    0    0 -0.11193055386E+02  0.15505194938E+03  0.17346716036E+03  0.23293185102E+03  0.00000000000E+00 0. -1.
         21    1    1    2  502  501  0.36272250496E+02  0.18304855450E+01  0.48134900439E+01  0.36636000324E+02  0.00000000000E+00 0.  1.
<scales pt_clust_5="13000.00000" pt_clust_6="13000.00000" pt_clust_7="13000.00000" pt_clust_8="13000.00000" pt_clust_9="36.31841"></scales>
<clustering>
<clus scale="   36.318">  2  9  1 -1</clus>
<clus scale="   87.615">  5  6 -1 -1</clus>
<clus scale="   90.982">  7  8 -1 -1</clus>
<clus scale="  180.615">  2  5  1 -1</clus>
<clus scale="  182.273">  1  5  2 -1</clus>
</clustering>
</event>
<event>
 9    1  0.1713970E-005  0.1231409E+03  0.7546771E-02  0.1238192E+00
         -2   -1    0    0    0  501 -0.00000000000E+00  0.00000000000E+00  0.23068878535E+03  0.23068878535E+03  0.00000000000E+00 0.  1.
          2   -1    0    0  502    0  0.00000000000E+00 -0.00000000000E+00 -0.12824068057E+03  0.12824068057E+03  0.00000000000E+00 0. -1.
         23    2    1    2    0    0  0.41218449411E+02  0.51370806536E+00  0.10887731697E+03  0.14781168463E+03  0.91075789836E+02 0.  0.
         23    2    1    2    0    0 -0.92335394989E+02 -0.36769424592E+02 -0.38650876033E+02  0.14065037942E+03  0.91710540616E+02 0.  0.
        -11    1    4    4    0    0 -0.30680244645E+02 -0.38480710485E+02 -0.57945038172E+02  0.76024140506E+02  0.00000000000E+00 0. -1.
         11    1    4    4    0    0 -0.61655150345E+02  0.17112858931E+01  0.19294162139E+02  0.64626238913E+02  0.00000000000E+00 0.  1.
        -13    1    3    3    0    0  0.41836135611E+02  0.41131895000E+02  0.55748428634E+02  0.80931961080E+02  0.00000000000E+00 0.  1.
         13    1    3    3    0    0 -0.61768619936E+00 -0.40618186934E+02  0.53128888333E+02  0.66879723546E+02  0.00000000000E+00 0. -1.
         21    1    1    2  502  501  0.51116945578E+02  0.36255716526E+02  0.32221663842E+02  0.70467401874E+02  0.00000000000E+00 0.  1.
<scales pt_clust_5="13000.00000" pt_clust_6="13000.00000" pt_clust_7="13000.00000" pt_clust_8="13000.00000" pt_clust_9="62.66912"></scales>
<clustering>
<clus scale="   62.669">  1  9  2 -1</clus>
<clus scale="   91.076">  7  8 -1 -1</clus>
<clus scale="   91.711">  5  6 -1 -1</clus>
<clus scale="  122.669">  1  7  2 -1</clus>
<clus scale="  123.141">  2  5  1 -1</clus>
</clustering>
</event>
<event>
 9    1  0.1713970E-005  0.2398409E+03  0.7546771E-02  0.1119984E+00
         -2   -1    0    0    0  501 -0.00000000000E+00  0.00000000000E+00  0.38404651176E+03  0.38404651176E+03  0.00000000000E+00 0.  1.
          2   -1    0    0  502    0  0.00000000000E+00 -0.00000000000E+00 -0.75029780071E+03  0.75029780071E+03  0.00000000000E+00 0. -1.
         23    2    1    2    0    0 -0.10851060310E+03  0.17868975337E+03  0.15439456197E+03  0.27584250390E+03  0.92449052163E+02 0.  0.
         23    2    1    2    0    0  0.95750607737E+02 -0.20095297142E+03 -0.66745255549E+03  0.70946933940E+03  0.91123839427E+02 0.  0.
        -11    1    4    4    0    0  0.32260568933E+02 -0.13275987597E+03 -0.28826854844E+03  0.31900577580E+03  0.00000000000E+00 0.  1.
         11    1    4    4    0    0  0.63490038804E+02 -0.68193095452E+02 -0.37918400705E+03  0.39046356359E+03  0.00000000000E+00 0. -1.
        -13    1    3    3    0    0  0.74541000863E+01  0.65162673172E+02  0.54510904502E+02  0.85282919114E+02  0.00000000000E+00 0.  1.
         13    1    3    3    0    0 -0.11596470319E+03  0.11352708020E+03  0.99883657463E+02  0.19055958478E+03  0.00000000000E+00 0. -1.
         21    1    1    2  502  501  0.12759995365E+02  0.22263218047E+02  0.14680670458E+03  0.14903246918E+03  0.00000000000E+00 0.  1.
<scales pt_clust_5="13000.00000" pt_clust_6="13000.00000" pt_clust_7="13000.00000" pt_clust_8="13000.00000" pt_clust_9="25.66064"></scales>
<clustering>
<clus scale="   25.661">  1  9  2 -1</clus>
<clus scale="   91.124">  5  6 -1 -1</clus>
<clus scale="   92.449">  7  8 -1 -1</clus>
<clus scale="  239.333">  2  5  1 -1</clus>
<clus scale="  239.333">  2  5  1 -1</clus>
</clustering>
</event>
<event>
 9    1  0.1713970E-005  0.1203168E+03  0.7546771E-02  0.1243010E+00
         -1   -1    0    0    0  501 -0.00000000000E+00  0.00000000000E+00  0.85766592663E+03  0.85766592663E+03  0.00000000000E+00 0.  1.
          1   -1    0    0  502    0  0.00000000000E+00 -0.00000000000E+00 -0.27442063669E+02  0.27442063669E+02  0.00000000000E+00 0. -1.
         23    2    1    2    0    0  0.36145241518E+01 -0.83840050592E+02  0.34563148954E+03  0.36751893544E+03  0.92557130894E+02 0.  0.
         23    2    1    2    0    0 -0.45331085234E+02  0.59810155325E+02  0.24138379094E+03  0.26966140023E+03  0.93909393983E+02 0.  0.
        -13    1    4    4    0    0  0.16077337504E+02  0.56005389651E+02  0.10618346740E+03  0.12111982992E+03  0.00000000000E+00 0.  1.
         13    1    4    4    0    0 -0.61408422739E+02  0.38047656740E+01  0.13520032354E+03  0.14854157031E+03  0.00000000000E+00 0. -1.
        -13    1    3    3    0    0  0.46676135668E+02 -0.28693513085E+02  0.16159577007E+03  0.17063168591E+03  0.00000000000E+00 0.  1.
         13    1    3    3    0    0 -0.43061611516E+02 -0.55146537506E+02  0.18403571947E+03  0.19688724953E+03  0.00000000000E+00 0. -1.
         21    1    1    2  502  501  0.41716561083E+02  0.24029895267E+02  0.24320858248E+03  0.24792765462E+03  0.00000000000E+00 0.  1.
<scales pt_clust_5="13000.00000" pt_clust_6="13000.00000" pt_clust_7="13000.00000" pt_clust_8="13000.00000" pt_clust_9="48.14257"></scales>
<clustering>
<clus scale="   48.143">  1  9  2 -1</clus>
<clus scale="   92.557">  7  8 -1 -1</clus>
<clus scale="   93.909">  5  6 -1 -1</clus>
<clus scale="  119.264">  1  7  2 -1</clus>
<clus scale="  120.317">  2  5  1 -1</clus>
</clustering>
</event>
<event>
 9    1  0.1713970E-005  0.1086398E+03  0.7546771E-02  0.1266830E+00
         -1   -1    0    0    0  501 -0.00000000000E+00  0.00000000000E+00  0.50435275894E+02  0.50435275894E+02  0.00000000000E+00 0.  1.
          1   -1    0    0  502    0  0.00000000000E+00 -0.00000000000E+00 -0.46170756627E+03  0.46170756627E+03  0.00000000000E+00 0. -1.
         23    2    1    2    0    0  0.44925912737E+02 -0.36059437662E+02 -0.59038603313E+02  0.13131509041E+03  0.10217375205E+03 0.  0.
         23    2    1    2    0    0 -0.28528770776E+02  0.16357889217E+02 -0.33606084326E+03  0.35051969750E+03  0.94051563851E+02 0.  0.
        -11    1    4    4    0    0 -0.40384387833E+02 -0.30931031845E+02 -0.17453978805E+03  0.18180144423E+03  0.00000000000E+00 0. -1.
         11    1    4    4    0    0  0.11855617057E+02  0.47288921062E+02 -0.16152105521E+03  0.16871825327E+03  0.00000000000E+00 0.  1.
        -13    1    3    3    0    0  0.19709684121E+02  0.18583911595E+02  0.18764147761E+02  0.32953401334E+02  0.00000000000E+00 0.  1.
         13    1    3    3    0    0  0.25216228617E+02 -0.54643349256E+02 -0.77802751074E+02  0.98361689078E+02  0.00000000000E+00 0. -1.
         21    1    1    2  502  501 -0.16397141961E+02  0.19701548445E+02 -0.16172843800E+02  0.30308054247E+02  0.00000000000E+00 0. -1.
<scales pt_clust_5="13000.00000" pt_clust_6="13000.00000" pt_clust_7="13000.00000" pt_clust_8="13000.00000" pt_clust_9="25.63235"></scales>
<clustering>
<clus scale="   25.632">  1  9  2 -1</clus>
<clus scale="   94.052">  5  6 -1 -1</clus>
<clus scale="  101.039">  2  5  1 -1</clus>
<clus scale="  102.174">  7  8 -1 -1</clus>
<clus scale="  101.039">  2  5  1 -1</clus>
</clustering>
</event>
<event>
 9    1  0.1713970E-005  0.1211308E+03  0.7546771E-02  0.1241459E+00
         -2   -1    0    0    0  501 -0.00000000000E+00  0.00000000000E+00  0.56240312585E+02  0.56240312585E+02  0.00000000000E+00 0.  1.
          2   -1    0    0  502    0  0.00000000000E+00 -0.00000000000E+00 -0.48356747175E+03  0.48356747175E+03  0.00000000000E+00 0. -1.
         23    2    1    2    0    0  0.62301256536E+02  0.44888109582E+02 -0.61036678836E+02  0.13314225889E+03  0.90027751225E+02 0.  0.
         23    2    1    2    0    0 -0.53147315329E+02 -0.84905330722E+02 -0.30068252244E+03  0.32927316946E+03  0.89315667782E+02 0.  0.
        -11    1    3    3    0    0 -0.14199879651E+02  0.34542332137E+02 -0.36291473761E+02  0.52075717559E+02  0.00000000000E+00 0.  1.
         11    1    3    3    0    0  0.76501136187E+02  0.10345777446E+02 -0.24745205076E+02  0.81066541329E+02  0.00000000000E+00 0. -1.
        -11    1    4    4    0    0 -0.71713950723E+02 -0.55579145785E+02 -0.15581873678E+03  0.18030920915E+03  0.00000000000E+00 0.  1.
         11    1    4    4    0    0  0.18566635393E+02 -0.29326184937E+02 -0.14486378567E+03  0.14896396031E+03  0.00000000000E+00 0. -1.
         21    1    1    2  502  501 -0.91539412066E+01  0.40017221140E+02 -0.65607957884E+02  0.77392355986E+02  0.00000000000E+00 0.  1.
<scales pt_clust_5="13000.00000" pt_clust_6="13000.00000" pt_clust_7="13000.00000" pt_clust_8="13000.00000" pt_clust_9="41.05085"></scales>
<clustering>
<clus scale="   41.051">  2  9  1 -1</clus>
<clus scale="   89.316">  7  8 -1 -1</clus>
<clus scale="   90.028">  5  6 -1 -1</clus>
<clus scale="  120.602">  2  7  1 -1</clus>
<clus scale="   41.051">  2  5  1 -1</clus>
</clustering>
</event>
<event>
 9    1  0.1713970E-005  0.2529522E+03  0.7546771E-02  0.1111546E+00
         -1   -1    0    0    0  501 -0.00000000000E+00  0.00000000000E+00  0.87725699785E+02  0.87725699785E+02  0.00000000000E+00 0.  1.
          1   -1    0    0  502    0  0.00000000000E+00 -0.00000000000E+00 -0.17067840323E+04  0.17067840323E+04  0.00000000000E+00 0. -1.
         23    2    1    2    0    0 -0.74461918150E+02 -0.12212225999E+03 -0.12899687676E+03  0.21368844553E+03  0.92542605862E+02 0.  0.
         23    2    1    2    0    0  0.68668677620E+02  0.26009516856E+03 -0.13659473463E+04  0.13951484633E+04  0.90896631992E+02 0.  0.
        -13    1    4    4    0    0  0.30878612481E+02  0.19886409059E+03 -0.11514456097E+04  0.11689000844E+04  0.00000000000E+00 0. -1.
         13    1    4    4    0    0  0.37790065139E+02  0.61231077975E+02 -0.21450173660E+03  0.22624837886E+03  0.00000000000E+00 0.  1.
        -13    1    3    3    0    0 -0.94435183944E+02 -0.99865313533E+02 -0.12000285945E+03  0.18246032744E+03  0.00000000000E+00 0.  1.
         13    1    3    3    0    0  0.19973265795E+02 -0.22256946453E+02 -0.89940173112E+01  0.31228118088E+02  0.00000000000E+00 0. -1.
         21    1    1    2  502  501  0.57932405295E+01 -0.13797290858E+03 -0.12411410942E+03  0.18567282325E+03  0.00000000000E+00 0.  1.
<scales pt_clust_5="13000.00000" pt_clust_6="13000.00000" pt_clust_7="13000.00000" pt_clust_8="13000.00000" pt_clust_9="138.09448"></scales>
<clustering>
<clus scale="   90.897">  5  6 -1 -1</clus>
<clus scale="   92.543">  7  8 -1 -1</clus>
<clus scale="  138.094">  1  9  2 -1</clus>
<clus scale="  252.355">  2  5  1 -1</clus>
<clus scale="  252.355">  2  5  1 -1</clus>
</clustering>
</event>
<event>
 9    1  0.1713970E-005  0.2047637E+03  0.7546771E-02  0.1177701E+00
         -4   -1    0    0    0  501 -0.00000000000E+00  0.00000000000E+00  0.25384349022E+03  0.25384349022E+03  0.00000000000E+00 0. -1.
          4   -1    0    0  502    0  0.00000000000E+00 -0.00000000000E+00 -0.31423555633E+03  0.31423555633E+03  0.00000000000E+00 0.  1.
         23    2    1    2    0    0  0.10094236254E+03 -0.16472779492E+03  0.15158772446E+01  0.21477549984E+03  0.93816898660E+02 0.  0.
         23    2    1    2    0    0  0.12607523431E+02  0.29665015364E+02 -0.13137870856E+03  0.16366779522E+03  0.92129362021E+02 0.  0.
        -11    1    4    4    0    0  0.33710664481E+02  0.54303590657E+02 -0.98950511155E+02  0.11779852510E+03  0.00000000000E+00 0. -1.
         11    1    4    4    0    0 -0.21103141050E+02 -0.24638575293E+02 -0.32428197407E+02  0.45869270124E+02  0.00000000000E+00 0.  1.
        -13    1    3    3    0    0  0.65977699559E+02 -0.37114169486E+02 -0.25207788549E+02  0.79786910075E+02  0.00000000000E+00 0.  1.
         13    1    3    3    0    0  0.34964662977E+02 -0.12761362543E+03  0.26723665794E+02  0.13498858976E+03  0.00000000000E+00 0. -1.
         21    1    1    2  502  501 -0.11354988597E+03  0.13506277955E+03  0.69470765201E+02  0.18963575149E+03  0.00000000000E+00 0.  1.
<scales pt_clust_5="13000.00000" pt_clust_6="13000.00000" pt_clust_7="13000.00000" pt_clust_8="13000.00000" pt_clust_9="182.00703"></scales>
<clustering>
<clus scale="   92.129">  5  6 -1 -1</clus>
<clus scale="   93.817">  7  8 -1 -1</clus>
<clus scale="   97.605">  2  5  1 -1</clus>
<clus scale="  182.007">  1  9  2 -1</clus>
<clus scale="   97.605">  2  5  1 -1</clus>
</clustering>
</event>
<event>
 9    1  0.1910622E-005  0.9811273E+02  0.7546771E-02  0.1284479E+00
          1   -1    0    0  502    0  0.00000000000E+00  0.00000000000E+00  0.24364687870E+03  0.24364687870E+03  0.00000000000E+00 0. -1.
         -1   -1    0    0    0  501 -0.00000000000E+00 -0.00000000000E+00 -0.17608066863E+03  0.17608066863E+03  0.00000000000E+00 0.  1.
         23    2    1    2    0    0  0.14537980248E+02  0.19210906207E+02 -0.52052036489E+02  0.10797974361E+03  0.91486604153E+02 0.  0.
         23    2    1    2    0    0 -0.33869154782E+02 -0.13698947867E+02  0.20310955094E+03  0.22587071772E+03  0.91811277200E+02 0.  0.
        -13    1    4    4    0    0 -0.19138565716E+02 -0.38864936460E+02  0.36264885980E+02  0.56496990529E+02  0.00000000000E+00 0.  1.
         13    1    4    4    0    0 -0.14730589066E+02  0.25165988594E+02  0.16684466496E+03  0.16937372719E+03  0.00000000000E+00 0. -1.
        -13    1    3    3    0    0 -0.32755115271E+02  0.23062408078E+01  0.35801442603E+01  0.33030800111E+02  0.00000000000E+00 0. -1.
         13    1    3    3    0    0  0.47293095519E+02  0.16904665400E+02 -0.55632180749E+02  0.74948943494E+02  0.00000000000E+00 0.  1.
         21    1    1    2  502  501  0.19331174534E+02 -0.55119583408E+01 -0.83491304381E+02  0.85877086006E+02  0.00000000000E+00 0.  1.
<scales pt_clust_5="13000.00000" pt_clust_6="13000.00000" pt_clust_7="13000.00000" pt_clust_8="13000.00000" pt_clust_9="20.10164"></scales>
<clustering>
<clus scale="   20.102">  2  9  1 -1</clus>
<clus scale="   91.487">  7  8 -1 -1</clus>
<clus scale="   91.811">  5  6 -1 -1</clus>
<clus scale="   97.809">  2  7  1 -1</clus>
<clus scale="   98.113">  1  5  2 -1</clus>
</clustering>
</event>
<event>
 9    1  0.1713970E-005  0.1378928E+03  0.7546771E-02  0.1216403E+00
          1   -1    0    0  502    0  0.00000000000E+00  0.00000000000E+00  0.32936404079E+03  0.32936404079E+03  0.00000000000E+00 0. -1.
         -1   -1    0    0    0  501 -0.00000000000E+00 -0.00000000000E+00 -0.97317424556E+02  0.97317424556E+02  0.00000000000E+00 0.  1.
         23    2    1    2    0    0 -0.70175008324E+02  0.52152192873E+02  0.28714117032E+01  0.12593385709E+03  0.90590884427E+02 0.  0.
         23    2    1    2    0    0  0.80653448020E+02 -0.72170948456E+02  0.23757546732E+03  0.27664132923E+03  0.91513375459E+02 0.  0.
        -11    1    4    4    0    0 -0.20119041898E+02 -0.60078592641E+01  0.30431459073E+02  0.36972204711E+02  0.00000000000E+00 0.  1.
         11    1    4    4    0    0  0.10077248992E+03 -0.66163089192E+02  0.20714400825E+03  0.23966912452E+03  0.00000000000E+00 0. -1.
        -13    1    3    3    0    0 -0.71182592222E+02  0.31837545969E+01  0.20064773881E+02  0.74024947684E+02  0.00000000000E+00 0. -1.
         13    1    3    3    0    0  0.10075838979E+01  0.48968438276E+02 -0.17193362178E+02  0.51908909404E+02  0.00000000000E+00 0.  1.
         21    1    1    2  502  501 -0.10478439696E+02  0.20018755582E+02 -0.84002627910E+01  0.24106279026E+02  0.00000000000E+00 0.  1.
<scales pt_clust_5="13000.00000" pt_clust_6="13000.00000" pt_clust_7="13000.00000" pt_clust_8="13000.00000" pt_clust_9="22.59532"></scales>
<clustering>
<clus scale="   22.595">  2  9  1 -1</clus>
<clus scale="   90.591">  7  8 -1 -1</clus>
<clus scale="   91.513">  5  6 -1 -1</clus>
<clus scale="  137.282">  2  7  1 -1</clus>
<clus scale="  137.893">  1  5  2 -1</clus>
</clustering>
</event>
<event>
 9    1  0.1713970E-005  0.9878043E+02  0.7546771E-02  0.1283103E+00
          3   -1    0    0  502    0  0.00000000000E+00  0.00000000000E+00  0.10058549584E+03  0.10058549584E+03  0.00000000000E+00 0. -1.
         -3   -1    0    0    0  501 -0.00000000000E+00 -0.00000000000E+00 -0.13458932095E+03  0.13458932095E+03  0.00000000000E+00 0.  1.
         23    2    1    2    0    0  0.30582563922E+01 -0.34026734758E+02 -0.10495683935E+02  0.97190577149E+02  0.90380735197E+02 0.  0.
         23    2    1    2    0    0  0.21076566647E+02  0.40992199693E+02  0.24171118162E+01  0.10188540132E+03  0.90830669245E+02 0.  0.
        -11    1    4    4    0    0  0.27588712897E+02  0.64914082279E+02 -0.14319726023E+02  0.71972423266E+02  0.00000000000E+00 0.  1.
         11    1    4    4    0    0 -0.65121462507E+01 -0.23921882586E+02  0.16736837839E+02  0.29912978055E+02  0.00000000000E+00 0. -1.
        -13    1    3    3    0    0  0.38676304265E+02  0.99980357977E+01 -0.28706966217E+01  0.40050694507E+02  0.00000000000E+00 0.  1.
         13    1    3    3    0    0 -0.35618047873E+02 -0.44024770556E+02 -0.76249873131E+01  0.57139882641E+02  0.00000000000E+00 0. -1.
         21    1    1    2  502  501 -0.24134823039E+02 -0.69654649349E+01 -0.25925252992E+02  0.36098838314E+02  0.00000000000E+00 0. -1.
<scales pt_clust_5="13000.00000" pt_clust_6="13000.00000" pt_clust_7="13000.00000" pt_clust_8="13000.00000" pt_clust_9="25.11986"></scales>
<clustering>
<clus scale="   25.120">  2  9  1 -1</clus>
<clus scale="   90.381">  7  8 -1 -1</clus>
<clus scale="   90.831">  5  6 -1 -1</clus>
<clus scale="   98.367">  2  7  1 -1</clus>
<clus scale="   98.780">  1  5  2 -1</clus>
</clustering>
</event>
<event>
 9    1  0.1713970E-005  0.1059510E+03  0.7546771E-02  0.1268341E+00
          2   -1    0    0  502    0  0.00000000000E+00  0.00000000000E+00  0.78387580672E+02  0.78387580672E+02  0.00000000000E+00 0. -1.
         -2   -1    0    0    0  501 -0.00000000000E+00 -0.00000000000E+00 -0.19391731182E+03  0.19391731182E+03  0.00000000000E+00 0.  1.
         23    2    1    2    0    0  0.32321070781E+02 -0.38401658907E+02 -0.51237606177E+02  0.11542559327E+03  0.90434707235E+02 0.  0.
         23    2    1    2    0    0 -0.18540734132E+02  0.58430942365E+02 -0.27026534894E+02  0.11238442223E+03  0.90232427233E+02 0.  0.
        -11    1    4    4    0    0  0.32080889292E+02  0.23042655526E+02 -0.31408797710E+02  0.50464442978E+02  0.00000000000E+00 0.  1.
         11    1    4    4    0    0 -0.50621623425E+02  0.35388286839E+02  0.43822628160E+01  0.61919979255E+02  0.00000000000E+00 0. -1.
        -13    1    3    3    0    0 -0.69051814186E+01 -0.56467236820E+02 -0.43355676723E+02  0.71525834973E+02  0.00000000000E+00 0.  1.
         13    1    3    3    0    0  0.39226252200E+02  0.18065577913E+02 -0.78819294536E+01  0.43899758301E+02  0.00000000000E+00 0. -1.
         21    1    1    2  502  501 -0.13780336649E+02 -0.20029283458E+02 -0.37265590076E+02  0.44494876983E+02  0.00000000000E+00 0.  1.
<scales pt_clust_5="13000.00000" pt_clust_6="13000.00000" pt_clust_7="13000.00000" pt_clust_8="13000.00000" pt_clust_9="24.31193"></scales>
<clustering>
<clus scale="   24.312">  2  9  1 -1</clus>
<clus scale="   90.232">  5  6 -1 -1</clus>
<clus scale="   90.435">  7  8 -1 -1</clus>
<clus scale="  105.778">  1  5  2 -1</clus>
<clus scale="  105.778">  1  5  2 -1</clus>
</clustering>
</event>
<event>
 9    1  0.1713970E-005  0.9377308E+02  0.7546771E-02  0.1294349E+00
          1   -1    0    0  502    0  0.00000000000E+00  0.00000000000E+00  0.24042135529E+03  0.24042135529E+03  0.00000000000E+00 0. -1.
         -1   -1    0    0    0  501 -0.00000000000E+00 -0.00000000000E+00 -0.25201531983E+03  0.25201531983E+03  0.00000000000E+00 0.  1.
         23    2    1    2    0    0 -0.24001474471E+02  0.66344739932E+01  0.95256793123E+02  0.13382323180E+03  0.90635057855E+02 0.  0.
         23    2    1    2    0    0 -0.68039096108E+01 -0.32235669699E+02  0.10500251563E+03  0.14300685178E+03  0.91323599256E+02 0.  0.
        -11    1    4    4    0    0  0.40424073097E+02 -0.25413684769E+02  0.65515790747E+02  0.81069599089E+02  0.00000000000E+00 0.  1.
         11    1    4    4    0    0 -0.47227982708E+02 -0.68219849301E+01  0.39486724880E+02  0.61937252690E+02  0.00000000000E+00 0. -1.
        -11    1    3    3    0    0 -0.44058108270E+02 -0.21923324640E+02  0.83639959426E+02  0.97043247474E+02  0.00000000000E+00 0. -1.
         11    1    3    3    0    0  0.20056633799E+02  0.28557798633E+02  0.11616833697E+02  0.36779984330E+02  0.00000000000E+00 0.  1.
         21    1    1    2  502  501  0.30805384082E+02  0.25601195705E+02 -0.21185327329E+03  0.21560659153E+03  0.00000000000E+00 0.  1.
<scales pt_clust_5="13000.00000" pt_clust_6="13000.00000" pt_clust_7="13000.00000" pt_clust_8="13000.00000" pt_clust_9="40.05487"></scales>
<clustering>
<clus scale="   40.055">  2  9  1 -1</clus>
<clus scale="   90.635">  7  8 -1 -1</clus>
<clus scale="   91.324">  5  6 -1 -1</clus>
<clus scale="   93.103">  2  7  1 -1</clus>
<clus scale="   93.773">  1  5  2 -1</clus>
</clustering>
</event>
<event>
 9    1  0.1713970E-005  0.9728198E+02  0.7546771E-02  0.1294179E+00
         -2   -1    0    0    0  501 -0.00000000000E+00  0.00000000000E+00  0.21744326692E+02  0.21744326692E+02  0.00000000000E+00 0.  1.
          2   -1    0    0  502    0  0.00000000000E+00 -0.00000000000E+00 -0.74325872522E+03  0.74325872522E+03  0.00000000000E+00 0. -1.
         23    2    1    2    0    0 -0.32423408141E+02 -0.12038585332E+02 -0.39115316317E+03  0.40415589232E+03  0.95629406050E+02 0.  0.
         23    2    1    2    0    0  0.55367253896E+01 -0.34388407502E+01 -0.31636080226E+03  0.32681105297E+03  0.81724085692E+02 0.  0.
        -11    1    3    3    0    0 -0.42104137118E+02  0.34324956306E+02 -0.20687215367E+03  0.21388559782E+03  0.00000000000E+00 0.  1.
         11    1    3    3    0    0  0.96807289771E+01 -0.46363541638E+02 -0.18428100950E+03  0.19027029450E+03  0.00000000000E+00 0. -1.
        -13    1    4    4    0    0  0.38704230474E+02  0.12667997287E+02 -0.21789726780E+03  0.22167028426E+03  0.00000000000E+00 0. -1.
         13    1    4    4    0    0 -0.33167505084E+02 -0.16106838037E+02 -0.98463534462E+02  0.10514076870E+03  0.00000000000E+00 0.  1.
         21    1    1    2  502  501  0.26886682752E+02  0.15477426083E+02 -0.14000433095E+02  0.34036106628E+02  0.00000000000E+00 0.  1.
<scales pt_clust_5="13000.00000" pt_clust_6="13000.00000" pt_clust_7="13000.00000" pt_clust_8="13000.00000" pt_clust_9="31.02329"></scales>
<clustering>
<clus scale="   31.023">  1  9  2 -1</clus>
<clus scale="   81.724">  7  8 -1 -1</clus>
<clus scale="   83.652">  2  7  1 -1</clus>
<clus scale="   95.629">  5  6 -1 -1</clus>
<clus scale="   83.652">  2  5  1 -1</clus>
</clustering>
</event>
<event>
 9    1  0.1713970E-005  0.1192060E+03  0.7546771E-02  0.1244645E+00
          2   -1    0    0  502    0  0.00000000000E+00  0.00000000000E+00  0.82628786260E+02  0.82628786260E+02  0.00000000000E+00 0. -1.
         -2   -1    0    0    0  501 -0.00000000000E+00 -0.00000000000E+00 -0.25632272063E+03  0.25632272063E+03  0.00000000000E+00 0.  1.
         23    2    1    2    0    0 -0.44797929723E+02  0.28364310772E+02 -0.11759848906E+03  0.15943134866E+03  0.93688642167E+02 0.  0.
         23    2    1    2    0    0  0.84285211086E+02 -0.16803598478E+02 -0.31145107818E+02  0.13140140099E+03  0.94392545847E+02 0.  0.
        -11    1    4    4    0    0 -0.90777741227E+01  0.22299139471E+02  0.36831697699E+01  0.24356176706E+02  0.00000000000E+00 0.  1.
         11    1    4    4    0    0  0.93362985209E+02 -0.39102737949E+02 -0.34828277588E+02  0.10704522428E+03  0.00000000000E+00 0. -1.
        -13    1    3    3    0    0 -0.57534446728E+02  0.53059477236E+02 -0.98055678727E+02  0.12546089756E+03  0.00000000000E+00 0.  1.
         13    1    3    3    0    0  0.12736517006E+02 -0.24695166463E+02 -0.19542810336E+02  0.33970451100E+02  0.00000000000E+00 0. -1.
         21    1    1    2  502  501 -0.39487281364E+02 -0.11560712294E+02 -0.24950337493E+02  0.48118757250E+02  0.00000000000E+00 0.  1.
<scales pt_clust_5="13000.00000" pt_clust_6="13000.00000" pt_clust_7="13000.00000" pt_clust_8="13000.00000" pt_clust_9="41.14481"></scales>
<clustering>
<clus scale="   41.145">  2  9  1 -1</clus>
<clus scale="   93.689">  7  8 -1 -1</clus>
<clus scale="   94.393">  5  6 -1 -1</clus>
<clus scale="  118.649">  2  7  1 -1</clus>
<clus scale="  119.206">  1  5  2 -1</clus>
</clustering>
</event>
<event>
 9    1  0.1713970E-005  0.3581605E+03  0.7546771E-02  0.1059450E+00
          2   -1    0    0  502    0  0.00000000000E+00  0.00000000000E+00  0.60175216788E+03  0.60175216788E+03  0.00000000000E+00 0. -1.
         -2   -1    0    0    0  501 -0.00000000000E+00 -0.00000000000E+00 -0.23912169788E+03  0.23912169788E+03  0.00000000000E+00 0.  1.
         23    2    1    2    0    0 -0.14741677962E+03 -0.31914166126E+03  0.18996385540E+03  0.40915358373E+03  0.87961820473E+02 0.  0.
         23    2    1    2    0    0  0.11840192189E+03  0.31947857568E+03  0.18661498271E+03  0.39952505796E+03  0.93324941679E+02 0.  0.
        -11    1    4    4    0    0  0.70506816022E+02  0.70453868901E+02  0.52965946034E+02  0.11287315973E+03  0.00000000000E+00 0.  1.
         11    1    4    4    0    0  0.47895105868E+02  0.24902470678E+03  0.13364903668E+03  0.28665189823E+03  0.00000000000E+00 0. -1.
        -13    1    3    3    0    0 -0.33459283587E+02 -0.16791794354E+03  0.69864790871E+02  0.18492443977E+03  0.00000000000E+00 0. -1.
         13    1    3    3    0    0 -0.11395749603E+03 -0.15122371771E+03  0.12009906453E+03  0.22422914396E+03  0.00000000000E+00 0.  1.
         21    1    1    2  502  501  0.29014857727E+02 -0.33691442236E+00 -0.13948368104E+02  0.32195224072E+02  0.00000000000E+00 0.  1.
<scales pt_clust_5="13000.00000" pt_clust_6="13000.00000" pt_clust_7="13000.00000" pt_clust_8="13000.00000" pt_clust_9="29.01681"></scales>
<clustering>
<clus scale="   29.017">  2  9  1 -1</clus>
<clus scale="   87.962">  7  8 -1 -1</clus>
<clus scale="   93.325">  5  6 -1 -1</clus>
<clus scale="  356.801">  2  7  1 -1</clus>
<clus scale="  358.161">  1  5  2 -1</clus>
</clustering>
</event>
<event>
 9    1  0.1713970E-005  0.9798056E+02  0.7546771E-02  0.1285588E+00
         -1   -1    0    0    0  501 -0.00000000000E+00  0.00000000000E+00  0.58260909570E+02  0.58260909570E+02  0.00000000000E+00 0.  1.
          1   -1    0    0  502    0  0.00000000000E+00 -0.00000000000E+00 -0.45985172637E+03  0.45985172637E+03  0.00000000000E+00 0. -1.
         23    2    1    2    0    0 -0.26284423149E+02  0.14345586520E+02 -0.87533961236E+02  0.12966090033E+03  0.90846507649E+02 0.  0.
         23    2    1    2    0    0 -0.75208513851E+01  0.51873096122E+02 -0.29210630443E+03  0.31093053069E+03  0.92759476711E+02 0.  0.
        -13    1    3    3    0    0  0.24456793128E+02  0.26284379636E+02 -0.11938394290E+02  0.37835546794E+02  0.00000000000E+00 0.  1.
         13    1    3    3    0    0 -0.50741216277E+02 -0.11938793116E+02 -0.75595566945E+02  0.91825353537E+02  0.00000000000E+00 0. -1.
        -13    1    4    4    0    0  0.34821087172E+02  0.52737078023E+02 -0.15354342372E+03  0.16604002673E+03  0.00000000000E+00 0.  1.
         13    1    4    4    0    0 -0.42341938557E+02 -0.86398190083E+00 -0.13856288071E+03  0.14489050395E+03  0.00000000000E+00 0. -1.
         21    1    1    2  502  501  0.33805274534E+02 -0.66218682642E+02 -0.21950551132E+02  0.77521204920E+02  0.00000000000E+00 0.  1.
<scales pt_clust_5="13000.00000" pt_clust_6="13000.00000" pt_clust_7="13000.00000" pt_clust_8="13000.00000" pt_clust_9="74.34857"></scales>
<clustering>
<clus scale="   74.349">  1  9  2 -1</clus>
<clus scale="   90.847">  5  6 -1 -1</clus>
<clus scale="   92.759">  7  8 -1 -1</clus>
<clus scale="   96.171">  1  5  2 -1</clus>
<clus scale="   97.981">  2  5  1 -1</clus>
</clustering>
</event>
<event>
 9    1  0.1713970E-005  0.1356878E+03  0.7546771E-02  0.1219532E+00
          1   -1    0    0  502    0  0.00000000000E+00  0.00000000000E+00  0.10752621087E+03  0.10752621087E+03  0.00000000000E+00 0. -1.
         -1   -1    0    0    0  501 -0.00000000000E+00 -0.00000000000E+00 -0.42821502136E+03  0.42821502136E+03  0.00000000000E+00 0.  1.
         23    2    1    2    0    0 -0.47656698341E+02  0.11071334351E+03 -0.24907813003E+03  0.29165416289E+03  0.92160894866E+02 0.  0.
         23    2    1    2    0    0  0.57667924252E+02 -0.76805987955E+02  0.30722468085E+02  0.13581885287E+03  0.90984292476E+02 0.  0.
        -11    1    4    4    0    0  0.21238566304E+02 -0.51165582816E+02  0.60656816691E+02  0.82147690014E+02  0.00000000000E+00 0. -1.
         11    1    4    4    0    0  0.36429357948E+02 -0.25640405139E+02 -0.29934348606E+02  0.53671162859E+02  0.00000000000E+00 0.  1.
        -11    1    3    3    0    0 -0.58660846381E+02  0.23038578373E+02 -0.94092085706E+02  0.11324836239E+03  0.00000000000E+00 0. -1.
         11    1    3    3    0    0  0.11004148041E+02  0.87674765134E+02 -0.15498604433E+03  0.17840580050E+03  0.00000000000E+00 0.  1.
         21    1    1    2  502  501 -0.10011225911E+02 -0.33907355553E+02 -0.10233314854E+03  0.10826821646E+03  0.00000000000E+00 0. -1.
<scales pt_clust_5="13000.00000" pt_clust_6="13000.00000" pt_clust_7="13000.00000" pt_clust_8="13000.00000" pt_clust_9="35.35440"></scales>
<clustering>
<clus scale="   35.354">  2  9  1 -1</clus>
<clus scale="   90.984">  5  6 -1 -1</clus>
<clus scale="   92.161">  7  8 -1 -1</clus>
<clus scale="  134.891">  1  5  2 -1</clus>
<clus scale="  134.891">  1  5  2 -1</clus>
</clustering>
</event>
<event>
 9    1  0.1713970E-005  0.1380516E+03  0.7546771E-02  0.1231114E+00
         -1   -1    0    0    0  501 -0.00000000000E+00  0.00000000000E+00  0.98379996788E+02  0.98379996788E+02  0.00000000000E+00 0.  1.
          1   -1    0    0  502    0  0.00000000000E+00 -0.00000000000E+00 -0.63601395411E+03  0.63601395411E+03  0.00000000000E+00 0. -1.
         23    2    1    2    0    0 -0.69159632234E+02 -0.22320557683E+02 -0.10578116606E+03  0.15781275159E+03  0.91836525665E+02 0.  0.
         23    2    1    2    0    0 -0.26797665577E+02 -0.41834049103E+02 -0.44877205541E+03  0.45991981720E+03  0.87531011584E+02 0.  0.
        -13    1    4    4    0    0  0.18483426120E+01  0.24786344330E+02 -0.70341952889E+02  0.74604085491E+02  0.00000000000E+00 0.  1.
         13    1    4    4    0    0 -0.28646008189E+02 -0.66620393433E+02 -0.37843010252E+03  0.38531573171E+03  0.00000000000E+00 0. -1.
        -13    1    3    3    0    0 -0.32431217639E+02  0.17614257979E+02 -0.95777199598E+02  0.10264169681E+03  0.00000000000E+00 0.  1.
         13    1    3    3    0    0 -0.36728414596E+02 -0.39934815662E+02 -0.10003966464E+02  0.55171054782E+02  0.00000000000E+00 0. -1.
         21    1    1    2  502  501  0.95957297811E+02  0.64154606786E+02  0.16919264152E+02  0.11666138210E+03  0.00000000000E+00 0.  1.
<scales pt_clust_5="13000.00000" pt_clust_6="13000.00000" pt_clust_7="13000.00000" pt_clust_8="13000.00000" pt_clust_9="103.07419"></scales>
<clustering>
<clus scale="   87.531">  5  6 -1 -1</clus>
<clus scale="   91.837">  7  8 -1 -1</clus>
<clus scale="  100.647">  2  5  1 -1</clus>
<clus scale="  103.074">  1  9  2 -1</clus>
<clus scale="  100.647">  2  5  1 -1</clus>
</clustering>
</event>
<event>
 9    1  0.1713970E-005  0.1081888E+03  0.7546771E-02  0.1264004E+00
          1   -1    0    0  502    0  0.00000000000E+00  0.00000000000E+00  0.42348682105E+03  0.42348682105E+03  0.00000000000E+00 0. -1.
         -1   -1    0    0    0  501 -0.00000000000E+00 -0.00000000000E+00 -0.34387425240E+02  0.34387425240E+02  0.00000000000E+00 0.  1.
         23    2    1    2    0    0 -0.55569436630E+02  0.90189458874E+01  0.16467388606E+03  0.19609295600E+03  0.90364013672E+02 0.  0.
         23    2    1    2    0    0  0.62739747323E+02  0.13038073774E+02  0.19501295505E+03  0.22432433039E+03  0.90471461272E+02 0.  0.
        -13    1    3    3    0    0 -0.76205811174E+02  0.18628179640E+02  0.97354554861E+02  0.12502897298E+03  0.00000000000E+00 0.  1.
         13    1    3    3    0    0  0.20636374544E+02 -0.96092337531E+01  0.67319331203E+02  0.71063983010E+02  0.00000000000E+00 0. -1.
        -13    1    4    4    0    0  0.12712649750E+02 -0.22012330248E+02  0.66077860197E+01  0.26264367167E+02  0.00000000000E+00 0.  1.
         13    1    4    4    0    0  0.50027097573E+02  0.35050404022E+02  0.18840516903E+03  0.19805996322E+03  0.00000000000E+00 0. -1.
         21    1    1    2  502  501 -0.71703106926E+01 -0.22057019662E+02  0.29412554699E+02  0.37456959910E+02  0.00000000000E+00 0.  1.
<scales pt_clust_5="13000.00000" pt_clust_6="13000.00000" pt_clust_7="13000.00000" pt_clust_8="13000.00000" pt_clust_9="23.19322"></scales>
<clustering>
<clus scale="   23.193">  2  9  1 -1</clus>
<clus scale="   90.364">  5  6 -1 -1</clus>
<clus scale="   90.471">  7  8 -1 -1</clus>
<clus scale="  108.099">  2  5  1 -1</clus>
<clus scale="  108.189">  1  5  2 -1</clus>
</clustering>
</event>
<event>
 9    1  0.1713970E-005  0.1009209E+03  0.7546771E-02  0.1279648E+00
         -1   -1    0    0    0  501 -0.00000000000E+00  0.00000000000E+00  0.41742409137E+02  0.41742409137E+02  0.00000000000E+00 0.  1.
          1   -1    0    0  502    0  0.00000000000E+00 -0.00000000000E+00 -0.34377751282E+03  0.34377751282E+03  0.00000000000E+00 0. -1.
         23    2    1    2    0    0  0.32713404134E+02  0.37072285481E+02 -0.12358189247E+03  0.16107245416E+03  0.90704631521E+02 0.  0.
         23    2    1    2    0    0 -0.58465856848E+01 -0.32456770669E+02 -0.16850370360E+03  0.19542813610E+03  0.93332918767E+02 0.  0.
        -11    1    4    4    0    0 -0.15142720976E+02  0.14389036382E+02 -0.63584478750E+00  0.20898580458E+02  0.00000000000E+00 0.  1.
         11    1    4    4    0    0  0.92961352914E+01 -0.46845807051E+02 -0.16786785882E+03  0.17452955564E+03  0.00000000000E+00 0. -1.
        -11    1    3    3    0    0 -0.16667912408E+02  0.19513327787E+02 -0.10064074440E+03  0.10386119920E+03  0.00000000000E+00 0. -1.
         11    1    3    3    0    0  0.49381316542E+02  0.17558957694E+02 -0.22941148070E+02  0.57211254955E+02  0.00000000000E+00 0.  1.
         21    1    1    2  502  501 -0.26866818449E+02 -0.46155148119E+01 -0.99495076009E+01  0.29019331696E+02  0.00000000000E+00 0. -1.
<scales pt_clust_5="13000.00000" pt_clust_6="13000.00000" pt_clust_7="13000.00000" pt_clust_8="13000.00000" pt_clust_9="27.26039"></scales>
<clustering>
<clus scale="   27.260">  1  9  2 -1</clus>
<clus scale="   90.705">  7  8 -1 -1</clus>
<clus scale="   93.333">  5  6 -1 -1</clus>
<clus scale="   98.495">  1  7  2 -1</clus>
<clus scale="  100.921">  2  5  1 -1</clus>
</clustering>
</event>
<event>
 9    1  0.1713970E-005  0.1000864E+03  0.7546771E-02  0.1282144E+00
         -2   -1    0    0    0  501 -0.00000000000E+00  0.00000000000E+00  0.27295626668E+03  0.27295626668E+03  0.00000000000E+00 0.  1.
          2   -1    0    0  502    0  0.00000000000E+00 -0.00000000000E+00 -0.49669957414E+02  0.49669957414E+02  0.00000000000E+00 0. -1.
         23    2    1    2    0    0  0.20800184187E+01 -0.19541792003E+02  0.13236963217E+03  0.16388816642E+03  0.94611856872E+02 0.  0.
         23    2    1    2    0    0  0.20508330541E+02  0.36653367809E+02  0.58711920821E+02  0.11584067008E+03  0.90597517655E+02 0.  0.
        -11    1    4    4    0    0  0.15740918981E+02 -0.28534615135E+02  0.30553349214E+02  0.44671108554E+02  0.00000000000E+00 0.  1.
         11    1    4    4    0    0  0.47674115608E+01  0.65187982943E+02  0.28158571607E+02  0.71169561529E+02  0.00000000000E+00 0. -1.
        -11    1    3    3    0    0  0.44610437482E+02 -0.24872362080E+02  0.90792384796E+02  0.10417284994E+03  0.00000000000E+00 0.  1.
         11    1    3    3    0    0 -0.42530419064E+02  0.53305700779E+01  0.41577247369E+02  0.59715316476E+02  0.00000000000E+00 0. -1.
         21    1    1    2  502  501 -0.22588348960E+02 -0.17111575806E+02  0.32204756277E+02  0.42897387592E+02  0.00000000000E+00 0.  1.
<scales pt_clust_5="13000.00000" pt_clust_6="13000.00000" pt_clust_7="13000.00000" pt_clust_8="13000.00000" pt_clust_9="28.33795"></scales>
<clustering>
<clus scale="   28.338">  1  9  2 -1</clus>
<clus scale="   90.598">  5  6 -1 -1</clus>
<clus scale="   94.612">  7  8 -1 -1</clus>
<clus scale="   96.301">  2  5  1 -1</clus>
<clus scale="   96.301">  2  5  1 -1</clus>
</clustering>
</event>
<event>
 9    1  0.1713970E-005  0.1146565E+03  0.7546771E-02  0.1252996E+00
         -1   -1    0    0    0  501 -0.00000000000E+00  0.00000000000E+00  0.23109517657E+03  0.23109517657E+03  0.00000000000E+00 0.  1.
          1   -1    0    0  502    0  0.00000000000E+00 -0.00000000000E+00 -0.13764067225E+03  0.13764067225E+03  0.00000000000E+00 0. -1.
         23    2    1    2    0    0  0.24806019546E+02  0.71485265639E+02  0.97315077986E+02  0.15212522054E+03  0.89142450667E+02 0.  0.
         23    2    1    2    0    0  0.63293507808E+02 -0.63572465555E+02 -0.12454356237E+01  0.12811781460E+03  0.91460903133E+02 0.  0.
        -11    1    4    4    0    0  0.48750320887E+02 -0.33090824867E+02  0.42647580064E+02  0.72735222295E+02  0.00000000000E+00 0.  1.
         11    1    4    4    0    0  0.14543186921E+02 -0.30481640688E+02 -0.43893015688E+02  0.55382592310E+02  0.00000000000E+00 0. -1.
        -11    1    3    3    0    0  0.44638326429E+02  0.81720879371E+02  0.87381189888E+02  0.12769633768E+03  0.00000000000E+00 0.  1.
         11    1    3    3    0    0 -0.19832306883E+02 -0.10235613732E+02  0.99338880983E+01  0.24428882854E+02  0.00000000000E+00 0. -1.
         21    1    1    2  502  501 -0.88099527354E+02 -0.79128000846E+01 -0.26151380488E+01  0.88492813675E+02  0.00000000000E+00 0. -1.
<scales pt_clust_5="13000.00000" pt_clust_6="13000.00000" pt_clust_7="13000.00000" pt_clust_8="13000.00000" pt_clust_9="88.45416"></scales>
<clustering>
<clus scale="   88.454">  2  9  1 -1</clus>
<clus scale="   89.142">  7  8 -1 -1</clus>
<clus scale="   91.461">  5  6 -1 -1</clus>
<clus scale="  112.816">  1  7  2 -1</clus>
<clus scale="   88.454">  2  5  1 -1</clus>
</clustering>
</event>
<event>
 9    1  0.1713970E-005  0.1169092E+03  0.7546771E-02  0.1259910E+00
         -2   -1    0    0    0  501 -0.00000000000E+00  0.00000000000E+00  0.94740788981E+02  0.94740788981E+02  0.00000000000E+00 0. -1.
          2   -1    0    0  502    0  0.00000000000E+00 -0.00000000000E+00 -0.16608474114E+03  0.16608474114E+03  0.00000000000E+00 0.  1.
         23    2    1    2    0    0  0.15830446755E+02 -0.28168786243E+02 -0.20583142826E+01  0.97164931486E+02  0.91611700618E+02 0.  0.
         23    2    1    2    0    0  0.15486826265E+00  0.31357756144E+01 -0.66808178414E+02  0.13385590567E+03  0.11594918588E+03 0.  0.
        -13    1    4    4    0    0 -0.31594815365E+02 -0.13710844269E+02  0.20051659576E+02  0.39853339386E+02  0.00000000000E+00 0. -1.
         13    1    4    4    0    0  0.31749683627E+02  0.16846619883E+02 -0.86859837990E+02  0.94002566282E+02  0.00000000000E+00 0.  1.
        -13    1    3    3    0    0 -0.21398568650E+02 -0.38160375211E+02 -0.26851474393E+02  0.51333367838E+02  0.00000000000E+00 0. -1.
         13    1    3    3    0    0  0.37229015405E+02  0.99915889678E+01  0.24793160110E+02  0.45831563648E+02  0.00000000000E+00 0.  1.
         21    1    1    2  502  501 -0.15985315018E+02  0.25033010628E+02 -0.24774594582E+01  0.29804692964E+02  0.00000000000E+00 0. -1.
<scales pt_clust_5="13000.00000" pt_clust_6="13000.00000" pt_clust_7="13000.00000" pt_clust_8="13000.00000" pt_clust_9="29.70155"></scales>
<clustering>
<clus scale="   29.702">  1  9  2 -1</clus>
<clus scale="   91.612">  7  8 -1 -1</clus>
<clus scale="   92.824">  1  7  2 -1</clus>
<clus scale="  115.949">  5  6 -1 -1</clus>
<clus scale="  116.909">  2  5  1 -1</clus>
</clustering>
</event>
<event>
 9    1  0.1713970E-005  0.1144580E+03  0.7546771E-02  0.1253162E+00
          2   -1    0    0  502    0  0.00000000000E+00  0.00000000000E+00  0.28615213332E+03  0.28615213332E+03  0.00000000000E+00 0. -1.
         -2   -1    0    0    0  501 -0.00000000000E+00 -0.00000000000E+00 -0.64069859080E+02  0.64069859080E+02  0.00000000000E+00 0.  1.
         23    2    1    2    0    0 -0.13223377310E+02  0.71948193134E+02  0.88059614077E+02  0.14646588456E+03  0.91358412340E+02 0.  0.
         23    2    1    2    0    0  0.29189710553E+02 -0.56182024057E+02  0.14082380901E+03  0.18030932746E+03  0.93121691124E+02 0.  0.
        -11    1    3    3    0    0  0.20550577241E+02  0.66589211146E+02  0.88022538182E+02  0.11226939251E+03  0.00000000000E+00 0. -1.
         11    1    3    3    0    0 -0.33773954551E+02  0.53589819879E+01  0.37075894552E-01  0.34196492050E+02  0.00000000000E+00 0.  1.
        -11    1    4    4    0    0 -0.23305083773E+02 -0.37147940947E+02  0.10545908281E+03  0.11421346065E+03  0.00000000000E+00 0.  1.
         11    1    4    4    0    0  0.52494794326E+02 -0.19034083110E+02  0.35364726201E+02  0.66095866818E+02  0.00000000000E+00 0. -1.
         21    1    1    2  502  501 -0.15966333243E+02 -0.15766169077E+02 -0.68011488425E+01  0.23446780379E+02  0.00000000000E+00 0.  1.
<scales pt_clust_5="13000.00000" pt_clust_6="13000.00000" pt_clust_7="13000.00000" pt_clust_8="13000.00000" pt_clust_9="22.43871"></scales>
<clustering>
<clus scale="   22.439">  2  9  1 -1</clus>
<clus scale="   91.358">  5  6 -1 -1</clus>
<clus scale="   93.122">  7  8 -1 -1</clus>
<clus scale="  113.028">  2  5  1 -1</clus>
<clus scale="  114.458">  1  5  2 -1</clus>
</clustering>
</event>
<event>
 9    1  0.1713970E-005  0.1023957E+03  0.7546771E-02  0.1275889E+00
          1   -1    0    0  502    0  0.00000000000E+00  0.00000000000E+00  0.29924231247E+03  0.29924231247E+03  0.00000000000E+00 0. -1.
         -1   -1    0    0    0  501 -0.00000000000E+00 -0.00000000000E+00 -0.63816203194E+02  0.63816203194E+02  0.00000000000E+00 0.  1.
         23    2    1    2    0    0 -0.48296410032E+02 -0.34807543552E+02  0.31565789486E+02  0.11287717371E+03  0.90557986769E+02 0.  0.
         23    2    1    2    0    0  0.26349227237E+02 -0.82042822050E+01  0.12187345057E+03  0.15503123575E+03  0.91760307764E+02 0.  0.
        -11    1    3    3    0    0 -0.57225691768E+02 -0.13286454668E+02 -0.15152920679E+02  0.60670591567E+02  0.00000000000E+00 0.  1.
         11    1    3    3    0    0  0.89292817362E+01 -0.21521088883E+02  0.46718710165E+02  0.52206582138E+02  0.00000000000E+00 0. -1.
        -13    1    4    4    0    0  0.19571877639E+02  0.31613089676E+02  0.10476494066E+03  0.11116716523E+03  0.00000000000E+00 0.  1.
         13    1    4    4    0    0  0.67773495974E+01 -0.39817371881E+02  0.17108509906E+02  0.43864070516E+02  0.00000000000E+00 0. -1.
         21    1    1    2  502  501  0.21947182795E+02  0.43011825757E+02  0.81986869217E+02  0.95150106209E+02  0.00000000000E+00 0. -1.
<scales pt_clust_5="13000.00000" pt_clust_6="13000.00000" pt_clust_7="13000.00000" pt_clust_8="13000.00000" pt_clust_9="48.28764"></scales>
<clustering>
<clus scale="   48.288">  1  9  2 -1</clus>
<clus scale="   90.558">  5  6 -1 -1</clus>
<clus scale="   91.760">  7  8 -1 -1</clus>
<clus scale="  101.320">  2  5  1 -1</clus>
<clus scale="   48.288">  1  5  2 -1</clus>
</clustering>
</event>
<event>
 9    1  0.1713970E-005  0.1029652E+03  0.7546771E-02  0.1274826E+00
         -2   -1    0    0    0  501 -0.00000000000E+00  0.00000000000E+00  0.15339409009E+03  0.15339409009E+03  0.00000000000E+00 0.  1.
          2   -1    0    0  502    0  0.00000000000E+00 -0.00000000000E+00 -0.18738664334E+03  0.18738664334E+03  0.00000000000E+00 0. -1.
         23    2    1    2    0    0 -0.78082812771E+01 -0.57969508233E+02  0.77937075247E+02  0.13403630441E+03  0.92033200860E+02 0.  0.
         23    2    1    2    0    0 -0.64685785047E+01  0.40671569962E+02 -0.13843939850E+03  0.17201957770E+03  0.93430449765E+02 0.  0.
        -11    1    4    4    0    0 -0.91834597187E+01 -0.21225086967E+02 -0.33079413250E+01  0.23361993172E+02  0.00000000000E+00 0.  1.
         11    1    4    4    0    0  0.27148812140E+01  0.61896656929E+02 -0.13513145717E+03  0.14865758452E+03  0.00000000000E+00 0. -1.
        -13    1    3    3    0    0 -0.30831035254E+02 -0.65740908668E+02  0.81859196308E+02  0.10942279391E+03  0.00000000000E+00 0.  1.
         13    1    3    3    0    0  0.23022753977E+02  0.77714004352E+01 -0.39221210609E+01  0.24613510498E+02  0.00000000000E+00 0. -1.
         21    1    1    2  502  501  0.14276859782E+02  0.17297938270E+02  0.26509770001E+02  0.34724851319E+02  0.00000000000E+00 0. -1.
<scales pt_clust_5="13000.00000" pt_clust_6="13000.00000" pt_clust_7="13000.00000" pt_clust_8="13000.00000" pt_clust_9="22.42872"></scales>
<clustering>
<clus scale="   22.429">  1  9  2 -1</clus>
<clus scale="   92.033">  7  8 -1 -1</clus>
<clus scale="   93.430">  5  6 -1 -1</clus>
<clus scale="  101.699">  1  7  2 -1</clus>
<clus scale="  102.965">  2  5  1 -1</clus>
</clustering>
</event>
<event>
 9    1  0.1713970E-005  0.1082547E+03  0.7546771E-02  0.1266197E+00
         -1   -1    0    0    0  501 -0.00000000000E+00  0.00000000000E+00  0.88256026944E+02  0.88256026944E+02  0.00000000000E+00 0.  1.
          1   -1    0    0  502    0  0.00000000000E+00 -0.00000000000E+00 -0.23489494446E+03  0.23489494446E+03  0.00000000000E+00 0. -1.
         23    2    1    2    0    0  0.41775216385E+02  0.57583478104E+02 -0.92310088323E+02  0.15100175638E+03  0.96017458666E+02 0.  0.
         23    2    1    2    0    0 -0.17823281503E+02 -0.28745722699E+02 -0.81057679834E+02  0.12610855062E+03  0.90493276785E+02 0.  0.
        -11    1    4    4    0    0  0.35872715444E+02 -0.22960552817E+02 -0.36608019132E+02  0.56162138170E+02  0.00000000000E+00 0.  1.
         11    1    4    4    0    0 -0.53695996947E+02 -0.57851698822E+01 -0.44449660702E+02  0.69946412454E+02  0.00000000000E+00 0. -1.
        -13    1    3    3    0    0  0.48117351267E+02  0.81332518449E+02 -0.78189352518E+02  0.12265330365E+03  0.00000000000E+00 0. -1.
         13    1    3    3    0    0 -0.63421348822E+01 -0.23749040345E+02 -0.14120735805E+02  0.28348452724E+02  0.00000000000E+00 0.  1.
         21    1    1    2  502  501 -0.23951934882E+02 -0.28837755406E+02  0.26728850645E+02  0.46040664398E+02  0.00000000000E+00 0.  1.
<scales pt_clust_5="13000.00000" pt_clust_6="13000.00000" pt_clust_7="13000.00000" pt_clust_8="13000.00000" pt_clust_9="37.48748"></scales>
<clustering>
<clus scale="   37.487">  1  9  2 -1</clus>
<clus scale="   90.493">  5  6 -1 -1</clus>
<clus scale="   96.017">  7  8 -1 -1</clus>
<clus scale="  103.386">  2  5  1 -1</clus>
<clus scale="  103.386">  2  5  1 -1</clus>
</clustering>
</event>
<event>
 9    1  0.2736618E-005  0.9864565E+02  0.7546771E-02  0.1283727E+00
          1   -1    0    0  502    0  0.00000000000E+00  0.00000000000E+00  0.28012646815E+03  0.28012646815E+03  0.00000000000E+00 0. -1.
         -1   -1    0    0    0  501 -0.00000000000E+00 -0.00000000000E+00 -0.14887637135E+03  0.14887637135E+03  0.00000000000E+00 0.  1.
         23    2    1    2    0    0 -0.43573164706E+02 -0.33466655897E+02 -0.10628611329E+03  0.15055385447E+03  0.91384284643E+02 0.  0.
         23    2    1    2    0    0  0.31972096092E+02  0.81610119196E+01  0.22926211238E+03  0.24940727187E+03  0.92488129212E+02 0.  0.
        -11    1    3    3    0    0  0.38558549364E+01  0.27891899711E+02 -0.37478322112E+02  0.46876969986E+02  0.00000000000E+00 0.  1.
         11    1    3    3    0    0 -0.47429019642E+02 -0.61358555608E+02 -0.68807791175E+02  0.10367688449E+03  0.00000000000E+00 0. -1.
        -11    1    4    4    0    0  0.10610757087E+02 -0.37019627281E+02  0.15627366922E+03  0.16094875166E+03  0.00000000000E+00 0.  1.
         11    1    4    4    0    0  0.21361339005E+02  0.45180639201E+02  0.72988443160E+02  0.88458520209E+02  0.00000000000E+00 0. -1.
         21    1    1    2  502  501  0.11601068614E+02  0.25305643978E+02  0.82740977080E+01  0.29041713155E+02  0.00000000000E+00 0. -1.
<scales pt_clust_5="13000.00000" pt_clust_6="13000.00000" pt_clust_7="13000.00000" pt_clust_8="13000.00000" pt_clust_9="27.83811"></scales>
<clustering>
<clus scale="   27.838">  2  9  1 -1</clus>
<clus scale="   91.384">  5  6 -1 -1</clus>
<clus scale="   92.488">  7  8 -1 -1</clus>
<clus scale="   97.611">  2  5  1 -1</clus>
<clus scale="   98.646">  1  5  2 -1</clus>
</clustering>
</event>
<event>
 9    1  0.1713970E-005  0.1858579E+03  0.7546771E-02  0.1162320E+00
         -1   -1    0    0    0  501 -0.00000000000E+00  0.00000000000E+00  0.82315338442E+02  0.82315338442E+02  0.00000000000E+00 0.  1.
          1   -1    0    0  502    0  0.00000000000E+00 -0.00000000000E+00 -0.51366060080E+03  0.51366060080E+03  0.00000000000E+00 0. -1.
         23    2    1    2    0    0 -0.12960258924E+03  0.66125886575E+02 -0.14912350952E+03  0.22776081781E+03  0.92020133791E+02 0.  0.
         23    2    1    2    0    0  0.15612396720E+03 -0.76046716967E+02 -0.27639023014E+03  0.33930469042E+03  0.92619206044E+02 0.  0.
        -11    1    3    3    0    0 -0.47413852295E+02  0.90520957658E+01 -0.11202298995E+00  0.48270346760E+02  0.00000000000E+00 0.  1.
         11    1    3    3    0    0 -0.82188736942E+02  0.57073790809E+02 -0.14901148653E+03  0.17949047105E+03  0.00000000000E+00 0. -1.
        -13    1    4    4    0    0  0.98369492866E+02 -0.93285674419E+02 -0.20637947182E+03  0.24692359257E+03  0.00000000000E+00 0.  1.
         13    1    4    4    0    0  0.57754474333E+02  0.17238957452E+02 -0.70010758324E+02  0.92381097853E+02  0.00000000000E+00 0. -1.
         21    1    1    2  502  501 -0.26521377961E+02  0.99208303924E+01 -0.58315226937E+01  0.28910431017E+02  0.00000000000E+00 0. -1.
<scales pt_clust_5="13000.00000" pt_clust_6="13000.00000" pt_clust_7="13000.00000" pt_clust_8="13000.00000" pt_clust_9="28.31619"></scales>
<clustering>
<clus scale="   28.316">  1  9  2 -1</clus>
<clus scale="   92.020">  5  6 -1 -1</clus>
<clus scale="   92.619">  7  8 -1 -1</clus>
<clus scale="  185.560">  1  5  2 -1</clus>
<clus scale="  185.858">  2  5  1 -1</clus>
</clustering>
</event>
<event>
 9    1  0.1713970E-005  0.1000970E+03  0.7546771E-02  0.1280418E+00
         -2   -1    0    0    0  501 -0.00000000000E+00  0.00000000000E+00  0.44107810177E+02  0.44107810177E+02  0.00000000000E+00 0.  1.
          2   -1    0    0  502    0  0.00000000000E+00 -0.00000000000E+00 -0.46268170467E+03  0.46268170467E+03  0.00000000000E+00 0. -1.
         23    2    1    2    0    0  0.39407113194E+01  0.39049745890E+02 -0.81352527944E+02  0.12889944705E+03  0.91958804833E+02 0.  0.
         23    2    1    2    0    0 -0.24936468742E+02 -0.30145307139E+02 -0.34033013698E+03  0.35487321935E+03  0.92627386090E+02 0.  0.
        -11    1    3    3    0    0 -0.22438131241E+02  0.25881004770E+02 -0.91513887887E+02  0.97714317363E+02  0.00000000000E+00 0. -1.
         11    1    3    3    0    0  0.26378842561E+02  0.13168741120E+02  0.10161359943E+02  0.31185129684E+02  0.00000000000E+00 0.  1.
        -13    1    4    4    0    0  0.15634523775E+02 -0.49433911395E+02 -0.13336169220E+03  0.14308560681E+03  0.00000000000E+00 0.  1.
         13    1    4    4    0    0 -0.40570992517E+02  0.19288604256E+02 -0.20696844478E+03  0.21178761254E+03  0.00000000000E+00 0. -1.
         21    1    1    2  502  501  0.20995757423E+02 -0.89044387506E+01  0.31087704321E+01  0.23016848456E+02  0.00000000000E+00 0.  1.
<scales pt_clust_5="13000.00000" pt_clust_6="13000.00000" pt_clust_7="13000.00000" pt_clust_8="13000.00000" pt_clust_9="22.80594"></scales>
<clustering>
<clus scale="   22.806">  1  9  2 -1</clus>
<clus scale="   91.959">  5  6 -1 -1</clus>
<clus scale="   92.627">  7  8 -1 -1</clus>
<clus scale="   99.479">  1  5  2 -1</clus>
<clus scale="  100.097">  2  5  1 -1</clus>
</clustering>
</event>
<event>
 9    1  0.1713970E-005  0.2777284E+03  0.7546771E-02  0.1097440E+00
         -2   -1    0    0    0  501 -0.00000000000E+00  0.00000000000E+00  0.90658990253E+02  0.90658990253E+02  0.00000000000E+00 0.  1.
          2   -1    0    0  502    0  0.00000000000E+00 -0.00000000000E+00 -0.12306917665E+04  0.12306917665E+04  0.00000000000E+00 0. -1.
         23    2    1    2    0    0 -0.29828961583E+03  0.40744425333E+02 -0.53881021330E+03  0.62207933182E+03  0.77649507475E+02 0.  0.
         23    2    1    2    0    0  0.23858938047E+03  0.78518443302E+01 -0.55160612780E+03  0.60768809587E+03  0.89604451413E+02 0.  0.
        -11    1    4    4    0    0  0.17934112600E+03  0.44700379014E+02 -0.38524724254E+03  0.42729006686E+03  0.00000000000E+00 0.  1.
         11    1    4    4    0    0  0.59248254473E+02 -0.36848534684E+02 -0.16635888526E+03  0.18039802901E+03  0.00000000000E+00 0. -1.
        -13    1    3    3    0    0 -0.16839712226E+03  0.54155327252E+02 -0.26347346567E+03  0.31734627360E+03  0.00000000000E+00 0. -1.
         13    1    3    3    0    0 -0.12989249357E+03 -0.13410901919E+02 -0.27533674763E+03  0.30473305822E+03  0.00000000000E+00 0.  1.
         21    1    1    2  502  501  0.59700235358E+02 -0.48596269663E+02 -0.49616435173E+02  0.91583329085E+02  0.00000000000E+00 0.  1.
<scales pt_clust_5="13000.00000" pt_clust_6="13000.00000" pt_clust_7="13000.00000" pt_clust_8="13000.00000" pt_clust_9="76.97867"></scales>
<clustering>
<clus scale="   76.979">  1  9  2 -1</clus>
<clus scale="   77.650">  7  8 -1 -1</clus>
<clus scale="   89.604">  5  6 -1 -1</clus>
<clus scale="  274.105">  1  7  2 -1</clus>
<clus scale="  277.728">  2  5  1 -1</clus>
</clustering>
</event>
<event>
 9    1  0.1713970E-005  0.1262382E+03  0.7546771E-02  0.1233976E+00
         -1   -1    0    0    0  501 -0.00000000000E+00  0.00000000000E+00  0.15258807333E+03  0.15258807333E+03  0.00000000000E+00 0.  1.
          1   -1    0    0  502    0  0.00000000000E+00 -0.00000000000E+00 -0.36507700163E+03  0.36507700163E+03  0.00000000000E+00 0. -1.
         23    2    1    2    0    0  0.80953908169E+02  0.65047309329E+02  0.69361385510E+02  0.15460645166E+03  0.91145298260E+02 0.  0.
         23    2    1    2    0    0 -0.56945043266E+02 -0.59227987057E+02 -0.30477168639E+03  0.32935878018E+03  0.94025171360E+02 0.  0.
        -11    1    3    3    0    0  0.67861199049E+02  0.28126575818E+02  0.85073073034E+02  0.11239961903E+03  0.00000000000E+00 0.  1.
         11    1    3    3    0    0  0.13092709120E+02  0.36920733511E+02 -0.15711687524E+02  0.42206832622E+02  0.00000000000E+00 0. -1.
        -13    1    4    4    0    0 -0.82126545185E+02 -0.33099189200E+02 -0.21276026319E+03  0.23045011465E+03  0.00000000000E+00 0. -1.
         13    1    4    4    0    0  0.25181501919E+02 -0.26128797857E+02 -0.92011423203E+02  0.98908665526E+02  0.00000000000E+00 0.  1.
         21    1    1    2  502  501 -0.24008864903E+02 -0.58193222726E+01  0.22921372589E+02  0.33699843130E+02  0.00000000000E+00 0. -1.
<scales pt_clust_5="13000.00000" pt_clust_6="13000.00000" pt_clust_7="13000.00000" pt_clust_8="13000.00000" pt_clust_9="24.70405"></scales>
<clustering>
<clus scale="   24.704">  1  9  2 -1</clus>
<clus scale="   91.145">  5  6 -1 -1</clus>
<clus scale="   94.025">  7  8 -1 -1</clus>
<clus scale="  124.108">  1  5  2 -1</clus>
<clus scale="  126.238">  2  5  1 -1</clus>
</clustering>
</event>
<event>
 9    1  0.1713970E-005  0.9779458E+02  0.7546771E-02  0.1285929E+00
         -1   -1    0    0    0  501 -0.00000000000E+00  0.00000000000E+00  0.36785031696E+03  0.36785031696E+03  0.00000000000E+00 0.  1.
          1   -1    0    0  502    0  0.00000000000E+00 -0.00000000000E+00 -0.48448340238E+02  0.48448340238E+02  0.00000000000E+00 0. -1.
         23    2    1    2    0    0 -0.29974697485E+01 -0.17467831631E+02  0.23120235292E+03  0.24914610904E+03  0.91132572047E+02 0.  0.
         23    2    1    2    0    0 -0.83968827878E+01  0.39713310770E+02  0.28079589977E+02  0.10204409188E+03  0.89313373136E+02 0.  0.
        -13    1    4    4    0    0  0.75689799044E-01 -0.27524232331E+02 -0.26137736743E+01  0.27648162817E+02  0.00000000000E+00 0. -1.
         13    1    4    4    0    0 -0.84725725868E+01  0.67237543101E+02  0.30693363651E+02  0.74395929060E+02  0.00000000000E+00 0.  1.
        -13    1    3    3    0    0  0.50172725069E+01  0.37077326994E+02  0.10333361248E+03  0.10989875644E+03  0.00000000000E+00 0.  1.
         13    1    3    3    0    0 -0.80147422554E+01 -0.54545158625E+02  0.12786874045E+03  0.13924735260E+03  0.00000000000E+00 0. -1.
         21    1    1    2  502  501  0.11394352536E+02 -0.22245479139E+02  0.60120033823E+02  0.65108456277E+02  0.00000000000E+00 0. -1.
<scales pt_clust_5="13000.00000" pt_clust_6="13000.00000" pt_clust_7="13000.00000" pt_clust_8="13000.00000" pt_clust_9="24.99385"></scales>
<clustering>
<clus scale="   24.994">  1  9  2 -1</clus>
<clus scale="   89.313">  5  6 -1 -1</clus>
<clus scale="   91.133">  7  8 -1 -1</clus>
<clus scale="   96.102">  2  5  1 -1</clus>
<clus scale="   96.102">  2  5  1 -1</clus>
</clustering>
</event>
<event>
 9    1  0.1713970E-005  0.1205067E+03  0.7546771E-02  0.1243359E+00
          1   -1    0    0  502    0  0.00000000000E+00  0.00000000000E+00  0.34059220726E+03  0.34059220726E+03  0.00000000000E+00 0. -1.
         -1   -1    0    0    0  501 -0.00000000000E+00 -0.00000000000E+00 -0.91197640110E+02  0.91197640110E+02  0.00000000000E+00 0.  1.
         23    2    1    2    0    0 -0.69035383790E+02 -0.30252866546E+02  0.52875842417E+02  0.13017404811E+03  0.92023409737E+02 0.  0.
         23    2    1    2    0    0  0.81074178548E+02 -0.60251156459E+01  0.22422160870E+03  0.25440907992E+03  0.88539966631E+02 0.  0.
        -11    1    3    3    0    0 -0.78716916757E+02  0.82961882984E+01  0.33372265614E+02  0.85900453062E+02  0.00000000000E+00 0.  1.
         11    1    3    3    0    0  0.96815329668E+01 -0.38549054844E+02  0.19503576802E+02  0.44273595043E+02  0.00000000000E+00 0. -1.
        -13    1    4    4    0    0 -0.11822465163E+02 -0.22476493192E+02  0.57204044154E+02  0.62588066724E+02  0.00000000000E+00 0.  1.
         13    1    4    4    0    0  0.92896643711E+02  0.16451377546E+02  0.16701756454E+03  0.19182101319E+03  0.00000000000E+00 0. -1.
         21    1    1    2  502  501 -0.12038794758E+02  0.36277982192E+02 -0.27702883968E+02  0.47206719345E+02  0.00000000000E+00 0.  1.
<scales pt_clust_5="13000.00000" pt_clust_6="13000.00000" pt_clust_7="13000.00000" pt_clust_8="13000.00000" pt_clust_9="38.22335"></scales>
<clustering>
<clus scale="   38.223">  2  9  1 -1</clus>
<clus scale="   88.540">  7  8 -1 -1</clus>
<clus scale="   92.023">  5  6 -1 -1</clus>
<clus scale="  117.868">  1  7  2 -1</clus>
<clus scale="  117.868">  1  5  2 -1</clus>
</clustering>
</event>
<event>
 9    1  0.1713970E-005  0.1091849E+03  0.7546771E-02  0.1262264E+00
         -1   -1    0    0    0  501 -0.00000000000E+00  0.00000000000E+00  0.36728566071E+02  0.36728566071E+02  0.00000000000E+00 0.  1.
          1   -1    0    0  502    0  0.00000000000E+00 -0.00000000000E+00 -0.47680578417E+03  0.47680578417E+03  0.00000000000E+00 0. -1.
         23    2    1    2    0    0 -0.46296786392E+02  0.23511460499E+02 -0.94334520367E+02  0.14125834323E+03  0.91426126427E+02 0.  0.
         23    2    1    2    0    0  0.42622435169E+02 -0.47822377045E+02 -0.30533206783E+03  0.32497335878E+03  0.90974504941E+02 0.  0.
        -13    1    4    4    0    0  0.79748786485E+01 -0.65410139179E+02 -0.13445043862E+03  0.14972977473E+03  0.00000000000E+00 0.  1.
         13    1    4    4    0    0  0.34647556521E+02  0.17587762134E+02 -0.17088162921E+03  0.17524358405E+03  0.00000000000E+00 0. -1.
        -13    1    3    3    0    0 -0.32664646106E+02 -0.30934424748E+02 -0.23108971216E+02  0.50576103946E+02  0.00000000000E+00 0.  1.
         13    1    3    3    0    0 -0.13632140286E+02  0.54445885247E+02 -0.71225549151E+02  0.90682239281E+02  0.00000000000E+00 0. -1.
         21    1    1    2  502  501  0.36743512232E+01  0.24310916546E+02 -0.40410629901E+02  0.47302648227E+02  0.00000000000E+00 0. -1.
<scales pt_clust_5="13000.00000" pt_clust_6="13000.00000" pt_clust_7="13000.00000" pt_clust_8="13000.00000" pt_clust_9="24.58702"></scales>
<clustering>
<clus scale="   24.587">  1  9  2 -1</clus>
<clus scale="   90.975">  5  6 -1 -1</clus>
<clus scale="   91.426">  7  8 -1 -1</clus>
<clus scale="  108.807">  2  5  1 -1</clus>
<clus scale="  108.807">  2  5  1 -1</clus>
</clustering>
</event>
<event>
 9    1  0.1713970E-005  0.9388425E+02  0.7546771E-02  0.1294793E+00
          2   -1    0    0  502    0  0.00000000000E+00  0.00000000000E+00  0.31228609399E+03  0.31228609399E+03  0.00000000000E+00 0. -1.
         -2   -1    0    0    0  501 -0.00000000000E+00 -0.00000000000E+00 -0.49098628516E+02  0.49098628516E+02  0.00000000000E+00 0.  1.
         23    2    1    2    0    0 -0.73836002915E+01  0.89030562672E+01  0.85928631742E+02  0.12567498718E+03  0.90976319367E+02 0.  0.
         23    2    1    2    0    0  0.13439313675E+02  0.17889189362E+02  0.18409429411E+03  0.20740391244E+03  0.92871069363E+02 0.  0.
        -11    1    4    4    0    0  0.25729419602E+02 -0.15828182715E+02  0.16300108571E+03  0.16577662183E+03  0.00000000000E+00 0. -1.
         11    1    4    4    0    0 -0.12290105926E+02  0.33717372077E+02  0.21093208397E+02  0.41627290615E+02  0.00000000000E+00 0.  1.
        -13    1    3    3    0    0 -0.41977274748E+02  0.14537985834E+02  0.15576122351E+02  0.47075048750E+02  0.00000000000E+00 0.  1.
         13    1    3    3    0    0  0.34593674456E+02 -0.56349295665E+01  0.70352509391E+02  0.78599938430E+02  0.00000000000E+00 0. -1.
         21    1    1    2  502  501 -0.60557133840E+01 -0.26792245629E+02 -0.68354603780E+01  0.28305822882E+02  0.00000000000E+00 0.  1.
<scales pt_clust_5="13000.00000" pt_clust_6="13000.00000" pt_clust_7="13000.00000" pt_clust_8="13000.00000" pt_clust_9="27.46809"></scales>
<clustering>
<clus scale="   27.468">  2  9  1 -1</clus>
<clus scale="   90.976">  7  8 -1 -1</clus>
<clus scale="   92.010">  2  7  1 -1</clus>
<clus scale="   92.871">  5  6 -1 -1</clus>
<clus scale="   93.884">  1  5  2 -1</clus>
</clustering>
</event>
<event>
 9    1  0.1713970E-005  0.9249801E+02  0.7546771E-02  0.1302071E+00
          2   -1    0    0  502    0  0.00000000000E+00  0.00000000000E+00  0.19710545898E+03  0.19710545898E+03  0.00000000000E+00 0. -1.
         -2   -1    0    0    0  501 -0.00000000000E+00 -0.00000000000E+00 -0.96982238609E+02  0.96982238609E+02  0.00000000000E+00 0.  1.
         23    2    1    2    0    0 -0.18542423179E+01  0.17156402557E+02 -0.24073763046E+02  0.88453670447E+02  0.83347017854E+02 0.  0.
         23    2    1    2    0    0 -0.50200824949E+01  0.17708254793E+02  0.13861868323E+03  0.16728319796E+03  0.91813645300E+02 0.  0.
        -11    1    4    4    0    0  0.20169258306E+02 -0.31784040828E+02  0.47975712496E+02  0.60981089048E+02  0.00000000000E+00 0.  1.
         11    1    4    4    0    0 -0.25189340801E+02  0.49492295620E+02  0.90642970734E+02  0.10630210891E+03  0.00000000000E+00 0. -1.
        -13    1    3    3    0    0  0.17245349277E+02 -0.29639653455E+02 -0.62313077615E+01  0.34853125040E+02  0.00000000000E+00 0.  1.
         13    1    3    3    0    0 -0.19099591595E+02  0.46796056012E+02 -0.17842455284E+02  0.53600545407E+02  0.00000000000E+00 0. -1.
         21    1    1    2  502  501  0.68743248128E+01 -0.34864657350E+02 -0.14421699811E+02  0.38350829185E+02  0.00000000000E+00 0.  1.
<scales pt_clust_5="13000.00000" pt_clust_6="13000.00000" pt_clust_7="13000.00000" pt_clust_8="13000.00000" pt_clust_9="35.53591"></scales>
<clustering>
<clus scale="   35.536">  2  9  1 -1</clus>
<clus scale="   83.347">  7  8 -1 -1</clus>
<clus scale="   84.100">  2  7  1 -1</clus>
<clus scale="   91.814">  5  6 -1 -1</clus>
<clus scale="   92.498">  1  5  2 -1</clus>
</clustering>
</event>
<event>
 9    1  0.1713970E-005  0.1661836E+03  0.7546771E-02  0.1185439E+00
         -2   -1    0    0    0  501 -0.00000000000E+00  0.00000000000E+00  0.65139695860E+02  0.65139695860E+02  0.00000000000E+00 0.  1.
          2   -1    0    0  502    0  0.00000000000E+00 -0.00000000000E+00 -0.58615328292E+03  0.58615328292E+03  0.00000000000E+00 0. -1.
         23    2    1    2    0    0  0.25910257878E+02  0.10384782240E+03 -0.10034092271E+03  0.18395531369E+03  0.11097542512E+03 0.  0.
         23    2    1    2    0    0 -0.44458020373E+02 -0.12190163540E+03 -0.40962465949E+03  0.43919484951E+03  0.90902309607E+02 0.  0.
        -11    1    3    3    0    0  0.11451864342E+02 -0.22032611807E+02 -0.48655515480E+01  0.25303256151E+02  0.00000000000E+00 0. -1.
         11    1    3    3    0    0  0.14458393536E+02  0.12588043421E+03 -0.95475371166E+02  0.15865205753E+03  0.00000000000E+00 0.  1.
        -11    1    4    4    0    0 -0.69277180440E+02 -0.81467490387E+02 -0.32545920085E+03  0.34257841604E+03  0.00000000000E+00 0. -1.
         11    1    4    4    0    0  0.24819160067E+02 -0.40434145018E+02 -0.84165458637E+02  0.96616433475E+02  0.00000000000E+00 0.  1.
         21    1    1    2  502  501  0.18547762494E+02  0.18053813001E+02 -0.11048004862E+02  0.28142815582E+02  0.00000000000E+00 0.  1.
<scales pt_clust_5="13000.00000" pt_clust_6="13000.00000" pt_clust_7="13000.00000" pt_clust_8="13000.00000" pt_clust_9="25.88358"></scales>
<clustering>
<clus scale="   25.884">  1  9  2 -1</clus>
<clus scale="   90.902">  7  8 -1 -1</clus>
<clus scale="  110.975">  5  6 -1 -1</clus>
<clus scale="  153.508">  2  7  1 -1</clus>
<clus scale="  153.508">  2  5  1 -1</clus>
</clustering>
</event>
<event>
 9    1  0.1713970E-005  0.1456779E+03  0.7546771E-02  0.1206314E+00
         -1   -1    0    0    0  501 -0.00000000000E+00  0.00000000000E+00  0.98996756374E+02  0.98996756374E+02  0.00000000000E+00 0.  1.
          1   -1    0    0  502    0  0.00000000000E+00 -0.00000000000E+00 -0.28156360251E+03  0.28156360251E+03  0.00000000000E+00 0. -1.
         23    2    1    2    0    0 -0.37479522651E+02  0.95486764950E+02 -0.76366602624E+02  0.15731712356E+03  0.91620862629E+02 0.  0.
         23    2    1    2    0    0  0.51361000318E+02 -0.11164819200E+03 -0.12344641498E+03  0.19583306245E+03  0.89489104625E+02 0.  0.
        -11    1    4    4    0    0  0.44995909626E+02 -0.63839765754E+01 -0.26629043776E+02  0.52673456431E+02  0.00000000000E+00 0.  1.
         11    1    4    4    0    0  0.63650906928E+01 -0.10526421543E+03 -0.96817371207E+02  0.14315960602E+03  0.00000000000E+00 0. -1.
        -13    1    3    3    0    0 -0.10205434810E+02  0.26177038826E+02  0.20749409965E+02  0.34927443011E+02  0.00000000000E+00 0.  1.
         13    1    3    3    0    0 -0.27274087841E+02  0.69309726124E+02 -0.97116012588E+02  0.12238968055E+03  0.00000000000E+00 0. -1.
         21    1    1    2  502  501 -0.13881477668E+02  0.16161427053E+02  0.17246171471E+02  0.27410172875E+02  0.00000000000E+00 0.  1.
<scales pt_clust_5="13000.00000" pt_clust_6="13000.00000" pt_clust_7="13000.00000" pt_clust_8="13000.00000" pt_clust_9="21.30463"></scales>
<clustering>
<clus scale="   21.305">  1  9  2 -1</clus>
<clus scale="   89.489">  5  6 -1 -1</clus>
<clus scale="   91.621">  7  8 -1 -1</clus>
<clus scale="  144.347">  2  5  1 -1</clus>
<clus scale="  144.347">  2  5  1 -1</clus>
</clustering>
</event>
<event>
 9    1  0.1713970E-005  0.9886394E+02  0.7546771E-02  0.1282821E+00
          1   -1    0    0  502    0  0.00000000000E+00  0.00000000000E+00  0.17670401912E+03  0.17670401912E+03  0.00000000000E+00 0. -1.
         -1   -1    0    0    0  501 -0.00000000000E+00 -0.00000000000E+00 -0.10837976762E+03  0.10837976762E+03  0.00000000000E+00 0.  1.
         23    2    1    2    0    0  0.21736638378E+02 -0.12453985654E+02  0.18761909555E+02  0.96700031169E+02  0.91494828112E+02 0.  0.
         23    2    1    2    0    0 -0.14080628288E+02  0.46105525894E+02  0.88783120522E+02  0.13614095585E+03  0.91257513435E+02 0.  0.
        -11    1    4    4    0    0  0.28896692005E+02  0.20994675629E+02  0.77160183970E+02  0.85026402981E+02  0.00000000000E+00 0. -1.
         11    1    4    4    0    0 -0.42977320292E+02  0.25110850266E+02  0.11622936552E+02  0.51114552866E+02  0.00000000000E+00 0.  1.
        -11    1    3    3    0    0  0.24953130294E+02 -0.50394475171E+02  0.60545744987E+01  0.56558993199E+02  0.00000000000E+00 0. -1.
         11    1    3    3    0    0 -0.32164919165E+01  0.37940489518E+02  0.12707335056E+02  0.40141037970E+02  0.00000000000E+00 0.  1.
         21    1    1    2  502  501 -0.76560100904E+01 -0.33651540241E+02 -0.39220778581E+02  0.52242799729E+02  0.00000000000E+00 0. -1.
<scales pt_clust_5="13000.00000" pt_clust_6="13000.00000" pt_clust_7="13000.00000" pt_clust_8="13000.00000" pt_clust_9="34.51146"></scales>
<clustering>
<clus scale="   34.511">  2  9  1 -1</clus>
<clus scale="   91.258">  5  6 -1 -1</clus>
<clus scale="   91.495">  7  8 -1 -1</clus>
<clus scale="   98.644">  1  5  2 -1</clus>
<clus scale="   98.644">  1  5  2 -1</clus>
</clustering>
</event>
<event>
 9    1  0.1713970E-005  0.3898441E+03  0.7546771E-02  0.1047377E+00
         -1   -1    0    0    0  501 -0.00000000000E+00  0.00000000000E+00  0.42266598997E+03  0.42266598997E+03  0.00000000000E+00 0.  1.
          1   -1    0    0  502    0  0.00000000000E+00 -0.00000000000E+00 -0.50042984385E+03  0.50042984385E+03  0.00000000000E+00 0. -1.
         23    2    1    2    0    0 -0.86747058314E+02 -0.34131068017E+03  0.97555636024E+02  0.37630653195E+03  0.89841367675E+02 0.  0.
         23    2    1    2    0    0  0.87578572786E+02  0.38217311143E+03 -0.24122527275E+03  0.46923930563E+03  0.90937342274E+02 0.  0.
        -11    1    4    4    0    0  0.39930656809E+02  0.27080229813E+03 -0.20752367325E+03  0.34350315425E+03  0.00000000000E+00 0. -1.
         11    1    4    4    0    0  0.47647915977E+02  0.11137081330E+03 -0.33701599499E+02  0.12573615137E+03  0.00000000000E+00 0.  1.
        -13    1    3    3    0    0 -0.65822874996E+02 -0.32322304508E+03  0.69877000909E+02  0.33717737616E+03  0.00000000000E+00 0.  1.
         13    1    3    3    0    0 -0.20924183319E+02 -0.18087635094E+02  0.27678635115E+02  0.39129155788E+02  0.00000000000E+00 0. -1.
         21    1    1    2  502  501 -0.83151447188E+00 -0.40862431263E+02  0.65905782840E+02  0.77549996240E+02  0.00000000000E+00 0. -1.
<scales pt_clust_5="13000.00000" pt_clust_6="13000.00000" pt_clust_7="13000.00000" pt_clust_8="13000.00000" pt_clust_9="40.87089"></scales>
<clustering>
<clus scale="   40.871">  1  9  2 -1</clus>
<clus scale="   89.841">  7  8 -1 -1</clus>
<clus scale="   90.937">  5  6 -1 -1</clus>
<clus scale="  389.590">  1  7  2 -1</clus>
<clus scale="  389.844">  2  5  1 -1</clus>
</clustering>
</event>
<event>
 9    1  0.1713970E-005  0.1154325E+03  0.7546771E-02  0.1255273E+00
         -2   -1    0    0    0  501 -0.00000000000E+00  0.00000000000E+00  0.57059186382E+02  0.57059186382E+02  0.00000000000E+00 0.  1.
          2   -1    0    0  502    0  0.00000000000E+00 -0.00000000000E+00 -0.31461038648E+03  0.31461038648E+03  0.00000000000E+00 0. -1.
         23    2    1    2    0    0  0.64491634558E+02  0.13453671556E+02 -0.11473502809E+03  0.16557334604E+03  0.99550158424E+02 0.  0.
         23    2    1    2    0    0 -0.37783665194E+02 -0.44666922813E+02 -0.11649028006E+03  0.15730447272E+03  0.88045286304E+02 0.  0.
        -13    1    3    3    0    0  0.90177566553E+02  0.97499776967E+01 -0.73012606638E+02  0.11643837985E+03  0.00000000000E+00 0.  1.
         13    1    3    3    0    0 -0.25685931995E+02  0.37036938593E+01 -0.41722421448E+02  0.49134966186E+02  0.00000000000E+00 0. -1.
        -13    1    4    4    0    0  0.28239696234E+02 -0.12156974380E+02 -0.23396638765E+02  0.38635154651E+02  0.00000000000E+00 0.  1.
         13    1    4    4    0    0 -0.66023361428E+02 -0.32509948433E+02 -0.93093641295E+02  0.11866931807E+03  0.00000000000E+00 0. -1.
         21    1    1    2  502  501 -0.26707969364E+02  0.31213251257E+02 -0.26325891957E+02  0.48791754107E+02  0.00000000000E+00 0. -1.
<scales pt_clust_5="13000.00000" pt_clust_6="13000.00000" pt_clust_7="13000.00000" pt_clust_8="13000.00000" pt_clust_9="41.08020"></scales>
<clustering>
<clus scale="   41.080">  1  9  2 -1</clus>
<clus scale="   88.045">  7  8 -1 -1</clus>
<clus scale="   99.550">  5  6 -1 -1</clus>
<clus scale="  105.671">  2  7  1 -1</clus>
<clus scale="  105.671">  2  5  1 -1</clus>
</clustering>
</event>
<event>
 9    1  0.1713970E-005  0.1038970E+03  0.7546771E-02  0.1273009E+00
          1   -1    0    0  502    0  0.00000000000E+00  0.00000000000E+00  0.36805926432E+02  0.36805926432E+02  0.00000000000E+00 0. -1.
         -1   -1    0    0    0  501 -0.00000000000E+00 -0.00000000000E+00 -0.46037417206E+03  0.46037417206E+03  0.00000000000E+00 0.  1.
         23    2    1    2    0    0  0.52200054445E+02  0.67514673466E+01 -0.18607859576E+03  0.21409492154E+03  0.91874717063E+02 0.  0.
         23    2    1    2    0    0 -0.36885406420E+02 -0.21225086752E+02 -0.97714457228E+02  0.14173055700E+03  0.93425896422E+02 0.  0.
        -11    1    3    3    0    0  0.70027279649E+02 -0.15515121999E+02 -0.97523602150E+02  0.12105945598E+03  0.00000000000E+00 0.  1.
         11    1    3    3    0    0 -0.17827225204E+02  0.22266589346E+02 -0.88554993609E+02  0.93035465564E+02  0.00000000000E+00 0. -1.
        -13    1    4    4    0    0 -0.27467930812E+02 -0.99098865539E+00  0.11838823946E+02  0.29927028486E+02  0.00000000000E+00 0. -1.
         13    1    4    4    0    0 -0.94174756078E+01 -0.20234098097E+02 -0.10955328117E+03  0.11180352852E+03  0.00000000000E+00 0.  1.
         21    1    1    2  502  501 -0.15314648025E+02  0.14473619406E+02 -0.13977519264E+03  0.14135461994E+03  0.00000000000E+00 0.  1.
<scales pt_clust_5="13000.00000" pt_clust_6="13000.00000" pt_clust_7="13000.00000" pt_clust_8="13000.00000" pt_clust_9="21.07188"></scales>
<clustering>
<clus scale="   21.072">  2  9  1 -1</clus>
<clus scale="   91.875">  5  6 -1 -1</clus>
<clus scale="   93.426">  7  8 -1 -1</clus>
<clus scale="  102.504">  2  5  1 -1</clus>
<clus scale="  103.897">  1  5  2 -1</clus>
</clustering>
</event>
<event>
 9    1  0.1713970E-005  0.9366373E+02  0.7546771E-02  0.1294612E+00
          2   -1    0    0  502    0  0.00000000000E+00  0.00000000000E+00  0.33105573486E+02  0.33105573486E+02  0.00000000000E+00 0. -1.
         -2   -1    0    0    0  501 -0.00000000000E+00 -0.00000000000E+00 -0.41432977210E+03  0.41432977210E+03  0.00000000000E+00 0.  1.
         23    2    1    2    0    0 -0.31072978245E+02  0.24323929758E+01 -0.23740032790E+03  0.25651152245E+03  0.92020644136E+02 0.  0.
         23    2    1    2    0    0  0.27840020167E+01 -0.86625940012E+01 -0.88614971854E+02  0.12857717853E+03  0.92718317501E+02 0.  0.
        -11    1    4    4    0    0  0.27576776845E+00  0.22975077499E+02 -0.93664067656E+02  0.96441110548E+02  0.00000000000E+00 0.  1.
         11    1    4    4    0    0  0.25082342482E+01 -0.31637671500E+02  0.50490958019E+01  0.32136067983E+02  0.00000000000E+00 0. -1.
        -13    1    3    3    0    0  0.18923968314E+02  0.30567841488E+02 -0.12836374965E+03  0.13330326978E+03  0.00000000000E+00 0.  1.
         13    1    3    3    0    0 -0.49996946559E+02 -0.28135448512E+02 -0.10903657826E+03  0.12320825267E+03  0.00000000000E+00 0. -1.
         21    1    1    2  502  501  0.28288976228E+02  0.62302010254E+01 -0.55208898852E+02  0.62346644604E+02  0.00000000000E+00 0.  1.
<scales pt_clust_5="13000.00000" pt_clust_6="13000.00000" pt_clust_7="13000.00000" pt_clust_8="13000.00000" pt_clust_9="28.96690"></scales>
<clustering>
<clus scale="   28.967">  2  9  1 -1</clus>
<clus scale="   92.021">  7  8 -1 -1</clus>
<clus scale="   92.718">  5  6 -1 -1</clus>
<clus scale="   92.973">  2  7  1 -1</clus>
<clus scale="   93.664">  1  5  2 -1</clus>
</clustering>
</event>
<event>
 9    1  0.1713970E-005  0.1271156E+03  0.7546771E-02  0.1241359E+00
         -1   -1    0    0    0  501 -0.00000000000E+00  0.00000000000E+00  0.97943308824E+02  0.97943308824E+02  0.00000000000E+00 0.  1.
          1   -1    0    0  502    0  0.00000000000E+00 -0.00000000000E+00 -0.33918871976E+03  0.33918871976E+03  0.00000000000E+00 0. -1.
         23    2    1    2    0    0  0.45319868631E+02 -0.25183146999E+02 -0.38160664805E+02  0.13037561387E+03  0.11337320216E+03 0.  0.
         23    2    1    2    0    0 -0.33055742003E+02  0.50138310513E+02 -0.23893152859E+03  0.26138945757E+03  0.87347815712E+02 0.  0.
        -11    1    4    4    0    0  0.21469898795E+02 -0.22134594693E+01 -0.18737552896E+02  0.28582369489E+02  0.00000000000E+00 0.  1.
         11    1    4    4    0    0 -0.54525640799E+02  0.52351769983E+02 -0.22019397570E+03  0.23280708808E+03  0.00000000000E+00 0. -1.
        -11    1    3    3    0    0 -0.63941358544E+01  0.31695653161E+02 -0.42474127136E+02  0.53381184688E+02  0.00000000000E+00 0.  1.
         11    1    3    3    0    0  0.51714004485E+02 -0.56878800160E+02  0.43134623311E+01  0.76994429181E+02  0.00000000000E+00 0. -1.
         21    1    1    2  502  501 -0.12264126627E+02 -0.24955163515E+02  0.35846782464E+02  0.45366957149E+02  0.00000000000E+00 0. -1.
<scales pt_clust_5="13000.00000" pt_clust_6="13000.00000" pt_clust_7="13000.00000" pt_clust_8="13000.00000" pt_clust_9="27.80592"></scales>
<clustering>
<clus scale="   27.806">  1  9  2 -1</clus>
<clus scale="   87.348">  5  6 -1 -1</clus>
<clus scale="  104.568">  2  5  1 -1</clus>
<clus scale="  113.373">  7  8 -1 -1</clus>
<clus scale="  104.568">  2  5  1 -1</clus>
</clustering>
</event>
<event>
 9    1  0.1713970E-005  0.1031418E+03  0.7546771E-02  0.1273928E+00
          1   -1    0    0  502    0  0.00000000000E+00  0.00000000000E+00  0.15897485310E+03  0.15897485310E+03  0.00000000000E+00 0. -1.
         -1   -1    0    0    0  501 -0.00000000000E+00 -0.00000000000E+00 -0.99731061111E+02  0.99731061111E+02  0.00000000000E+00 0.  1.
         23    2    1    2    0    0 -0.54489655790E+02 -0.20923517078E+02  0.18646979725E+02  0.11026519871E+03  0.91672177013E+02 0.  0.
         23    2    1    2    0    0  0.26286807208E+02  0.33955116439E+02  0.54064089379E+02  0.11457936877E+03  0.91441565064E+02 0.  0.
        -11    1    4    4    0    0 -0.26807177807E+02  0.39296149910E+02  0.23051871393E+02  0.52860201990E+02  0.00000000000E+00 0.  1.
         11    1    4    4    0    0  0.53093985015E+02 -0.53410334713E+01  0.31012217985E+02  0.61719166777E+02  0.00000000000E+00 0. -1.
        -13    1    3    3    0    0 -0.21445756658E+02 -0.44452121284E+02 -0.20914100220E+02  0.53603275584E+02  0.00000000000E+00 0.  1.
         13    1    3    3    0    0 -0.33043899132E+02  0.23528604206E+02  0.39561079945E+02  0.56661923125E+02  0.00000000000E+00 0. -1.
         21    1    1    2  502  501  0.28202848583E+02 -0.13031599361E+02 -0.13467277112E+02  0.33861346738E+02  0.00000000000E+00 0. -1.
<scales pt_clust_5="13000.00000" pt_clust_6="13000.00000" pt_clust_7="13000.00000" pt_clust_8="13000.00000" pt_clust_9="31.06804"></scales>
<clustering>
<clus scale="   31.068">  2  9  1 -1</clus>
<clus scale="   91.442">  5  6 -1 -1</clus>
<clus scale="   91.672">  7  8 -1 -1</clus>
<clus scale="  102.937">  1  5  2 -1</clus>
<clus scale="  102.937">  1  5  2 -1</clus>
</clustering>
</event>
<event>
 9    1  0.1713970E-005  0.1222911E+03  0.7546771E-02  0.1239837E+00
         -1   -1    0    0    0  501 -0.00000000000E+00  0.00000000000E+00  0.23862849408E+02  0.23862849408E+02  0.00000000000E+00 0.  1.
          1   -1    0    0  502    0  0.00000000000E+00 -0.00000000000E+00 -0.96633332151E+03  0.96633332151E+03  0.00000000000E+00 0. -1.
         23    2    1    2    0    0  0.15277959036E+02  0.91860657920E+02 -0.31265718130E+03  0.33856906073E+03  0.90568754897E+02 0.  0.
         23    2    1    2    0    0 -0.35164076695E+02 -0.67246167606E+02 -0.58319778415E+03  0.59528586180E+03  0.92125145713E+02 0.  0.
        -11    1    3    3    0    0 -0.15586525387E+02  0.96309641938E+02 -0.25486789459E+03  0.27290315241E+03  0.00000000000E+00 0.  1.
         11    1    3    3    0    0  0.30864484424E+02 -0.44489840183E+01 -0.57789286710E+02  0.65665908324E+02  0.00000000000E+00 0. -1.
        -13    1    4    4    0    0  0.19831627125E+02  0.11771095221E+02 -0.10833500188E+03  0.11076246995E+03  0.00000000000E+00 0.  1.
         13    1    4    4    0    0 -0.54995703820E+02 -0.79017262827E+02 -0.47486278227E+03  0.48452339185E+03  0.00000000000E+00 0. -1.
         21    1    1    2  502  501  0.19886117658E+02 -0.24614490314E+02 -0.46615506648E+02  0.56341248379E+02  0.00000000000E+00 0. -1.
<scales pt_clust_5="13000.00000" pt_clust_6="13000.00000" pt_clust_7="13000.00000" pt_clust_8="13000.00000" pt_clust_9="31.64381"></scales>
<clustering>
<clus scale="   31.644">  1  9  2 -1</clus>
<clus scale="   90.569">  5  6 -1 -1</clus>
<clus scale="   92.125">  7  8 -1 -1</clus>
<clus scale="  121.123">  1  5  2 -1</clus>
<clus scale="  122.291">  2  5  1 -1</clus>
</clustering>
</event>
<event>
 9    1  0.1713970E-005  0.2240754E+03  0.7546771E-02  0.1130951E+00
          3   -1    0    0  502    0  0.00000000000E+00  0.00000000000E+00  0.31413353914E+03  0.31413353914E+03  0.00000000000E+00 0. -1.
         -3   -1    0    0    0  501 -0.00000000000E+00 -0.00000000000E+00 -0.44090001605E+03  0.44090001605E+03  0.00000000000E+00 0.  1.
         23    2    1    2    0    0 -0.17234458614E+02  0.21665476229E+03 -0.12482035781E+03  0.26594670443E+03  0.88945012694E+02 0.  0.
         23    2    1    2    0    0 -0.26798862698E+02 -0.20129200233E+03  0.18955998113E+03  0.29198399892E+03  0.89916738899E+02 0.  0.
        -13    1    4    4    0    0 -0.13424808390E+01 -0.80826314798E+02  0.13490920888E+03  0.15727425110E+03  0.00000000000E+00 0. -1.
         13    1    4    4    0    0 -0.25456381859E+02 -0.12046568753E+03  0.54650772254E+02  0.13470974782E+03  0.00000000000E+00 0.  1.
        -13    1    3    3    0    0 -0.28446850265E+02  0.13606176446E+03 -0.32245620872E+02  0.14269480406E+03  0.00000000000E+00 0.  1.
         13    1    3    3    0    0  0.11212391651E+02  0.80592997828E+02 -0.92574736939E+02  0.12325190037E+03  0.00000000000E+00 0. -1.
         21    1    1    2  502  501  0.44033321312E+02 -0.15362759964E+02 -0.19150610023E+03  0.19710285185E+03  0.00000000000E+00 0.  1.
<scales pt_clust_5="13000.00000" pt_clust_6="13000.00000" pt_clust_7="13000.00000" pt_clust_8="13000.00000" pt_clust_9="46.63634"></scales>
<clustering>
<clus scale="   46.636">  2  9  1 -1</clus>
<clus scale="   88.945">  7  8 -1 -1</clus>
<clus scale="   89.917">  5  6 -1 -1</clus>
<clus scale="  223.687">  2  7  1 -1</clus>
<clus scale="  224.075">  1  5  2 -1</clus>
</clustering>
</event>
<event>
 9    1  0.1713970E-005  0.9695020E+02  0.7546771E-02  0.1287661E+00
         -1   -1    0    0    0  501 -0.00000000000E+00  0.00000000000E+00  0.58207842641E+02  0.58207842641E+02  0.00000000000E+00 0.  1.
          1   -1    0    0  502    0  0.00000000000E+00 -0.00000000000E+00 -0.27256968869E+03  0.27256968869E+03  0.00000000000E+00 0. -1.
         23    2    1    2    0    0  0.19366676125E+02  0.34679963345E+02 -0.32134440904E+02  0.10522724790E+03  0.91991213747E+02 0.  0.
         23    2    1    2    0    0 -0.25015953658E+02  0.38461015448E+01 -0.12542115664E+03  0.15667995686E+03  0.90429817619E+02 0.  0.
        -11    1    3    3    0    0  0.30185493591E+02  0.60798484791E+02 -0.85596814745E+01  0.68417014866E+02  0.00000000000E+00 0.  1.
         11    1    3    3    0    0 -0.10818817467E+02 -0.26118521446E+02 -0.23574759429E+02  0.36810233034E+02  0.00000000000E+00 0. -1.
        -11    1    4    4    0    0  0.20915837508E+02  0.32978839829E+02 -0.44867037441E+02  0.59482158534E+02  0.00000000000E+00 0.  1.
         11    1    4    4    0    0 -0.45931791167E+02 -0.29132738284E+02 -0.80554119201E+02  0.97197798329E+02  0.00000000000E+00 0. -1.
         21    1    1    2  502  501  0.56492775334E+01 -0.38526064889E+02 -0.56806248499E+02  0.68870326564E+02  0.00000000000E+00 0. -1.
<scales pt_clust_5="13000.00000" pt_clust_6="13000.00000" pt_clust_7="13000.00000" pt_clust_8="13000.00000" pt_clust_9="38.93805"></scales>
<clustering>
<clus scale="   38.938">  2  9  1 -1</clus>
<clus scale="   90.430">  7  8 -1 -1</clus>
<clus scale="   91.991">  5  6 -1 -1</clus>
<clus scale="   95.470">  2  7  1 -1</clus>
<clus scale="   38.938">  2  5  1 -1</clus>
</clustering>
</event>
<event>
 9    1  0.1713970E-005  0.3194578E+03  0.7546771E-02  0.1076287E+00
          2   -1    0    0  502    0  0.00000000000E+00  0.00000000000E+00  0.19680719128E+04  0.19680719128E+04  0.00000000000E+00 0. -1.
         -2   -1    0    0    0  501 -0.00000000000E+00 -0.00000000000E+00 -0.79668208456E+02  0.79668208456E+02  0.00000000000E+00 0.  1.
         23    2    1    2    0    0 -0.21579334167E+03  0.20333437090E+03  0.53622045730E+03  0.62140563103E+03  0.10344538050E+03 0.  0.
         23    2    1    2    0    0  0.29241062270E+03 -0.11303475337E+03  0.11034112319E+04  0.11508136304E+04  0.92600418409E+02 0.  0.
        -11    1    3    3    0    0 -0.18381932420E+03  0.19856566292E+03  0.51769656989E+03  0.58414690354E+03  0.00000000000E+00 0.  1.
         11    1    3    3    0    0 -0.31974017472E+02  0.47687079876E+01  0.18523887401E+02  0.37258727483E+02  0.00000000000E+00 0. -1.
        -13    1    4    4    0    0  0.15654461517E+03 -0.30392903553E+02  0.68199305541E+03  0.70038880114E+03  0.00000000000E+00 0. -1.
         13    1    4    4    0    0  0.13586600753E+03 -0.82641849813E+02  0.42141817653E+03  0.45042482930E+03  0.00000000000E+00 0.  1.
         21    1    1    2  502  501 -0.76617281030E+02 -0.90299617537E+02  0.24877201510E+03  0.27552085979E+03  0.00000000000E+00 0.  1.
<scales pt_clust_5="13000.00000" pt_clust_6="13000.00000" pt_clust_7="13000.00000" pt_clust_8="13000.00000" pt_clust_9="118.42394"></scales>
<clustering>
<clus scale="   92.600">  7  8 -1 -1</clus>
<clus scale="  103.445">  5  6 -1 -1</clus>
<clus scale="  118.424">  2  9  1 -1</clus>
<clus scale="  316.113">  1  7  2 -1</clus>
<clus scale="  316.113">  1  5  2 -1</clus>
</clustering>
</event>
<event>
 9    1  0.1713970E-005  0.1210829E+03  0.7546771E-02  0.1243579E+00
          1   -1    0    0  502    0  0.00000000000E+00  0.00000000000E+00  0.39496250282E+02  0.39496250282E+02  0.00000000000E+00 0. -1.
         -1   -1    0    0    0  501 -0.00000000000E+00 -0.00000000000E+00 -0.53074508770E+03  0.53074508770E+03  0.00000000000E+00 0.  1.
         23    2    1    2    0    0  0.55264543859E+02  0.76132157939E+02 -0.26209346027E+03  0.29301121862E+03  0.91171909269E+02 0.  0.
         23    2    1    2    0    0 -0.39030918287E+02 -0.61441243817E+02 -0.11080516159E+03  0.15687179153E+03  0.83860217729E+02 0.  0.
        -11    1    3    3    0    0  0.42415143960E+01  0.77415050753E+02 -0.12951534267E+03  0.15094801924E+03  0.00000000000E+00 0. -1.
         11    1    3    3    0    0  0.51023029463E+02 -0.12828928133E+01 -0.13257811760E+03  0.14206319938E+03  0.00000000000E+00 0.  1.
        -11    1    4    4    0    0 -0.56263580247E+02 -0.23125405642E+02 -0.93253921848E+02  0.11134032867E+03  0.00000000000E+00 0. -1.
         11    1    4    4    0    0  0.17232661960E+02 -0.38315838175E+02 -0.17551239740E+02  0.45531462855E+02  0.00000000000E+00 0.  1.
         21    1    1    2  502  501 -0.16233625573E+02 -0.14690914123E+02 -0.11835021556E+03  0.12035832784E+03  0.00000000000E+00 0.  1.
<scales pt_clust_5="13000.00000" pt_clust_6="13000.00000" pt_clust_7="13000.00000" pt_clust_8="13000.00000" pt_clust_9="21.89414"></scales>
<clustering>
<clus scale="   21.894">  2  9  1 -1</clus>
<clus scale="   83.860">  7  8 -1 -1</clus>
<clus scale="   91.172">  5  6 -1 -1</clus>
<clus scale="  115.678">  1  7  2 -1</clus>
<clus scale="  115.678">  1  5  2 -1</clus>
</clustering>
</event>
<event>
 9    1  0.1713970E-005  0.1005431E+03  0.7546771E-02  0.1279248E+00
          1   -1    0    0  502    0  0.00000000000E+00  0.00000000000E+00  0.12681977274E+03  0.12681977274E+03  0.00000000000E+00 0. -1.
         -1   -1    0    0    0  501 -0.00000000000E+00 -0.00000000000E+00 -0.14266861632E+03  0.14266861632E+03  0.00000000000E+00 0.  1.
         23    2    1    2    0    0  0.79799154064E+01 -0.31220857939E+02 -0.54384223010E+02  0.10922825395E+03  0.89077195328E+02 0.  0.
         23    2    1    2    0    0 -0.24429675332E+02  0.45069220125E+02  0.68300193849E+02  0.12354071362E+03  0.89271203664E+02 0.  0.
        -11    1    4    4    0    0 -0.38336719101E+02 -0.83966031132E+01  0.50628189210E+01  0.39570684991E+02  0.00000000000E+00 0.  1.
         11    1    4    4    0    0  0.13907043769E+02  0.53465823238E+02  0.63237374928E+02  0.83970028634E+02  0.00000000000E+00 0. -1.
        -13    1    3    3    0    0  0.36449568522E+02 -0.43209016799E+02 -0.54232084905E+02  0.78337150901E+02  0.00000000000E+00 0.  1.
         13    1    3    3    0    0 -0.28469653115E+02  0.11988158860E+02 -0.15213810490E+00  0.30891103045E+02  0.00000000000E+00 0. -1.
         21    1    1    2  502  501  0.16449759925E+02 -0.13848362186E+02 -0.29764814420E+02  0.36719421487E+02  0.00000000000E+00 0.  1.
<scales pt_clust_5="13000.00000" pt_clust_6="13000.00000" pt_clust_7="13000.00000" pt_clust_8="13000.00000" pt_clust_9="21.50283"></scales>
<clustering>
<clus scale="   21.503">  2  9  1 -1</clus>
<clus scale="   89.077">  7  8 -1 -1</clus>
<clus scale="   89.271">  5  6 -1 -1</clus>
<clus scale="  100.371">  2  7  1 -1</clus>
<clus scale="  100.543">  1  5  2 -1</clus>
</clustering>
</event>
<event>
 9    1  0.1713970E-005  0.1103993E+03  0.7546771E-02  0.1260206E+00
         -1   -1    0    0    0  501 -0.00000000000E+00  0.00000000000E+00  0.63826696645E+02  0.63826696645E+02  0.00000000000E+00 0.  1.
          1   -1    0    0  502    0  0.00000000000E+00 -0.00000000000E+00 -0.33222675222E+03  0.33222675222E+03  0.00000000000E+00 0. -1.
         23    2    1    2    0    0  0.24312669511E+02  0.64512687009E+02 -0.59718686128E+02  0.12873163377E+03  0.90843378273E+02 0.  0.
         23    2    1    2    0    0 -0.59490991586E+02 -0.22091028133E+02 -0.13143542159E+03  0.17243215314E+03  0.91817132304E+02 0.  0.
        -11    1    4    4    0    0 -0.72785372878E+02  0.10390694053E+02 -0.10635635918E+03  0.12929559995E+03  0.00000000000E+00 0.  1.
         11    1    4    4    0    0  0.13294381292E+02 -0.32481722185E+02 -0.25079062413E+02  0.43136553195E+02  0.00000000000E+00 0. -1.
        -13    1    3    3    0    0 -0.26796584526E+02  0.47496692960E+02 -0.10034444023E+02  0.55449822824E+02  0.00000000000E+00 0.  1.
         13    1    3    3    0    0  0.51109254037E+02  0.17015994049E+02 -0.49684242105E+02  0.73281810944E+02  0.00000000000E+00 0. -1.
         21    1    1    2  502  501  0.35178322075E+02 -0.42421658876E+02 -0.77245947850E+02  0.94889661951E+02  0.00000000000E+00 0. -1.
<scales pt_clust_5="13000.00000" pt_clust_6="13000.00000" pt_clust_7="13000.00000" pt_clust_8="13000.00000" pt_clust_9="55.10999"></scales>
<clustering>
<clus scale="   55.110">  2  9  1 -1</clus>
<clus scale="   90.843">  7  8 -1 -1</clus>
<clus scale="   91.817">  5  6 -1 -1</clus>
<clus scale="  109.591">  1  7  2 -1</clus>
<clus scale="   55.110">  2  5  1 -1</clus>
</clustering>
</event>
<event>
 9    1  0.1713970E-005  0.1130383E+03  0.7546771E-02  0.1258997E+00
          1   -1    0    0  502    0  0.00000000000E+00  0.00000000000E+00  0.59230148187E+03  0.59230148187E+03  0.00000000000E+00 0. -1.
         -1   -1    0    0    0  501 -0.00000000000E+00 -0.00000000000E+00 -0.32823525795E+02  0.32823525795E+02  0.00000000000E+00 0.  1.
         23    2    1    2    0    0  0.41095995937E+02  0.24900364678E+02  0.15964444412E+03  0.18908603347E+03  0.89209138944E+02 0.  0.
         23    2    1    2    0    0 -0.58375318710E+02 -0.10714277915E+02  0.39707040557E+03  0.41351221655E+03  0.99020061989E+02 0.  0.
        -11    1    3    3    0    0 -0.25973117317E+02  0.19627118495E+02  0.68080000076E+02  0.75463322309E+02  0.00000000000E+00 0. -1.
         11    1    3    3    0    0  0.67069113254E+02  0.52732461822E+01  0.91564444042E+02  0.11362271116E+03  0.00000000000E+00 0.  1.
        -13    1    4    4    0    0 -0.78116281784E+02  0.22953505370E+01  0.36716659025E+03  0.37539143186E+03  0.00000000000E+00 0. -1.
         13    1    4    4    0    0  0.19740963074E+02 -0.13009628452E+02  0.29903815314E+02  0.38120784696E+02  0.00000000000E+00 0.  1.
         21    1    1    2  502  501  0.17279322773E+02 -0.14186086762E+02  0.27631063914E+01  0.22526757646E+02  0.00000000000E+00 0.  1.
<scales pt_clust_5="13000.00000" pt_clust_6="13000.00000" pt_clust_7="13000.00000" pt_clust_8="13000.00000" pt_clust_9="22.35666"></scales>
<clustering>
<clus scale="   22.357">  2  9  1 -1</clus>
<clus scale="   89.209">  5  6 -1 -1</clus>
<clus scale="   99.020">  7  8 -1 -1</clus>
<clus scale="  104.551">  2  5  1 -1</clus>
<clus scale="  113.038">  1  5  2 -1</clus>
</clustering>
</event>
<event>
 9    1  0.1713970E-005  0.1145821E+03  0.7546771E-02  0.1252695E+00
          1   -1    0    0  502    0  0.00000000000E+00  0.00000000000E+00  0.29337162250E+03  0.29337162250E+03  0.00000000000E+00 0. -1.
         -1   -1    0    0    0  501 -0.00000000000E+00 -0.00000000000E+00 -0.11919119939E+03  0.11919119939E+03  0.00000000000E+00 0.  1.
         23    2    1    2    0    0 -0.81449432815E+02  0.10139227873E+03  0.61753457617E+02  0.17004504216E+03  0.90484377338E+02 0.  0.
         23    2    1    2    0    0  0.43048996515E+02 -0.22189492825E+02  0.11458425514E+03  0.15447047029E+03  0.91575023743E+02 0.  0.
        -13    1    4    4    0    0 -0.25395229230E+02 -0.19120228674E+02  0.19565771938E+02  0.37327205142E+02  0.00000000000E+00 0. -1.
         13    1    4    4    0    0  0.68444225745E+02 -0.30692641514E+01  0.95018483198E+02  0.11714326515E+03  0.00000000000E+00 0.  1.
        -13    1    3    3    0    0  0.19180737328E+02  0.19396285289E+02  0.19510736285E+02  0.33537820410E+02  0.00000000000E+00 0. -1.
         13    1    3    3    0    0 -0.10063017014E+03  0.81995993440E+02  0.42242721332E+02  0.13650722175E+03  0.00000000000E+00 0.  1.
         21    1    1    2  502  501  0.38400436300E+02 -0.79202785903E+02 -0.21572896420E+01  0.88047309451E+02  0.00000000000E+00 0. -1.
<scales pt_clust_5="13000.00000" pt_clust_6="13000.00000" pt_clust_7="13000.00000" pt_clust_8="13000.00000" pt_clust_9="88.02088"></scales>
<clustering>
<clus scale="   88.021">  2  9  1 -1</clus>
<clus scale="   90.484">  7  8 -1 -1</clus>
<clus scale="   91.575">  5  6 -1 -1</clus>
<clus scale="  113.712">  2  7  1 -1</clus>
<clus scale="  114.582">  1  5  2 -1</clus>
</clustering>
</event>
<event>
 9    1  0.1713970E-005  0.1185752E+03  0.7546771E-02  0.1246065E+00
         -1   -1    0    0    0  501 -0.00000000000E+00  0.00000000000E+00  0.24645460484E+03  0.24645460484E+03  0.00000000000E+00 0.  1.
          1   -1    0    0  502    0  0.00000000000E+00 -0.00000000000E+00 -0.32653004425E+03  0.32653004425E+03  0.00000000000E+00 0. -1.
         23    2    1    2    0    0 -0.19577614966E+02  0.66637379487E+02  0.16807526198E+03  0.20286317167E+03  0.89890763589E+02 0.  0.
         23    2    1    2    0    0  0.39611322457E+02 -0.64424744310E+02 -0.29557617483E+03  0.31859070291E+03  0.91734161049E+02 0.  0.
        -11    1    4    4    0    0 -0.28536442395E+01 -0.74718514238E+02 -0.17334121478E+03  0.18878076279E+03  0.00000000000E+00 0.  1.
         11    1    4    4    0    0  0.42464966696E+02  0.10293769928E+02 -0.12223496005E+03  0.12980994012E+03  0.00000000000E+00 0. -1.
        -13    1    3    3    0    0 -0.46318785571E+02  0.67675001310E+02  0.14873318820E+03  0.16984374281E+03  0.00000000000E+00 0.  1.
         13    1    3    3    0    0  0.26741170605E+02 -0.10376218223E+01  0.19342073781E+02  0.33019428865E+02  0.00000000000E+00 0. -1.
         21    1    1    2  502  501 -0.20033707491E+02 -0.22126351771E+01  0.47425473444E+02  0.51530774511E+02  0.00000000000E+00 0.  1.
<scales pt_clust_5="13000.00000" pt_clust_6="13000.00000" pt_clust_7="13000.00000" pt_clust_8="13000.00000" pt_clust_9="20.15553"></scales>
<clustering>
<clus scale="   20.156">  1  9  2 -1</clus>
<clus scale="   89.891">  7  8 -1 -1</clus>
<clus scale="   91.734">  5  6 -1 -1</clus>
<clus scale="  117.155">  1  7  2 -1</clus>
<clus scale="  118.575">  2  5  1 -1</clus>
</clustering>
</event>
<event>
 9    1  0.1713970E-005  0.1107169E+03  0.7546771E-02  0.1263117E+00
         -2   -1    0    0    0  501 -0.00000000000E+00  0.00000000000E+00  0.11971708052E+03  0.11971708052E+03  0.00000000000E+00 0.  1.
          2   -1    0    0  502    0  0.00000000000E+00 -0.00000000000E+00 -0.66068491706E+03  0.66068491706E+03  0.00000000000E+00 0. -1.
         23    2    1    2    0    0 -0.17882521491E+02  0.41756964939E+02  0.83132701144E+02  0.13820801829E+03  0.10063290528E+03 0.  0.
         23    2    1    2    0    0  0.37995019432E+02 -0.51412574218E+02 -0.59563734678E+03  0.60602912619E+03  0.91654670467E+02 0.  0.
        -11    1    4    4    0    0  0.20727184366E+02  0.25279802376E+02 -0.15131257661E+03  0.15480368348E+03  0.00000000000E+00 0.  1.
         11    1    4    4    0    0  0.17267835066E+02 -0.76692376595E+02 -0.44432477018E+03  0.45122544271E+03  0.00000000000E+00 0. -1.
        -13    1    3    3    0    0  0.59783466780E+01  0.40576821182E+02 -0.98701877668E+01  0.42185775479E+02  0.00000000000E+00 0. -1.
         13    1    3    3    0    0 -0.23860868170E+02  0.11801437575E+01  0.93002888911E+02  0.96022242813E+02  0.00000000000E+00 0.  1.
         21    1    1    2  502  501 -0.20112497941E+02  0.96556092792E+01 -0.28463190900E+02  0.36164853106E+02  0.00000000000E+00 0. -1.
<scales pt_clust_5="13000.00000" pt_clust_6="13000.00000" pt_clust_7="13000.00000" pt_clust_8="13000.00000" pt_clust_9="22.31016"></scales>
<clustering>
<clus scale="   22.310">  2  9  1 -1</clus>
<clus scale="   91.655">  5  6 -1 -1</clus>
<clus scale="  100.633">  7  8 -1 -1</clus>
<clus scale="  102.625">  2  5  1 -1</clus>
<clus scale="   22.310">  2  5  1 -1</clus>
</clustering>
</event>
<event>
 9    1  0.1713970E-005  0.1082398E+03  0.7546771E-02  0.1265256E+00
         -1   -1    0    0    0  501 -0.00000000000E+00  0.00000000000E+00  0.23974296821E+03  0.23974296821E+03  0.00000000000E+00 0.  1.
          1   -1    0    0  502    0  0.00000000000E+00 -0.00000000000E+00 -0.80001868929E+02  0.80001868929E+02  0.00000000000E+00 0. -1.
         23    2    1    2    0    0 -0.46176045433E+02 -0.46320409656E+01  0.11408541135E+03  0.15180834215E+03  0.88750260219E+02 0.  0.
         23    2    1    2    0    0  0.76196252796E+02  0.15754122773E+02  0.57724915227E+02  0.13372275797E+03  0.92171301583E+02 0.  0.
        -13    1    3    3    0    0 -0.83854666359E+01 -0.40712800371E+02  0.77759519949E+02  0.88172507662E+02  0.00000000000E+00 0.  1.
         13    1    3    3    0    0 -0.37790578797E+02  0.36080759406E+02  0.36325891397E+02  0.63635834487E+02  0.00000000000E+00 0. -1.
        -13    1    4    4    0    0  0.73560999533E+02 -0.23001795761E+02  0.20118075264E+02  0.79655760701E+02  0.00000000000E+00 0.  1.
         13    1    4    4    0    0  0.26352532622E+01  0.38755918534E+02  0.37606839963E+02  0.54066997264E+02  0.00000000000E+00 0. -1.
         21    1    1    2  502  501 -0.30020207362E+02 -0.11122081808E+02 -0.12069227291E+02  0.34213737025E+02  0.00000000000E+00 0. -1.
<scales pt_clust_5="13000.00000" pt_clust_6="13000.00000" pt_clust_7="13000.00000" pt_clust_8="13000.00000" pt_clust_9="32.01427"></scales>
<clustering>
<clus scale="   32.014">  2  9  1 -1</clus>
<clus scale="   88.750">  5  6 -1 -1</clus>
<clus scale="   92.171">  7  8 -1 -1</clus>
<clus scale="  105.342">  1  5  2 -1</clus>
<clus scale="   32.014">  2  5  1 -1</clus>
</clustering>
</event>
<event>
 9    1  0.1713970E-005  0.1018366E+03  0.7546771E-02  0.1278158E+00
         -1   -1    0    0    0  501 -0.00000000000E+00  0.00000000000E+00  0.79780189229E+02  0.79780189229E+02  0.00000000000E+00 0.  1.
          1   -1    0    0  502    0  0.00000000000E+00 -0.00000000000E+00 -0.22799862637E+03  0.22799862637E+03  0.00000000000E+00 0. -1.
         23    2    1    2    0    0 -0.24005430242E+02 -0.27777173056E+02 -0.21374000502E+02  0.10586049745E+03  0.96962699002E+02 0.  0.
         23    2    1    2    0    0 -0.27869055126E+02  0.35786787004E+02 -0.92596485487E+02  0.13924425409E+03  0.93581380710E+02 0.  0.
        -11    1    4    4    0    0 -0.62099274327E+02  0.20609615257E+02 -0.48806434675E+02  0.81628084497E+02  0.00000000000E+00 0.  1.
         11    1    4    4    0    0  0.34230219200E+02  0.15177171748E+02 -0.43790050812E+02  0.57616169596E+02  0.00000000000E+00 0. -1.
        -13    1    3    3    0    0 -0.36916998655E+01 -0.62806096928E+02 -0.92451453661E+01  0.63590149961E+02  0.00000000000E+00 0.  1.
         13    1    3    3    0    0 -0.20313730377E+02  0.35028923873E+02 -0.12128855136E+02  0.42270347484E+02  0.00000000000E+00 0. -1.
         21    1    1    2  502  501  0.51874485369E+02 -0.80096139485E+01 -0.34247951154E+02  0.62674064063E+02  0.00000000000E+00 0. -1.
<scales pt_clust_5="13000.00000" pt_clust_6="13000.00000" pt_clust_7="13000.00000" pt_clust_8="13000.00000" pt_clust_9="52.48920"></scales>
<clustering>
<clus scale="   52.489">  2  9  1 -1</clus>
<clus scale="   93.581">  5  6 -1 -1</clus>
<clus scale="   96.963">  7  8 -1 -1</clus>
<clus scale="   98.623">  2  5  1 -1</clus>
<clus scale="   52.489">  2  5  1 -1</clus>
</clustering>
</event>
<event>
 9    1  0.1713970E-005  0.9193759E+02  0.7546771E-02  0.1299351E+00
          1   -1    0    0  502    0  0.00000000000E+00  0.00000000000E+00  0.17518073309E+03  0.17518073309E+03  0.00000000000E+00 0. -1.
         -1   -1    0    0    0  501 -0.00000000000E+00 -0.00000000000E+00 -0.14617644932E+03  0.14617644932E+03  0.00000000000E+00 0.  1.
         23    2    1    2    0    0  0.29138519806E+01  0.11889747604E+02  0.44127477799E+02  0.10269114719E+03  0.91915073750E+02 0.  0.
         23    2    1    2    0    0  0.52539935119E+01  0.95823393828E+01  0.79926386252E+02  0.12087959991E+03  0.90023467931E+02 0.  0.
        -13    1    3    3    0    0 -0.20394400244E+02 -0.34661686853E+02  0.24267749177E+02  0.46971137382E+02  0.00000000000E+00 0.  1.
         13    1    3    3    0    0  0.23308252225E+02  0.46551434458E+02  0.19859728622E+02  0.55720009806E+02  0.00000000000E+00 0. -1.
        -13    1    4    4    0    0  0.41980995224E+02 -0.16655142611E+02  0.45531685172E+02  0.64132145528E+02  0.00000000000E+00 0. -1.
         13    1    4    4    0    0 -0.36727001712E+02  0.26237481993E+02  0.34394701079E+02  0.56747454378E+02  0.00000000000E+00 0.  1.
         21    1    1    2  502  501 -0.81678454925E+01 -0.21472086987E+02 -0.95049580284E+02  0.97786435316E+02  0.00000000000E+00 0.  1.
<scales pt_clust_5="13000.00000" pt_clust_6="13000.00000" pt_clust_7="13000.00000" pt_clust_8="13000.00000" pt_clust_9="22.97312"></scales>
<clustering>
<clus scale="   22.973">  2  9  1 -1</clus>
<clus scale="   90.023">  7  8 -1 -1</clus>
<clus scale="   90.046">  1  7  2 -1</clus>
<clus scale="   91.915">  5  6 -1 -1</clus>
<clus scale="   90.046">  1  5  2 -1</clus>
</clustering>
</event>
<event>
 9    1  0.1713970E-005  0.1759189E+03  0.7546771E-02  0.1174094E+00
         -1   -1    0    0    0  501 -0.00000000000E+00  0.00000000000E+00  0.82859952922E+02  0.82859952922E+02  0.00000000000E+00 0.  1.
          1   -1    0    0  502    0  0.00000000000E+00 -0.00000000000E+00 -0.71309295900E+03  0.71309295900E+03  0.00000000000E+00 0. -1.
         23    2    1    2    0    0  0.97770384005E+02 -0.14084192092E+03 -0.23222344592E+03  0.30284133611E+03  0.91595039960E+02 0.  0.
         23    2    1    2    0    0  0.14935059325E+02  0.13337897969E+03 -0.28910093465E+03  0.33620618662E+03  0.10696841256E+03 0.  0.
        -11    1    4    4    0    0 -0.13195325857E+02  0.14030504904E+03 -0.25594076475E+03  0.29217340480E+03  0.00000000000E+00 0. -1.
         11    1    4    4    0    0  0.28130385182E+02 -0.69260693520E+01 -0.33160169899E+02  0.44032781821E+02  0.00000000000E+00 0.  1.
        -13    1    3    3    0    0  0.60499141769E+02 -0.74016332245E+02 -0.19624026676E+03  0.21828606435E+03  0.00000000000E+00 0. -1.
         13    1    3    3    0    0  0.37271242236E+02 -0.66825588671E+02 -0.35983179164E+02  0.84555271756E+02  0.00000000000E+00 0.  1.
         21    1    1    2  502  501 -0.11270544333E+03  0.74629412285E+01 -0.10890862551E+03  0.15690538920E+03  0.00000000000E+00 0. -1.
<scales pt_clust_5="13000.00000" pt_clust_6="13000.00000" pt_clust_7="13000.00000" pt_clust_8="13000.00000" pt_clust_9="112.95226"></scales>
<clustering>
<clus scale="   91.595">  7  8 -1 -1</clus>
<clus scale="  106.968">  5  6 -1 -1</clus>
<clus scale="  112.952">  1  9  2 -1</clus>
<clus scale="  167.018">  1  7  2 -1</clus>
<clus scale="  175.919">  2  5  1 -1</clus>
</clustering>
</event>
<event>
 9    1  0.1713970E-005  0.1448710E+03  0.7546771E-02  0.1207580E+00
          1   -1    0    0  502    0  0.00000000000E+00  0.00000000000E+00  0.69382499657E+03  0.69382499657E+03  0.00000000000E+00 0. -1.
         -1   -1    0    0    0  501 -0.00000000000E+00 -0.00000000000E+00 -0.15624835320E+03  0.15624835320E+03  0.00000000000E+00 0.  1.
         23    2    1    2    0    0 -0.10938031966E+03  0.76358029963E+02 -0.67652115337E+02  0.17554114469E+03  0.91887331554E+02 0.  0.
         23    2    1    2    0    0  0.79404051719E+02 -0.72934773297E+02  0.62310524577E+03  0.63946278656E+03  0.95015911858E+02 0.  0.
        -11    1    3    3    0    0 -0.98080162969E+02  0.33505049966E+02 -0.78377902136E+02  0.12994384281E+03  0.00000000000E+00 0.  1.
         11    1    3    3    0    0 -0.11300156689E+02  0.42852979997E+02  0.10725786800E+02  0.45597301875E+02  0.00000000000E+00 0. -1.
        -13    1    4    4    0    0 -0.17355702034E+02 -0.33465705599E+02  0.20920202364E+03  0.21257154216E+03  0.00000000000E+00 0.  1.
         13    1    4    4    0    0  0.96759753753E+02 -0.39469067698E+02  0.41390322213E+03  0.42689124440E+03  0.00000000000E+00 0. -1.
         21    1    1    2  502  501  0.29976267939E+02 -0.34232566663E+01 -0.17876487057E+02  0.35069418519E+02  0.00000000000E+00 0.  1.
<scales pt_clust_5="13000.00000" pt_clust_6="13000.00000" pt_clust_7="13000.00000" pt_clust_8="13000.00000" pt_clust_9="30.17110"></scales>
<clustering>
<clus scale="   30.171">  2  9  1 -1</clus>
<clus scale="   91.887">  5  6 -1 -1</clus>
<clus scale="   95.016">  7  8 -1 -1</clus>
<clus scale="  142.839">  2  5  1 -1</clus>
<clus scale="  144.871">  1  5  2 -1</clus>
</clustering>
</event>
<event>
 9    1  0.1713970E-005  0.9414705E+02  0.7546771E-02  0.1293433E+00
          2   -1    0    0  502    0  0.00000000000E+00  0.00000000000E+00  0.21847953140E+03  0.21847953140E+03  0.00000000000E+00 0. -1.
         -2   -1    0    0    0  501 -0.00000000000E+00 -0.00000000000E+00 -0.69726346920E+02  0.69726346920E+02  0.00000000000E+00 0.  1.
         23    2    1    2    0    0  0.26498556978E+02  0.32228102741E+02  0.39243115177E+02  0.10815902446E+03  0.91747089079E+02 0.  0.
         23    2    1    2    0    0  0.10596239997E+02 -0.15190532681E+02  0.10286191392E+03  0.13868865363E+03  0.91164339114E+02 0.  0.
        -11    1    3    3    0    0  0.49376459361E+00  0.41942515230E+02  0.60203264854E+02  0.73374733297E+02  0.00000000000E+00 0. -1.
         11    1    3    3    0    0  0.26004792384E+02 -0.97144124892E+01 -0.20960149677E+02  0.34784291159E+02  0.00000000000E+00 0.  1.
        -13    1    4    4    0    0  0.31891300516E+02 -0.34261404184E+02  0.19759282726E+02  0.50806772374E+02  0.00000000000E+00 0. -1.
         13    1    4    4    0    0 -0.21295060518E+02  0.19070871503E+02  0.83102631191E+02  0.87881881257E+02  0.00000000000E+00 0.  1.
         21    1    1    2  502  501 -0.37094796975E+02 -0.17037570060E+02  0.66481553819E+01  0.41358200229E+02  0.00000000000E+00 0.  1.
<scales pt_clust_5="13000.00000" pt_clust_6="13000.00000" pt_clust_7="13000.00000" pt_clust_8="13000.00000" pt_clust_9="40.82037"></scales>
<clustering>
<clus scale="   40.820">  2  9  1 -1</clus>
<clus scale="   91.164">  7  8 -1 -1</clus>
<clus scale="   91.747">  5  6 -1 -1</clus>
<clus scale="   93.579">  1  7  2 -1</clus>
<clus scale="   93.579">  1  5  2 -1</clus>
</clustering>
</event>
<event>
 9    1  0.1713970E-005  0.9679234E+02  0.7546771E-02  0.1291073E+00
         -1   -1    0    0    0  501 -0.00000000000E+00  0.00000000000E+00  0.32739836089E+03  0.32739836089E+03  0.00000000000E+00 0.  1.
          1   -1    0    0  502    0  0.00000000000E+00 -0.00000000000E+00 -0.42172442376E+02  0.42172442376E+02  0.00000000000E+00 0. -1.
         23    2    1    2    0    0 -0.36696486334E+02 -0.15983866251E+02  0.21603182413E+03  0.23460925602E+03  0.82277809177E+02 0.  0.
         23    2    1    2    0    0  0.29251643800E+02 -0.40975442233E+01  0.54784055128E+02  0.10914802447E+03  0.89663537823E+02 0.  0.
        -11    1    3    3    0    0 -0.63020629739E+02 -0.12041037648E+02  0.13860501198E+03  0.15273485426E+03  0.00000000000E+00 0.  1.
         11    1    3    3    0    0  0.26324143404E+02 -0.39428286033E+01  0.77426812152E+02  0.81874401759E+02  0.00000000000E+00 0. -1.
        -11    1    4    4    0    0 -0.32497265773E+02  0.25788886576E+00  0.18463170619E+02  0.37376830506E+02  0.00000000000E+00 0.  1.
         11    1    4    4    0    0  0.61748909574E+02 -0.43554330890E+01  0.36320884510E+02  0.71771193960E+02  0.00000000000E+00 0. -1.
         21    1    1    2  502  501  0.74448425342E+01  0.20081410474E+02  0.14410039254E+02  0.25813522779E+02  0.00000000000E+00 0. -1.
<scales pt_clust_5="13000.00000" pt_clust_6="13000.00000" pt_clust_7="13000.00000" pt_clust_8="13000.00000" pt_clust_9="21.41702"></scales>
<clustering>
<clus scale="   21.417">  2  9  1 -1</clus>
<clus scale="   82.278">  5  6 -1 -1</clus>
<clus scale="   89.664">  7  8 -1 -1</clus>
<clus scale="   89.994">  1  5  2 -1</clus>
<clus scale="   21.417">  2  5  1 -1</clus>
</clustering>
</event>
<event>
 9    1  0.1713970E-005  0.1159971E+03  0.7546771E-02  0.1249901E+00
          2   -1    0    0  502    0  0.00000000000E+00  0.00000000000E+00  0.22956810629E+03  0.22956810629E+03  0.00000000000E+00 0. -1.
         -2   -1    0    0    0  501 -0.00000000000E+00 -0.00000000000E+00 -0.27035687618E+03  0.27035687618E+03  0.00000000000E+00 0.  1.
         23    2    1    2    0    0  0.28115919270E+02 -0.29462761805E+02  0.32488842091E+02  0.10341211024E+03  0.89330736219E+02 0.  0.
         23    2    1    2    0    0 -0.30907357441E+02  0.10111753768E+03  0.12452282401E+03  0.18611512627E+03  0.89178951312E+02 0.  0.
        -11    1    4    4    0    0  0.52089795400E+01  0.26729655183E+02  0.94170036281E+02  0.98028585969E+02  0.00000000000E+00 0.  1.
         11    1    4    4    0    0 -0.36116336981E+02  0.74387882495E+02  0.30352787725E+02  0.88086540297E+02  0.00000000000E+00 0. -1.
        -13    1    3    3    0    0 -0.13256212798E+02 -0.50155609694E+02  0.15705555307E+02  0.54203107190E+02  0.00000000000E+00 0.  1.
         13    1    3    3    0    0  0.41372132068E+02  0.20692847889E+02  0.16783286785E+02  0.49209003047E+02  0.00000000000E+00 0. -1.
         21    1    1    2  502  501  0.27914381710E+01 -0.71654775872E+02 -0.19780043598E+03  0.21039774596E+03  0.00000000000E+00 0.  1.
<scales pt_clust_5="13000.00000" pt_clust_6="13000.00000" pt_clust_7="13000.00000" pt_clust_8="13000.00000" pt_clust_9="71.70913"></scales>
<clustering>
<clus scale="   71.709">  2  9  1 -1</clus>
<clus scale="   89.179">  5  6 -1 -1</clus>
<clus scale="   89.331">  7  8 -1 -1</clus>
<clus scale="  115.880">  1  5  2 -1</clus>
<clus scale="  115.880">  1  5  2 -1</clus>
</clustering>
</event>
<event>
 9    1  0.1713970E-005  0.1066263E+03  0.7546771E-02  0.1269178E+00
         -1   -1    0    0    0  501 -0.00000000000E+00  0.00000000000E+00  0.11743564005E+03  0.11743564005E+03  0.00000000000E+00 0.  1.
          1   -1    0    0  502    0  0.00000000000E+00 -0.00000000000E+00 -0.32846193986E+03  0.32846193986E+03  0.00000000000E+00 0. -1.
         23    2    1    2    0    0  0.26262870944E+02 -0.37008357126E+02  0.45450461421E+01  0.10053188154E+03  0.89591544655E+02 0.  0.
         23    2    1    2    0    0  0.14407746839E+02  0.50764189591E+02 -0.26114412520E+03  0.28275419555E+03  0.94705305342E+02 0.  0.
        -11    1    3    3    0    0  0.64731557729E+01 -0.65174565197E+02  0.77854280527E+01  0.65956338469E+02  0.00000000000E+00 0. -1.
         11    1    3    3    0    0  0.19789715171E+02  0.28166208070E+02 -0.32403819106E+01  0.34575543069E+02  0.00000000000E+00 0.  1.
        -13    1    4    4    0    0 -0.25132748818E+01  0.71331247252E+02 -0.23433744746E+03  0.24496632966E+03  0.00000000000E+00 0.  1.
         13    1    4    4    0    0  0.16921021721E+02 -0.20567057662E+02 -0.26806677741E+02  0.37787865889E+02  0.00000000000E+00 0. -1.
         21    1    1    2  502  501 -0.40670617783E+02 -0.13755832464E+02  0.45572779252E+02  0.62611502828E+02  0.00000000000E+00 0.  1.
<scales pt_clust_5="13000.00000" pt_clust_6="13000.00000" pt_clust_7="13000.00000" pt_clust_8="13000.00000" pt_clust_9="42.93393"></scales>
<clustering>
<clus scale="   42.934">  1  9  2 -1</clus>
<clus scale="   89.592">  5  6 -1 -1</clus>
<clus scale="   94.705">  7  8 -1 -1</clus>
<clus scale="  102.111">  1  5  2 -1</clus>
<clus scale="  106.626">  2  5  1 -1</clus>
</clustering>
</event>
<event>
 9    1  0.1713970E-005  0.1022590E+03  0.7546771E-02  0.1277712E+00
         -3   -1    0    0    0  501 -0.00000000000E+00  0.00000000000E+00  0.13939981155E+03  0.13939981155E+03  0.00000000000E+00 0.  1.
          3   -1    0    0  502    0  0.00000000000E+00 -0.00000000000E+00 -0.20636525450E+03  0.20636525450E+03  0.00000000000E+00 0. -1.
         23    2    1    2    0    0 -0.12289607575E+02 -0.39866746067E+02  0.92360182655E+02  0.13418112540E+03  0.87941907965E+02 0.  0.
         23    2    1    2    0    0  0.30813316907E+02  0.53524747440E+02 -0.15013892124E+03  0.18680361890E+03  0.92409616796E+02 0.  0.
        -11    1    3    3    0    0  0.20553585931E+02  0.17724554323E+02  0.45551203507E+02  0.53023785808E+02  0.00000000000E+00 0.  1.
         11    1    3    3    0    0 -0.32843193505E+02 -0.57591300390E+02  0.46808979149E+02  0.81157339589E+02  0.00000000000E+00 0. -1.
        -13    1    4    4    0    0  0.29009740623E+01  0.59494839262E+02 -0.37004693732E+02  0.70124167784E+02  0.00000000000E+00 0. -1.
         13    1    4    4    0    0  0.27912342844E+02 -0.59700918211E+01 -0.11313422750E+03  0.11667945111E+03  0.00000000000E+00 0.  1.
         21    1    1    2  502  501 -0.18523709332E+02 -0.13658001374E+02 -0.91867043725E+01  0.24780321753E+02  0.00000000000E+00 0. -1.
<scales pt_clust_5="13000.00000" pt_clust_6="13000.00000" pt_clust_7="13000.00000" pt_clust_8="13000.00000" pt_clust_9="23.01453"></scales>
<clustering>
<clus scale="   23.015">  2  9  1 -1</clus>
<clus scale="   87.942">  5  6 -1 -1</clus>
<clus scale="   92.410">  7  8 -1 -1</clus>
<clus scale="   98.240">  1  5  2 -1</clus>
<clus scale="   23.015">  2  5  1 -1</clus>
</clustering>
</event>
<event>
 9    1  0.1713970E-005  0.1301850E+03  0.7546771E-02  0.1229131E+00
         -2   -1    0    0    0  501 -0.00000000000E+00  0.00000000000E+00  0.80994298615E+02  0.80994298615E+02  0.00000000000E+00 0.  1.
          2   -1    0    0  502    0  0.00000000000E+00 -0.00000000000E+00 -0.31194787861E+03  0.31194787861E+03  0.00000000000E+00 0. -1.
         23    2    1    2    0    0 -0.79475184608E+02  0.36688114155E+02 -0.20572235661E+02  0.12958637729E+03  0.93311787095E+02 0.  0.
         23    2    1    2    0    0  0.53051165702E+02 -0.53174154917E+02 -0.18405020161E+03  0.22257164379E+03  0.10010865584E+03 0.  0.
        -11    1    4    4    0    0 -0.22190064228E+02 -0.43158001263E+02 -0.83651419394E+02  0.96708696559E+02  0.00000000000E+00 0. -1.
         11    1    4    4    0    0  0.75241229930E+02 -0.10016153654E+02 -0.10039878221E+03  0.12586294723E+03  0.00000000000E+00 0.  1.
        -13    1    3    3    0    0 -0.26619069542E+01  0.46614298406E+02  0.73292713887E+01  0.47262001477E+02  0.00000000000E+00 0.  1.
         13    1    3    3    0    0 -0.76813277653E+02 -0.99261842507E+01 -0.27901507050E+02  0.82324375815E+02  0.00000000000E+00 0. -1.
         21    1    1    2  502  501  0.26424018905E+02  0.16486040761E+02 -0.26331142727E+02  0.40784156144E+02  0.00000000000E+00 0.  1.
<scales pt_clust_5="13000.00000" pt_clust_6="13000.00000" pt_clust_7="13000.00000" pt_clust_8="13000.00000" pt_clust_9="31.14512"></scales>
<clustering>
<clus scale="   31.145">  2  9  1 -1</clus>
<clus scale="   93.312">  7  8 -1 -1</clus>
<clus scale="  100.109">  5  6 -1 -1</clus>
<clus scale="  125.034">  1  7  2 -1</clus>
<clus scale="   31.145">  2  5  1 -1</clus>
</clustering>
</event>
<event>
 9    1  0.1713970E-005  0.1949512E+03  0.7546771E-02  0.1155138E+00
         -4   -1    0    0    0  501 -0.00000000000E+00  0.00000000000E+00  0.20938569128E+03  0.20938569128E+03  0.00000000000E+00 0.  1.
          4   -1    0    0  502    0  0.00000000000E+00 -0.00000000000E+00 -0.23842625125E+03  0.23842625125E+03  0.00000000000E+00 0. -1.
         23    2    1    2    0    0 -0.17167650965E+03  0.13917867401E+02  0.58276438589E+02  0.21273249862E+03  0.11041938994E+03 0.  0.
         23    2    1    2    0    0  0.15604131454E+03  0.46524785112E+01 -0.95659631929E+02  0.20941007295E+03  0.10164288502E+03 0.  0.
        -11    1    4    4    0    0  0.12756904628E+03 -0.10061639781E+02 -0.23026800752E+02  0.13002050499E+03  0.00000000000E+00 0.  1.
         11    1    4    4    0    0  0.28472268252E+02  0.14714118292E+02 -0.72632831177E+02  0.79389567963E+02  0.00000000000E+00 0. -1.
        -13    1    3    3    0    0 -0.37398598719E+01  0.34747383123E+02  0.15212962861E+02  0.38115632289E+02  0.00000000000E+00 0. -1.
         13    1    3    3    0    0 -0.16793664978E+03 -0.20829515723E+02  0.43063475728E+02  0.17461686633E+03  0.00000000000E+00 0.  1.
         21    1    1    2  502  501  0.15635195118E+02 -0.18570345912E+02  0.83426333695E+01  0.25669370954E+02  0.00000000000E+00 0. -1.
<scales pt_clust_5="13000.00000" pt_clust_6="13000.00000" pt_clust_7="13000.00000" pt_clust_8="13000.00000" pt_clust_9="24.27585"></scales>
<clustering>
<clus scale="   24.276">  1  9  2 -1</clus>
<clus scale="  101.643">  5  6 -1 -1</clus>
<clus scale="  110.419">  7  8 -1 -1</clus>
<clus scale="  190.118">  2  5  1 -1</clus>
<clus scale="  190.118">  2  5  1 -1</clus>
</clustering>
</event>
<event>
 9    1  0.1713970E-005  0.9169430E+02  0.7546771E-02  0.1299082E+00
         -1   -1    0    0    0  501 -0.00000000000E+00  0.00000000000E+00  0.38127779513E+03  0.38127779513E+03  0.00000000000E+00 0.  1.
          1   -1    0    0  502    0  0.00000000000E+00 -0.00000000000E+00 -0.41459771821E+02  0.41459771821E+02  0.00000000000E+00 0. -1.
         23    2    1    2    0    0  0.90781598178E+00  0.16494990068E+02  0.18765431486E+03  0.20926424217E+03  0.91128877644E+02 0.  0.
         23    2    1    2    0    0 -0.50281213337E+01  0.49265763907E+01  0.41736706278E+02  0.10091230473E+03  0.91606699728E+02 0.  0.
        -11    1    4    4    0    0  0.32126173761E+02  0.36011424467E+01  0.52986541484E+02  0.62069580680E+02  0.00000000000E+00 0.  1.
         11    1    4    4    0    0 -0.37154295095E+02  0.13254339440E+01 -0.11249835206E+02  0.38842724046E+02  0.00000000000E+00 0. -1.
        -11    1    3    3    0    0 -0.20073352136E+02 -0.30376061122E+02  0.46496730037E+02  0.59055824940E+02  0.00000000000E+00 0.  1.
         11    1    3    3    0    0  0.20981168118E+02  0.46871051191E+02  0.14115758482E+03  0.15020841723E+03  0.00000000000E+00 0. -1.
         21    1    1    2  502  501  0.41203053519E+01 -0.21421566459E+02  0.11042700218E+03  0.11256102005E+03  0.00000000000E+00 0.  1.
<scales pt_clust_5="13000.00000" pt_clust_6="13000.00000" pt_clust_7="13000.00000" pt_clust_8="13000.00000" pt_clust_9="21.81423"></scales>
<clustering>
<clus scale="   21.814">  1  9  2 -1</clus>
<clus scale="   91.129">  7  8 -1 -1</clus>
<clus scale="   91.217">  1  7  2 -1</clus>
<clus scale="   91.607">  5  6 -1 -1</clus>
<clus scale="   91.694">  2  5  1 -1</clus>
</clustering>
</event>
<event>
 9    1  0.1713970E-005  0.1057044E+03  0.7546771E-02  0.1273706E+00
          1   -1    0    0  502    0  0.00000000000E+00  0.00000000000E+00  0.15126230972E+03  0.15126230972E+03  0.00000000000E+00 0. -1.
         -1   -1    0    0    0  501 -0.00000000000E+00 -0.00000000000E+00 -0.13438249374E+03  0.13438249374E+03  0.00000000000E+00 0.  1.
         23    2    1    2    0    0  0.42161516642E+02  0.22163965347E+02 -0.28868147041E+02  0.10585733074E+03  0.90019829550E+02 0.  0.
         23    2    1    2    0    0 -0.28218550780E+02 -0.54234826859E+01  0.85227669555E+02  0.13469537490E+03  0.10026658262E+03 0.  0.
        -11    1    3    3    0    0 -0.22992965789E+02  0.20529829259E+01  0.12349481772E+02  0.26180162618E+02  0.00000000000E+00 0. -1.
         11    1    3    3    0    0  0.65154482431E+02  0.20110982422E+02 -0.41217628813E+02  0.79677168121E+02  0.00000000000E+00 0.  1.
        -13    1    4    4    0    0 -0.70858203886E+00 -0.46527203564E+02  0.15180487871E+02  0.48946194663E+02  0.00000000000E+00 0.  1.
         13    1    4    4    0    0 -0.27509968741E+02  0.41103720878E+02  0.70047181684E+02  0.85749180241E+02  0.00000000000E+00 0. -1.
         21    1    1    2  502  501 -0.13942965863E+02 -0.16740482662E+02 -0.39479706537E+02  0.45092097812E+02  0.00000000000E+00 0.  1.
<scales pt_clust_5="13000.00000" pt_clust_6="13000.00000" pt_clust_7="13000.00000" pt_clust_8="13000.00000" pt_clust_9="21.78646"></scales>
<clustering>
<clus scale="   21.786">  2  9  1 -1</clus>
<clus scale="   90.020">  5  6 -1 -1</clus>
<clus scale="   96.040">  2  5  1 -1</clus>
<clus scale="  100.267">  7  8 -1 -1</clus>
<clus scale="  105.704">  1  5  2 -1</clus>
</clustering>
</event>
<event>
 9    1  0.1713970E-005  0.1257662E+03  0.7546771E-02  0.1236611E+00
         -1   -1    0    0    0  501 -0.00000000000E+00  0.00000000000E+00  0.19667458928E+03  0.19667458928E+03  0.00000000000E+00 0.  1.
          1   -1    0    0  502    0  0.00000000000E+00 -0.00000000000E+00 -0.17407019430E+03  0.17407019430E+03  0.00000000000E+00 0. -1.
         23    2    1    2    0    0  0.41558066150E+02  0.49155596489E+02  0.67081821070E+02  0.12382015605E+03  0.81780895066E+02 0.  0.
         23    2    1    2    0    0 -0.81203424189E+02 -0.48087467067E+02 -0.10930318377E+03  0.17092940286E+03  0.91450938721E+02 0.  0.
        -11    1    4    4    0    0 -0.27988252531E+02  0.24636678862E+02 -0.52542935392E+02  0.64428784597E+02  0.00000000000E+00 0. -1.
         11    1    4    4    0    0 -0.53215171658E+02 -0.72724145928E+02 -0.56760248375E+02  0.10650061827E+03  0.00000000000E+00 0.  1.
        -13    1    3    3    0    0  0.64057637598E+02  0.49273087800E+02  0.58377453132E+02  0.99695261423E+02  0.00000000000E+00 0.  1.
         13    1    3    3    0    0 -0.22499571448E+02 -0.11749131167E+00  0.87043679376E+01  0.24124894626E+02  0.00000000000E+00 0. -1.
         21    1    1    2  502  501  0.39645358039E+02 -0.10681294221E+01  0.64825757676E+02  0.75995224671E+02  0.00000000000E+00 0.  1.
<scales pt_clust_5="13000.00000" pt_clust_6="13000.00000" pt_clust_7="13000.00000" pt_clust_8="13000.00000" pt_clust_9="39.65974"></scales>
<clustering>
<clus scale="   39.660">  1  9  2 -1</clus>
<clus scale="   81.781">  7  8 -1 -1</clus>
<clus scale="   91.451">  5  6 -1 -1</clus>
<clus scale="  118.920">  1  7  2 -1</clus>
<clus scale="  125.766">  2  5  1 -1</clus>
</clustering>
</event>
<event>
 9    1  0.1713970E-005  0.9209262E+02  0.7546771E-02  0.1297886E+00
         -1   -1    0    0    0  501 -0.00000000000E+00  0.00000000000E+00  0.19898133781E+03  0.19898133781E+03  0.00000000000E+00 0.  1.
          1   -1    0    0  502    0  0.00000000000E+00 -0.00000000000E+00 -0.10876846407E+03  0.10876846407E+03  0.00000000000E+00 0. -1.
         23    2    1    2    0    0 -0.16195266825E+02 -0.24009108645E+02  0.41394466122E+02  0.10389787010E+03  0.90788444315E+02 0.  0.
         23    2    1    2    0    0  0.10423987188E+02  0.43400155602E+01 -0.49111948457E+02  0.10379926799E+03  0.90745850100E+02 0.  0.
        -11    1    3    3    0    0 -0.38373557583E+02 -0.37384742755E+02  0.53140743692E+02  0.75459178054E+02  0.00000000000E+00 0.  1.
         11    1    3    3    0    0  0.22178290758E+02  0.13375634110E+02 -0.11746277570E+02  0.28438692050E+02  0.00000000000E+00 0. -1.
        -13    1    4    4    0    0 -0.15902563588E+02 -0.30226965410E+02  0.48724962582E+01  0.34500756316E+02  0.00000000000E+00 0.  1.
         13    1    4    4    0    0  0.26326550777E+02  0.34566980970E+02 -0.53984444715E+02  0.69298511675E+02  0.00000000000E+00 0. -1.
         21    1    1    2  502  501  0.57712796368E+01  0.19669093085E+02  0.97930356072E+02  0.10005266379E+03  0.00000000000E+00 0.  1.
<scales pt_clust_5="13000.00000" pt_clust_6="13000.00000" pt_clust_7="13000.00000" pt_clust_8="13000.00000" pt_clust_9="20.49831"></scales>
<clustering>
<clus scale="   20.498">  1  9  2 -1</clus>
<clus scale="   90.746">  7  8 -1 -1</clus>
<clus scale="   90.788">  5  6 -1 -1</clus>
<clus scale="   92.051">  2  7  1 -1</clus>
<clus scale="   92.051">  2  5  1 -1</clus>
</clustering>
</event>
<event>
 9    1  0.1713970E-005  0.1143614E+03  0.7546771E-02  0.1252963E+00
          1   -1    0    0  502    0  0.00000000000E+00  0.00000000000E+00  0.66656227959E+03  0.66656227959E+03  0.00000000000E+00 0. -1.
         -1   -1    0    0    0  501 -0.00000000000E+00 -0.00000000000E+00 -0.92631048089E+02  0.92631048089E+02  0.00000000000E+00 0.  1.
         23    2    1    2    0    0 -0.12669504307E+02  0.18392310829E+02  0.25635525733E+02  0.96364493614E+02  0.90167300131E+02 0.  0.
         23    2    1    2    0    0 -0.26937213625E+02 -0.74546319195E+02  0.57618018568E+03  0.58867015971E+03  0.90918553560E+02 0.  0.
        -11    1    4    4    0    0  0.18874258550E+02  0.78913070014E+01  0.48657017259E+02  0.52782721516E+02  0.00000000000E+00 0.  1.
         11    1    4    4    0    0 -0.45811472176E+02 -0.82437626196E+02  0.52752316842E+03  0.53588743820E+03  0.00000000000E+00 0. -1.
        -11    1    3    3    0    0  0.24944214895E+02  0.14260737529E+02 -0.21523877740E+02  0.35900693650E+02  0.00000000000E+00 0.  1.
         11    1    3    3    0    0 -0.37613719202E+02  0.41315732993E+01  0.47159403473E+02  0.60463799964E+02  0.00000000000E+00 0. -1.
         21    1    1    2  502  501  0.39606717932E+02  0.56154008366E+02 -0.27884479917E+02  0.74158674349E+02  0.00000000000E+00 0.  1.
<scales pt_clust_5="13000.00000" pt_clust_6="13000.00000" pt_clust_7="13000.00000" pt_clust_8="13000.00000" pt_clust_9="68.71655"></scales>
<clustering>
<clus scale="   68.717">  2  9  1 -1</clus>
<clus scale="   90.167">  7  8 -1 -1</clus>
<clus scale="   90.919">  5  6 -1 -1</clus>
<clus scale="  113.765">  2  7  1 -1</clus>
<clus scale="  114.361">  1  5  2 -1</clus>
</clustering>
</event>
<event>
 9    1  0.1713970E-005  0.1001847E+03  0.7546771E-02  0.1280700E+00
         -1   -1    0    0    0  501 -0.00000000000E+00  0.00000000000E+00  0.11468255149E+03  0.11468255149E+03  0.00000000000E+00 0.  1.
          1   -1    0    0  502    0  0.00000000000E+00 -0.00000000000E+00 -0.24077287017E+03  0.24077287017E+03  0.00000000000E+00 0. -1.
         23    2    1    2    0    0 -0.91950522319E+01 -0.69548938139E+02 -0.20339980111E+02  0.11897543003E+03  0.93913973279E+02 0.  0.
         23    2    1    2    0    0  0.24039363097E+02  0.15578651840E+02 -0.14054410353E+03  0.17057284902E+03  0.92313955685E+02 0.  0.
        -11    1    4    4    0    0 -0.23483503600E+02 -0.52218868247E+01 -0.38460472627E+01  0.24362576278E+02  0.00000000000E+00 0.  1.
         11    1    4    4    0    0  0.47522866697E+02  0.20800538665E+02 -0.13669805627E+03  0.14621027274E+03  0.00000000000E+00 0. -1.
        -13    1    3    3    0    0 -0.22660405072E+02  0.17306013696E+02 -0.11104318276E+02  0.30598986134E+02  0.00000000000E+00 0. -1.
         13    1    3    3    0    0  0.13465352840E+02 -0.86854951835E+02 -0.92356618351E+01  0.88376443891E+02  0.00000000000E+00 0.  1.
         21    1    1    2  502  501 -0.14844310865E+02  0.53970286299E+02  0.34793764962E+02  0.65907142621E+02  0.00000000000E+00 0. -1.
<scales pt_clust_5="13000.00000" pt_clust_6="13000.00000" pt_clust_7="13000.00000" pt_clust_8="13000.00000" pt_clust_9="55.97451"></scales>
<clustering>
<clus scale="   55.975">  1  9  2 -1</clus>
<clus scale="   92.314">  5  6 -1 -1</clus>
<clus scale="   93.914">  7  8 -1 -1</clus>
<clus scale="   98.686">  2  5  1 -1</clus>
<clus scale="   98.686">  2  5  1 -1</clus>
</clustering>
</event>
<event>
 9    1  0.1713970E-005  0.1067563E+03  0.7546771E-02  0.1268407E+00
         -1   -1    0    0    0  501 -0.00000000000E+00  0.00000000000E+00  0.39528987221E+02  0.39528987221E+02  0.00000000000E+00 0.  1.
          1   -1    0    0  502    0  0.00000000000E+00 -0.00000000000E+00 -0.39814952501E+03  0.39814952501E+03  0.00000000000E+00 0. -1.
         23    2    1    2    0    0  0.83964492898E+01 -0.70722767342E+02 -0.14137805629E+03  0.18051508876E+03  0.86750978606E+02 0.  0.
         23    2    1    2    0    0 -0.21864492789E+02  0.42072872619E+02 -0.18769789690E+03  0.21386114706E+03  0.90873027155E+02 0.  0.
        -11    1    4    4    0    0 -0.79026722584E+01 -0.27915063824E+02 -0.36168142236E+02  0.46366340485E+02  0.00000000000E+00 0.  1.
         11    1    4    4    0    0 -0.13961820531E+02  0.69987936443E+02 -0.15152975467E+03  0.16749480657E+03  0.00000000000E+00 0. -1.
        -13    1    3    3    0    0  0.35915254904E+02 -0.56059621403E+02 -0.13218765275E+03  0.14800730464E+03  0.00000000000E+00 0.  1.
         13    1    3    3    0    0 -0.27518805614E+02 -0.14663145939E+02 -0.91904035364E+01  0.32507784120E+02  0.00000000000E+00 0. -1.
         21    1    1    2  502  501  0.13468043499E+02  0.28649894723E+02 -0.29544584593E+02  0.43302276408E+02  0.00000000000E+00 0. -1.
<scales pt_clust_5="13000.00000" pt_clust_6="13000.00000" pt_clust_7="13000.00000" pt_clust_8="13000.00000" pt_clust_9="31.65762"></scales>
<clustering>
<clus scale="   31.658">  1  9  2 -1</clus>
<clus scale="   86.751">  7  8 -1 -1</clus>
<clus scale="   90.873">  5  6 -1 -1</clus>
<clus scale="  103.270">  1  7  2 -1</clus>
<clus scale="  106.756">  2  5  1 -1</clus>
</clustering>
</event>
<event>
 9    1  0.1713970E-005  0.9573351E+02  0.7546771E-02  0.1289587E+00
          1   -1    0    0  502    0  0.00000000000E+00  0.00000000000E+00  0.44360677680E+02  0.44360677680E+02  0.00000000000E+00 0. -1.
         -1   -1    0    0    0  501 -0.00000000000E+00 -0.00000000000E+00 -0.30933867120E+03  0.30933867120E+03  0.00000000000E+00 0.  1.
         23    2    1    2    0    0 -0.36321100736E+02 -0.77123006149E+01 -0.11920105259E+03  0.15544582856E+03  0.92605684152E+02 0.  0.
         23    2    1    2    0    0  0.15810162304E+02  0.24481097058E+01 -0.63602691845E+02  0.11339471104E+03  0.92504613981E+02 0.  0.
        -11    1    3    3    0    0 -0.16953491630E+02 -0.48099675217E+02 -0.41467116743E+02  0.65730673246E+02  0.00000000000E+00 0. -1.
         11    1    3    3    0    0 -0.19367609106E+02  0.40387374602E+02 -0.77733935848E+02  0.89715155309E+02  0.00000000000E+00 0.  1.
        -11    1    4    4    0    0  0.37732274546E+01 -0.31520945107E+02 -0.69935827632E+02  0.76803822903E+02  0.00000000000E+00 0.  1.
         11    1    4    4    0    0  0.12036934849E+02  0.33969054813E+02  0.63331357872E+01  0.36590888133E+02  0.00000000000E+00 0. -1.
         21    1    1    2  502  501  0.20510938432E+02  0.52641909090E+01 -0.82174249090E+02  0.84858809293E+02  0.00000000000E+00 0. -1.
<scales pt_clust_5="13000.00000" pt_clust_6="13000.00000" pt_clust_7="13000.00000" pt_clust_8="13000.00000" pt_clust_9="21.17570"></scales>
<clustering>
<clus scale="   21.176">  2  9  1 -1</clus>
<clus scale="   92.505">  7  8 -1 -1</clus>
<clus scale="   92.606">  5  6 -1 -1</clus>
<clus scale="   95.636">  1  7  2 -1</clus>
<clus scale="   95.636">  1  5  2 -1</clus>
</clustering>
</event>
<event>
 9    1  0.1713970E-005  0.9246887E+02  0.7546771E-02  0.1299364E+00
         -2   -1    0    0    0  501 -0.00000000000E+00  0.00000000000E+00  0.69930400399E+02  0.69930400399E+02  0.00000000000E+00 0.  1.
          2   -1    0    0  502    0  0.00000000000E+00 -0.00000000000E+00 -0.24793047789E+03  0.24793047789E+03  0.00000000000E+00 0. -1.
         23    2    1    2    0    0 -0.26208864727E+01  0.15616335550E+01 -0.10081174292E+02  0.87475647882E+02  0.86839225883E+02 0.  0.
         23    2    1    2    0    0 -0.19827676208E+02  0.11544437911E+02 -0.17905001275E+03  0.20210787772E+03  0.90897064751E+02 0.  0.
        -11    1    4    4    0    0  0.25576062329E+02 -0.96862820802E+01 -0.16352542112E+02  0.31864787122E+02  0.00000000000E+00 0.  1.
         11    1    4    4    0    0 -0.45403738538E+02  0.21230719991E+02 -0.16269747063E+03  0.17024309060E+03  0.00000000000E+00 0. -1.
        -11    1    3    3    0    0 -0.39568517655E+02 -0.19504141486E+02 -0.18351249904E+01  0.44152540224E+02  0.00000000000E+00 0. -1.
         11    1    3    3    0    0  0.36947631182E+02  0.21065775041E+02 -0.82460493017E+01  0.43323107658E+02  0.00000000000E+00 0.  1.
         21    1    1    2  502  501  0.22448562681E+02 -0.13106071466E+02  0.11131109544E+02  0.28277352694E+02  0.00000000000E+00 0.  1.
<scales pt_clust_5="13000.00000" pt_clust_6="13000.00000" pt_clust_7="13000.00000" pt_clust_8="13000.00000" pt_clust_9="25.99437"></scales>
<clustering>
<clus scale="   25.994">  1  9  2 -1</clus>
<clus scale="   86.839">  7  8 -1 -1</clus>
<clus scale="   88.483">  1  7  2 -1</clus>
<clus scale="   90.897">  5  6 -1 -1</clus>
<clus scale="   92.469">  2  5  1 -1</clus>
</clustering>
</event>
<event>
 9    1  0.1713970E-005  0.1226825E+03  0.7546771E-02  0.1239120E+00
         -1   -1    0    0    0  501 -0.00000000000E+00  0.00000000000E+00  0.20427780367E+03  0.20427780367E+03  0.00000000000E+00 0.  1.
          1   -1    0    0  502    0  0.00000000000E+00 -0.00000000000E+00 -0.19831906082E+03  0.19831906082E+03  0.00000000000E+00 0. -1.
         23    2    1    2    0    0 -0.24561719963E+02 -0.34008125949E+02  0.67832743026E+02  0.12042382185E+03  0.90226299522E+02 0.  0.
         23    2    1    2    0    0  0.59355646073E+02  0.73358496728E+02 -0.13821032791E+03  0.18951073150E+03  0.88925029368E+02 0.  0.
        -13    1    4    4    0    0  0.80294754829E+02  0.50670232029E+02 -0.12214638650E+03  0.15470765916E+03  0.00000000000E+00 0. -1.
         13    1    4    4    0    0 -0.20939108756E+02  0.22688264699E+02 -0.16063941409E+02  0.34803072337E+02  0.00000000000E+00 0.  1.
        -13    1    3    3    0    0  0.15736151057E+02 -0.44798937795E+02  0.90419778845E+01  0.48335583597E+02  0.00000000000E+00 0.  1.
         13    1    3    3    0    0 -0.40297871020E+02  0.10790811846E+02  0.58790765142E+02  0.72088238257E+02  0.00000000000E+00 0. -1.
         21    1    1    2  502  501 -0.34793926110E+02 -0.39350370779E+02  0.76336327728E+02  0.92662311139E+02  0.00000000000E+00 0.  1.
<scales pt_clust_5="13000.00000" pt_clust_6="13000.00000" pt_clust_7="13000.00000" pt_clust_8="13000.00000" pt_clust_9="52.52684"></scales>
<clustering>
<clus scale="   52.527">  1  9  2 -1</clus>
<clus scale="   88.925">  5  6 -1 -1</clus>
<clus scale="   90.226">  7  8 -1 -1</clus>
<clus scale="  121.729">  2  5  1 -1</clus>
<clus scale="  121.729">  2  5  1 -1</clus>
</clustering>
</event>
<event>
 9    1  0.1713970E-005  0.1309955E+03  0.7546771E-02  0.1226126E+00
         -3   -1    0    0    0  501 -0.00000000000E+00  0.00000000000E+00  0.12080376093E+03  0.12080376093E+03  0.00000000000E+00 0.  1.
          3   -1    0    0  502    0  0.00000000000E+00 -0.00000000000E+00 -0.67009803685E+03  0.67009803685E+03  0.00000000000E+00 0. -1.
         23    2    1    2    0    0  0.28685477432E+02 -0.10273906578E+03 -0.22032466480E+03  0.26071506345E+03  0.89728558098E+02 0.  0.
         23    2    1    2    0    0  0.63476693226E+02  0.82896215516E+02 -0.39279382981E+03  0.41633975238E+03  0.90281357673E+02 0.  0.
        -11    1    3    3    0    0  0.21894031957E+02 -0.79912385404E+02 -0.22188266667E+03  0.23684859244E+03  0.00000000000E+00 0. -1.
         11    1    3    3    0    0  0.67914454755E+01 -0.22826680373E+02  0.15580018644E+01  0.23866471007E+02  0.00000000000E+00 0.  1.
        -11    1    4    4    0    0 -0.85249220263E+01  0.27641780684E+02 -0.27402289711E+02  0.39845047576E+02  0.00000000000E+00 0.  1.
         11    1    4    4    0    0  0.72001615252E+02  0.55254434832E+02 -0.36539154010E+03  0.37649470480E+03  0.00000000000E+00 0. -1.
         21    1    1    2  502  501 -0.92162170658E+02  0.19842850261E+02  0.63824218692E+02  0.11384698195E+03  0.00000000000E+00 0.  1.
<scales pt_clust_5="13000.00000" pt_clust_6="13000.00000" pt_clust_7="13000.00000" pt_clust_8="13000.00000" pt_clust_9="94.27409"></scales>
<clustering>
<clus scale="   89.729">  5  6 -1 -1</clus>
<clus scale="   90.281">  7  8 -1 -1</clus>
<clus scale="   94.274">  1  9  2 -1</clus>
<clus scale="  130.615">  1  5  2 -1</clus>
<clus scale="  130.995">  2  5  1 -1</clus>
</clustering>
</event>
<event>
 9    1  0.1713970E-005  0.1158731E+03  0.7546771E-02  0.1252085E+00
         -1   -1    0    0    0  501 -0.00000000000E+00  0.00000000000E+00  0.15300180012E+03  0.15300180012E+03  0.00000000000E+00 0.  1.
          1   -1    0    0  502    0  0.00000000000E+00 -0.00000000000E+00 -0.33144800741E+03  0.33144800741E+03  0.00000000000E+00 0. -1.
         23    2    1    2    0    0 -0.26608744078E+01  0.49504061617E+02  0.64827156601E+02  0.12640567747E+03  0.96530320083E+02 0.  0.
         23    2    1    2    0    0 -0.11043683734E+02 -0.64893635348E+02 -0.28782462465E+03  0.30895779053E+03  0.90987663532E+02 0.  0.
        -11    1    4    4    0    0  0.30930468843E+02 -0.30046275043E+02 -0.55333143938E+02  0.70151474432E+02  0.00000000000E+00 0.  1.
         11    1    4    4    0    0 -0.41974152577E+02 -0.34847360305E+02 -0.23249148071E+03  0.23880631610E+03  0.00000000000E+00 0. -1.
        -13    1    3    3    0    0  0.39894261577E+02  0.51071616637E+02  0.47871894833E+02  0.80570344715E+02  0.00000000000E+00 0.  1.
         13    1    3    3    0    0 -0.42555135984E+02 -0.15675550195E+01  0.16955261768E+02  0.45835332758E+02  0.00000000000E+00 0. -1.
         21    1    1    2  502  501  0.13704558142E+02  0.15389573730E+02  0.44551260757E+02  0.49086339530E+02  0.00000000000E+00 0.  1.
<scales pt_clust_5="13000.00000" pt_clust_6="13000.00000" pt_clust_7="13000.00000" pt_clust_8="13000.00000" pt_clust_9="20.60713"></scales>
<clustering>
<clus scale="   20.607">  1  9  2 -1</clus>
<clus scale="   90.988">  5  6 -1 -1</clus>
<clus scale="   96.530">  7  8 -1 -1</clus>
<clus scale="  111.298">  2  5  1 -1</clus>
<clus scale="  111.298">  2  5  1 -1</clus>
</clustering>
</event>
<event>
 9    1  0.1713970E-005  0.9260477E+02  0.7546771E-02  0.1298038E+00
         -2   -1    0    0    0  501 -0.00000000000E+00  0.00000000000E+00  0.34594130961E+02  0.34594130961E+02  0.00000000000E+00 0.  1.
          2   -1    0    0  502    0  0.00000000000E+00 -0.00000000000E+00 -0.40229983159E+03  0.40229983159E+03  0.00000000000E+00 0. -1.
         23    2    1    2    0    0 -0.18523932438E+02 -0.18853983872E+02 -0.10119876882E+03  0.13748911845E+03  0.89238209873E+02 0.  0.
         23    2    1    2    0    0  0.11113824579E+02 -0.44454430485E+01 -0.25713152467E+03  0.27321951897E+03  0.91591514376E+02 0.  0.
        -13    1    4    4    0    0  0.44445211352E+02  0.17672398406E+02 -0.18106689684E+03  0.18727763243E+03  0.00000000000E+00 0. -1.
         13    1    4    4    0    0 -0.33331386773E+02 -0.22117841454E+02 -0.76064627823E+02  0.85941886532E+02  0.00000000000E+00 0.  1.
        -13    1    3    3    0    0 -0.52533236818E+02  0.28549771771E+01 -0.60601869892E+02  0.80252591856E+02  0.00000000000E+00 0.  1.
         13    1    3    3    0    0  0.34009304380E+02 -0.21708961049E+02 -0.40596898928E+02  0.57236526596E+02  0.00000000000E+00 0. -1.
         21    1    1    2  502  501  0.74101078588E+01  0.23299426921E+02 -0.93754071453E+01  0.26185325135E+02  0.00000000000E+00 0. -1.
<scales pt_clust_5="13000.00000" pt_clust_6="13000.00000" pt_clust_7="13000.00000" pt_clust_8="13000.00000" pt_clust_9="24.44940"></scales>
<clustering>
<clus scale="   24.449">  1  9  2 -1</clus>
<clus scale="   89.238">  7  8 -1 -1</clus>
<clus scale="   90.278">  1  7  2 -1</clus>
<clus scale="   91.592">  5  6 -1 -1</clus>
<clus scale="   92.605">  2  5  1 -1</clus>
</clustering>
</event>
<event>
 9    1  0.1713970E-005  0.1109283E+03  0.7546771E-02  0.1260137E+00
         -2   -1    0    0    0  501 -0.00000000000E+00  0.00000000000E+00  0.88379186266E+02  0.88379186266E+02  0.00000000000E+00 0.  1.
          2   -1    0    0  502    0  0.00000000000E+00 -0.00000000000E+00 -0.57490273832E+03  0.57490273832E+03  0.00000000000E+00 0. -1.
         23    2    1    2    0    0 -0.55522167933E+02  0.10560530818E+02 -0.14976663819E+03  0.18272286260E+03  0.88109946421E+02 0.  0.
         23    2    1    2    0    0  0.52943932232E+02  0.55942117790E+02 -0.38187202516E+03  0.40015618369E+03  0.91466645526E+02 0.  0.
        -11    1    3    3    0    0  0.22053294914E+02 -0.10032207343E+02 -0.30242066317E+02  0.38750168721E+02  0.00000000000E+00 0. -1.
         11    1    3    3    0    0 -0.77575462847E+02  0.20592738161E+02 -0.11952457187E+03  0.14397269388E+03  0.00000000000E+00 0.  1.
        -13    1    4    4    0    0  0.15401216509E+02  0.55977598940E+02 -0.33552697449E+03  0.34051290675E+03  0.00000000000E+00 0. -1.
         13    1    4    4    0    0  0.37542715723E+02 -0.35481150529E-01 -0.46345050673E+02  0.59643276944E+02  0.00000000000E+00 0.  1.
         21    1    1    2  502  501  0.25782357005E+01 -0.66502648607E+02  0.45115111296E+02  0.80402878296E+02  0.00000000000E+00 0.  1.
<scales pt_clust_5="13000.00000" pt_clust_6="13000.00000" pt_clust_7="13000.00000" pt_clust_8="13000.00000" pt_clust_9="66.55261"></scales>
<clustering>
<clus scale="   66.553">  1  9  2 -1</clus>
<clus scale="   88.110">  5  6 -1 -1</clus>
<clus scale="   91.467">  7  8 -1 -1</clus>
<clus scale="  108.177">  1  5  2 -1</clus>
<clus scale="  110.928">  2  5  1 -1</clus>
</clustering>
</event>
<event>
 9    1  0.1713970E-005  0.1776504E+03  0.7546771E-02  0.1170454E+00
          1   -1    0    0  502    0  0.00000000000E+00  0.00000000000E+00  0.34084130465E+03  0.34084130465E+03  0.00000000000E+00 0. -1.
         -1   -1    0    0    0  501 -0.00000000000E+00 -0.00000000000E+00 -0.11137399080E+03  0.11137399080E+03  0.00000000000E+00 0.  1.
         23    2    1    2    0    0 -0.72514216567E+02  0.12923748446E+03  0.10018998151E+03  0.20083495934E+03  0.91301749737E+02 0.  0.
         23    2    1    2    0    0  0.99025877646E+02 -0.12216003492E+03  0.13235709641E+03  0.22376795823E+03  0.88456201515E+02 0.  0.
        -11    1    3    3    0    0  0.21015784889E+02  0.17016632112E+02  0.84488009259E+01  0.28330393927E+02  0.00000000000E+00 0. -1.
         11    1    3    3    0    0 -0.93530001457E+02  0.11222085235E+03  0.91741180580E+02  0.17250456542E+03  0.00000000000E+00 0.  1.
        -13    1    4    4    0    0  0.44410635321E+02 -0.11572406019E+03  0.10448117311E+03  0.16211316471E+03  0.00000000000E+00 0.  1.
         13    1    4    4    0    0  0.54615242325E+02 -0.64359747283E+01  0.27875923303E+02  0.61654793528E+02  0.00000000000E+00 0. -1.
         21    1    1    2  502  501 -0.26511661079E+02 -0.70774495414E+01 -0.30797640622E+01  0.27612377874E+02  0.00000000000E+00 0.  1.
<scales pt_clust_5="13000.00000" pt_clust_6="13000.00000" pt_clust_7="13000.00000" pt_clust_8="13000.00000" pt_clust_9="27.44009"></scales>
<clustering>
<clus scale="   27.440">  2  9  1 -1</clus>
<clus scale="   88.456">  7  8 -1 -1</clus>
<clus scale="   91.302">  5  6 -1 -1</clus>
<clus scale="  176.205">  1  7  2 -1</clus>
<clus scale="  176.205">  1  5  2 -1</clus>
</clustering>
</event>
<event>
 9    1  0.1713970E-005  0.9849176E+02  0.7546771E-02  0.1283788E+00
         -1   -1    0    0    0  501 -0.00000000000E+00  0.00000000000E+00  0.86338909348E+02  0.86338909348E+02  0.00000000000E+00 0.  1.
          1   -1    0    0  502    0  0.00000000000E+00 -0.00000000000E+00 -0.20481736113E+03  0.20481736113E+03  0.00000000000E+00 0. -1.
         23    2    1    2    0    0  0.11526630666E+02  0.34959851454E+02  0.21183546165E+02  0.10360386997E+03  0.94498491080E+02 0.  0.
         23    2    1    2    0    0  0.78714599296E+01 -0.25565689396E+02 -0.13296044219E+03  0.16498146678E+03  0.93940624012E+02 0.  0.
        -13    1    4    4    0    0 -0.13067665267E+02  0.32891196846E+02 -0.53276043927E+02  0.63960390571E+02  0.00000000000E+00 0.  1.
         13    1    4    4    0    0  0.20939125197E+02 -0.58456886242E+02 -0.79684398262E+02  0.10102107621E+03  0.00000000000E+00 0. -1.
        -13    1    3    3    0    0  0.52400697031E+02  0.17430386477E+02  0.21133873183E+02  0.59129451357E+02  0.00000000000E+00 0. -1.
         13    1    3    3    0    0 -0.40874066364E+02  0.17529464976E+02  0.49672982139E-01  0.44474418613E+02  0.00000000000E+00 0.  1.
         21    1    1    2  502  501 -0.19398090596E+02 -0.93941620572E+01 -0.67015557564E+01  0.22570933722E+02  0.00000000000E+00 0.  1.
<scales pt_clust_5="13000.00000" pt_clust_6="13000.00000" pt_clust_7="13000.00000" pt_clust_8="13000.00000" pt_clust_9="21.55310"></scales>
<clustering>
<clus scale="   21.553">  1  9  2 -1</clus>
<clus scale="   93.941">  5  6 -1 -1</clus>
<clus scale="   94.498">  7  8 -1 -1</clus>
<clus scale="   97.957">  2  5  1 -1</clus>
<clus scale="   97.957">  2  5  1 -1</clus>
</clustering>
</event>
<event>
 9    1  0.1713970E-005  0.1177149E+03  0.7546771E-02  0.1248747E+00
         -2   -1    0    0    0  501 -0.00000000000E+00  0.00000000000E+00  0.10823444526E+03  0.10823444526E+03  0.00000000000E+00 0.  1.
          2   -1    0    0  502    0  0.00000000000E+00 -0.00000000000E+00 -0.25181643603E+03  0.25181643603E+03  0.00000000000E+00 0. -1.
         23    2    1    2    0    0  0.11266286281E+02  0.56116207783E+02 -0.22656775689E+01  0.10574321781E+03  0.88884964056E+02 0.  0.
         23    2    1    2    0    0  0.12257737154E+02 -0.75558491180E+02 -0.17232450696E+03  0.21080030615E+03  0.94242748594E+02 0.  0.
        -13    1    3    3    0    0  0.31894767611E+02  0.86650092843E+01  0.30108210390E+02  0.44708644799E+02  0.00000000000E+00 0. -1.
         13    1    3    3    0    0 -0.20628481329E+02  0.47451198499E+02 -0.32373887959E+02  0.61034573010E+02  0.00000000000E+00 0.  1.
        -13    1    4    4    0    0  0.21826230536E+01 -0.93944111861E+02 -0.16234821915E+03  0.18758252653E+03  0.00000000000E+00 0. -1.
         13    1    4    4    0    0  0.10075114101E+02  0.18385620682E+02 -0.99762878111E+01  0.23217779620E+02  0.00000000000E+00 0.  1.
         21    1    1    2  502  501 -0.23524023436E+02  0.19442283396E+02  0.31008193758E+02  0.43507357336E+02  0.00000000000E+00 0.  1.
<scales pt_clust_5="13000.00000" pt_clust_6="13000.00000" pt_clust_7="13000.00000" pt_clust_8="13000.00000" pt_clust_9="30.51855"></scales>
<clustering>
<clus scale="   30.519">  1  9  2 -1</clus>
<clus scale="   88.885">  5  6 -1 -1</clus>
<clus scale="   94.243">  7  8 -1 -1</clus>
<clus scale="  113.471">  1  5  2 -1</clus>
<clus scale="  117.715">  2  5  1 -1</clus>
</clustering>
</event>
<event>
 9    1  0.1713970E-005  0.2154049E+03  0.7546771E-02  0.1137758E+00
          1   -1    0    0  502    0  0.00000000000E+00  0.00000000000E+00  0.59199788752E+03  0.59199788752E+03  0.00000000000E+00 0. -1.
         -1   -1    0    0    0  501 -0.00000000000E+00 -0.00000000000E+00 -0.17393697113E+03  0.17393697113E+03  0.00000000000E+00 0.  1.
         23    2    1    2    0    0  0.52151142886E+02  0.20696035205E+03  0.17055334134E+03  0.28856462958E+03  0.92891195372E+02 0.  0.
         23    2    1    2    0    0 -0.60115036751E+02 -0.17509790188E+03  0.33006388000E+03  0.38852101510E+03  0.87939305265E+02 0.  0.
        -13    1    4    4    0    0  0.21281868434E+02 -0.55962355804E+02  0.11290323911E+03  0.12779610554E+03  0.00000000000E+00 0.  1.
         13    1    4    4    0    0 -0.81396905184E+02 -0.11913554608E+03  0.21716064089E+03  0.26072490956E+03  0.00000000000E+00 0. -1.
        -13    1    3    3    0    0  0.49899125121E+02  0.14257931636E+03  0.64013096728E+02  0.16406236830E+03  0.00000000000E+00 0.  1.
         13    1    3    3    0    0  0.22520177651E+01  0.64381035688E+02  0.10654024461E+03  0.12450226127E+03  0.00000000000E+00 0. -1.
         21    1    1    2  502  501  0.79638938650E+01 -0.31862450165E+02 -0.82556304952E+02  0.88849213971E+02  0.00000000000E+00 0.  1.
<scales pt_clust_5="13000.00000" pt_clust_6="13000.00000" pt_clust_7="13000.00000" pt_clust_8="13000.00000" pt_clust_9="32.84265"></scales>
<clustering>
<clus scale="   32.843">  2  9  1 -1</clus>
<clus scale="   87.939">  5  6 -1 -1</clus>
<clus scale="   92.891">  7  8 -1 -1</clus>
<clus scale="  213.316">  1  5  2 -1</clus>
<clus scale="  213.316">  1  5  2 -1</clus>
</clustering>
</event>
<event>
 9    1  0.1713970E-005  0.1800056E+03  0.7546771E-02  0.1167909E+00
          1   -1    0    0  502    0  0.00000000000E+00  0.00000000000E+00  0.68287250197E+03  0.68287250197E+03  0.00000000000E+00 0. -1.
         -1   -1    0    0    0  501 -0.00000000000E+00 -0.00000000000E+00 -0.81919978416E+02  0.81919978416E+02  0.00000000000E+00 0.  1.
         23    2    1    2    0    0 -0.79674863639E+02  0.11211372075E+03  0.84649713826E+02  0.18662716517E+03  0.93523015637E+02 0.  0.
         23    2    1    2    0    0  0.10508140574E+03 -0.11936229106E+03  0.51988840415E+03  0.55150278270E+03  0.92638589127E+02 0.  0.
        -11    1    4    4    0    0  0.10575645159E+03 -0.79372725655E+02  0.46598146427E+03  0.48437917139E+03  0.00000000000E+00 0. -1.
         11    1    4    4    0    0 -0.67504585814E+00 -0.39989565402E+02  0.53906939881E+02  0.67123611309E+02  0.00000000000E+00 0.  1.
        -13    1    3    3    0    0 -0.14597375853E+02  0.56645936211E+02  0.82445966624E+02  0.10108997420E+03  0.00000000000E+00 0. -1.
         13    1    3    3    0    0 -0.65077487786E+02  0.55467784540E+02  0.22037472022E+01  0.85537190976E+02  0.00000000000E+00 0.  1.
         21    1    1    2  502  501 -0.25406542097E+02  0.72485703048E+01 -0.35855944216E+01  0.26662532516E+02  0.00000000000E+00 0. -1.
<scales pt_clust_5="13000.00000" pt_clust_6="13000.00000" pt_clust_7="13000.00000" pt_clust_8="13000.00000" pt_clust_9="26.42034"></scales>
<clustering>
<clus scale="   26.420">  2  9  1 -1</clus>
<clus scale="   92.639">  5  6 -1 -1</clus>
<clus scale="   93.523">  7  8 -1 -1</clus>
<clus scale="  179.548">  1  5  2 -1</clus>
<clus scale="  179.548">  1  5  2 -1</clus>
</clustering>
</event>
<event>
 9    1  0.1713970E-005  0.9545704E+02  0.7546771E-02  0.1291786E+00
         -2   -1    0    0    0  501 -0.00000000000E+00  0.00000000000E+00  0.11225440100E+03  0.11225440100E+03  0.00000000000E+00 0.  1.
          2   -1    0    0  502    0  0.00000000000E+00 -0.00000000000E+00 -0.57164624310E+03  0.57164624310E+03  0.00000000000E+00 0. -1.
         23    2    1    2    0    0  0.23368615610E+02  0.40341489921E+02 -0.87900942044E+02  0.13263965173E+03  0.87710738192E+02 0.  0.
         23    2    1    2    0    0 -0.27208664062E+02 -0.72595885002E+01 -0.45318597049E+03  0.46303830422E+03  0.90741028757E+02 0.  0.
        -11    1    4    4    0    0 -0.45749931744E+02  0.28807292842E+02 -0.23786955642E+03  0.24393614379E+03  0.00000000000E+00 0.  1.
         11    1    4    4    0    0  0.18541267682E+02 -0.36066881342E+02 -0.21531641407E+03  0.21910216043E+03  0.00000000000E+00 0. -1.
        -13    1    3    3    0    0  0.15202629714E+00  0.62198052741E+02 -0.36399044822E+02  0.72066020709E+02  0.00000000000E+00 0.  1.
         13    1    3    3    0    0  0.23216589313E+02 -0.21856562820E+02 -0.51501897221E+02  0.60573631021E+02  0.00000000000E+00 0. -1.
         21    1    1    2  502  501  0.38400484518E+01 -0.33081901421E+02  0.81695070426E+02  0.88222688157E+02  0.00000000000E+00 0.  1.
<scales pt_clust_5="13000.00000" pt_clust_6="13000.00000" pt_clust_7="13000.00000" pt_clust_8="13000.00000" pt_clust_9="33.30403"></scales>
<clustering>
<clus scale="   33.304">  1  9  2 -1</clus>
<clus scale="   87.711">  7  8 -1 -1</clus>
<clus scale="   90.741">  5  6 -1 -1</clus>
<clus scale="   92.581">  1  7  2 -1</clus>
<clus scale="   95.457">  2  5  1 -1</clus>
</clustering>
</event>
<event>
 9    1  0.1713970E-005  0.1585270E+03  0.7546771E-02  0.1191717E+00
         -3   -1    0    0    0  501 -0.00000000000E+00  0.00000000000E+00  0.49332936589E+03  0.49332936589E+03  0.00000000000E+00 0.  1.
          3   -1    0    0  502    0  0.00000000000E+00 -0.00000000000E+00 -0.57216571439E+02  0.57216571439E+02  0.00000000000E+00 0. -1.
         23    2    1    2    0    0 -0.11751532708E+03  0.28310675359E+02  0.22781380634E+03  0.27578204236E+03  0.97699836706E+02 0.  0.
         23    2    1    2    0    0  0.11786441697E+03 -0.71488659682E+01  0.18060009070E+03  0.23990456396E+03  0.10485551953E+03 0.  0.
        -11    1    4    4    0    0  0.10443672230E+03 -0.45601124980E+02  0.15270038418E+03  0.19053582050E+03  0.00000000000E+00 0.  1.
         11    1    4    4    0    0  0.13427694668E+02  0.38452259011E+02  0.27899706515E+02  0.49368743460E+02  0.00000000000E+00 0. -1.
        -13    1    3    3    0    0 -0.71216064257E+02 -0.21214108924E+02  0.62470030559E+02  0.97078684291E+02  0.00000000000E+00 0. -1.
         13    1    3    3    0    0 -0.46299262820E+02  0.49524784283E+02  0.16534377578E+03  0.17870335807E+03  0.00000000000E+00 0.  1.
         21    1    1    2  502  501 -0.34908988930E+00 -0.21161809391E+02  0.27698897423E+02  0.34859331016E+02  0.00000000000E+00 0. -1.
<scales pt_clust_5="13000.00000" pt_clust_6="13000.00000" pt_clust_7="13000.00000" pt_clust_8="13000.00000" pt_clust_9="21.16469"></scales>
<clustering>
<clus scale="   21.165">  1  9  2 -1</clus>
<clus scale="   97.700">  7  8 -1 -1</clus>
<clus scale="  104.856">  5  6 -1 -1</clus>
<clus scale="  153.888">  1  7  2 -1</clus>
<clus scale="  158.527">  2  5  1 -1</clus>
</clustering>
</event>
<event>
 9    1  0.1713970E-005  0.9886981E+02  0.7546771E-02  0.1282847E+00
          1   -1    0    0  502    0  0.00000000000E+00  0.00000000000E+00  0.13542141638E+03  0.13542141638E+03  0.00000000000E+00 0. -1.
         -1   -1    0    0    0  501 -0.00000000000E+00 -0.00000000000E+00 -0.18435300601E+03  0.18435300601E+03  0.00000000000E+00 0.  1.
         23    2    1    2    0    0  0.32521241154E+02 -0.28780937825E+02 -0.32279930995E+01  0.10077170177E+03  0.90876522988E+02 0.  0.
         23    2    1    2    0    0  0.67114337509E+01  0.42464925935E+02  0.51557491520E+02  0.11323801213E+03  0.91194074269E+02 0.  0.
        -13    1    3    3    0    0 -0.10603291388E+01  0.26786433555E+02 -0.20313870010E+02  0.33634664191E+02  0.00000000000E+00 0. -1.
         13    1    3    3    0    0  0.33581570292E+02 -0.55567371380E+02  0.17085876911E+02  0.67137037581E+02  0.00000000000E+00 0.  1.
        -13    1    4    4    0    0 -0.29807786982E+02 -0.30555140833E+01  0.45616434110E+02  0.54577462308E+02  0.00000000000E+00 0. -1.
         13    1    4    4    0    0  0.36519220733E+02  0.45520440019E+02  0.59410574105E+01  0.58660549823E+02  0.00000000000E+00 0.  1.
         21    1    1    2  502  501 -0.39232674905E+02 -0.13683988110E+02 -0.97261088054E+02  0.10576470848E+03  0.00000000000E+00 0. -1.
<scales pt_clust_5="13000.00000" pt_clust_6="13000.00000" pt_clust_7="13000.00000" pt_clust_8="13000.00000" pt_clust_9="41.55062"></scales>
<clustering>
<clus scale="   41.551">  2  9  1 -1</clus>
<clus scale="   90.877">  5  6 -1 -1</clus>
<clus scale="   91.194">  7  8 -1 -1</clus>
<clus scale="   98.577">  2  5  1 -1</clus>
<clus scale="   98.870">  1  5  2 -1</clus>
</clustering>
</event>
<event>
 9    1  0.1713970E-005  0.1166710E+03  0.7546771E-02  0.1249160E+00
          1   -1    0    0  502    0  0.00000000000E+00  0.00000000000E+00  0.34301680133E+03  0.34301680133E+03  0.00000000000E+00 0. -1.
         -1   -1    0    0    0  501 -0.00000000000E+00 -0.00000000000E+00 -0.51346928302E+02  0.51346928302E+02  0.00000000000E+00 0.  1.
         23    2    1    2    0    0 -0.17860517866E+02  0.57376599272E+02  0.11490884580E+03  0.15812170809E+03  0.90484028886E+02 0.  0.
         23    2    1    2    0    0  0.35516872375E+02 -0.75387102531E+02  0.16942490837E+03  0.20997524172E+03  0.91870229718E+02 0.  0.
        -11    1    3    3    0    0  0.36986985631E+02  0.25804253635E+02  0.52993924120E+02  0.69586296103E+02  0.00000000000E+00 0.  1.
         11    1    3    3    0    0 -0.54847503497E+02  0.31572345637E+02  0.61914921685E+02  0.88535411989E+02  0.00000000000E+00 0. -1.
        -13    1    4    4    0    0  0.48450918355E+02 -0.21907592334E+01  0.52965466685E+02  0.71816652502E+02  0.00000000000E+00 0.  1.
         13    1    4    4    0    0 -0.12934045980E+02 -0.73196343298E+02  0.11645944168E+03  0.13815858922E+03  0.00000000000E+00 0. -1.
         21    1    1    2  502  501 -0.17656354509E+02  0.18010503259E+02  0.73361188534E+01  0.26266779818E+02  0.00000000000E+00 0. -1.
<scales pt_clust_5="13000.00000" pt_clust_6="13000.00000" pt_clust_7="13000.00000" pt_clust_8="13000.00000" pt_clust_9="25.22152"></scales>
<clustering>
<clus scale="   25.222">  2  9  1 -1</clus>
<clus scale="   90.484">  5  6 -1 -1</clus>
<clus scale="   91.870">  7  8 -1 -1</clus>
<clus scale="  115.583">  2  5  1 -1</clus>
<clus scale="  116.671">  1  5  2 -1</clus>
</clustering>
</event>
<event>
 9    1  0.1713970E-005  0.1047087E+03  0.7546771E-02  0.1271328E+00
          1   -1    0    0  502    0  0.00000000000E+00  0.00000000000E+00  0.14591210651E+03  0.14591210651E+03  0.00000000000E+00 0. -1.
         -1   -1    0    0    0  501 -0.00000000000E+00 -0.00000000000E+00 -0.19998412365E+03  0.19998412365E+03  0.00000000000E+00 0.  1.
         23    2    1    2    0    0 -0.58167158654E+02 -0.38015007621E+02 -0.73081933632E+02  0.13724855708E+03  0.93100151695E+02 0.  0.
         23    2    1    2    0    0  0.43924729645E+02  0.54122795606E+01  0.85698530043E+02  0.13306225228E+03  0.91665971260E+02 0.  0.
        -11    1    3    3    0    0 -0.45274879067E+02  0.23143668214E+01 -0.82260391114E+02  0.93925198507E+02  0.00000000000E+00 0.  1.
         11    1    3    3    0    0 -0.12892279587E+02 -0.40329374442E+02  0.91784574825E+01  0.43323358568E+02  0.00000000000E+00 0. -1.
        -13    1    4    4    0    0 -0.25573138886E+02 -0.13198530744E+02  0.33563551237E+02  0.44211973694E+02  0.00000000000E+00 0.  1.
         13    1    4    4    0    0  0.69497868531E+02  0.18610810304E+02  0.52134978806E+02  0.88850278590E+02  0.00000000000E+00 0. -1.
         21    1    1    2  502  501  0.14242429009E+02  0.32602728060E+02 -0.66688613544E+02  0.75585420800E+02  0.00000000000E+00 0.  1.
<scales pt_clust_5="13000.00000" pt_clust_6="13000.00000" pt_clust_7="13000.00000" pt_clust_8="13000.00000" pt_clust_9="35.57787"></scales>
<clustering>
<clus scale="   35.578">  2  9  1 -1</clus>
<clus scale="   91.666">  7  8 -1 -1</clus>
<clus scale="   93.100">  5  6 -1 -1</clus>
<clus scale="  103.436">  1  7  2 -1</clus>
<clus scale="  103.436">  1  5  2 -1</clus>
</clustering>
</event>
<event>
 9    1  0.1713970E-005  0.9245932E+02  0.7546771E-02  0.1301572E+00
          1   -1    0    0  502    0  0.00000000000E+00  0.00000000000E+00  0.25223106084E+03  0.25223106084E+03  0.00000000000E+00 0. -1.
         -1   -1    0    0    0  501 -0.00000000000E+00 -0.00000000000E+00 -0.43803218983E+02  0.43803218983E+02  0.00000000000E+00 0.  1.
         23    2    1    2    0    0  0.10699196110E+02  0.96802349244E+00  0.72584495655E+02  0.11700691949E+03  0.91141101220E+02 0.  0.
         23    2    1    2    0    0 -0.45898705455E+01  0.23091086005E+02  0.12441211849E+03  0.15169903116E+03  0.83546128954E+02 0.  0.
        -11    1    3    3    0    0  0.49171028799E+02  0.97452522692E+01  0.27808297132E+02  0.57324178183E+02  0.00000000000E+00 0.  1.
         11    1    3    3    0    0 -0.38471832689E+02 -0.87772287767E+01  0.44776198523E+02  0.59682741305E+02  0.00000000000E+00 0. -1.
        -13    1    4    4    0    0  0.15145408550E+02  0.44905725714E+02  0.39039018308E+02  0.61399939352E+02  0.00000000000E+00 0.  1.
         13    1    4    4    0    0 -0.19735279095E+02 -0.21814639709E+02  0.85373100180E+02  0.90299091806E+02  0.00000000000E+00 0. -1.
         21    1    1    2  502  501 -0.61093255645E+01 -0.24059109498E+02  0.11431227719E+02  0.27328329181E+02  0.00000000000E+00 0. -1.
<scales pt_clust_5="13000.00000" pt_clust_6="13000.00000" pt_clust_7="13000.00000" pt_clust_8="13000.00000" pt_clust_9="24.82266"></scales>
<clustering>
<clus scale="   24.823">  2  9  1 -1</clus>
<clus scale="   83.546">  7  8 -1 -1</clus>
<clus scale="   84.982">  1  7  2 -1</clus>
<clus scale="   91.141">  5  6 -1 -1</clus>
<clus scale="   84.982">  1  5  2 -1</clus>
</clustering>
</event>
<event>
 9    1  0.1713970E-005  0.9514888E+02  0.7546771E-02  0.1291985E+00
          2   -1    0    0  502    0  0.00000000000E+00  0.00000000000E+00  0.41015643059E+03  0.41015643059E+03  0.00000000000E+00 0. -1.
         -2   -1    0    0    0  501 -0.00000000000E+00 -0.00000000000E+00 -0.43289318696E+02  0.43289318696E+02  0.00000000000E+00 0.  1.
         23    2    1    2    0    0 -0.87184295046E+01 -0.81515505116E+01  0.12289692321E+03  0.15284147973E+03  0.90079994455E+02 0.  0.
         23    2    1    2    0    0  0.26798484135E+02 -0.27540242677E+02  0.24054811523E+03  0.26044828541E+03  0.92159046839E+02 0.  0.
        -13    1    4    4    0    0 -0.32812331380E+02 -0.71437986067E+01  0.54430214313E+02  0.63955697004E+02  0.00000000000E+00 0.  1.
         13    1    4    4    0    0  0.59610815515E+02 -0.20396444070E+02  0.18611790092E+03  0.19649258841E+03  0.00000000000E+00 0. -1.
        -13    1    3    3    0    0 -0.16520625580E+02 -0.45532831374E+02  0.90989358819E+02  0.10307877192E+03  0.00000000000E+00 0.  1.
         13    1    3    3    0    0  0.78021960759E+01  0.37381280863E+02  0.31907564394E+02  0.49762707805E+02  0.00000000000E+00 0. -1.
         21    1    1    2  502  501 -0.18080054630E+02  0.35691793188E+02  0.34220734533E+01  0.40155984151E+02  0.00000000000E+00 0.  1.
<scales pt_clust_5="13000.00000" pt_clust_6="13000.00000" pt_clust_7="13000.00000" pt_clust_8="13000.00000" pt_clust_9="40.00990"></scales>
<clustering>
<clus scale="   40.010">  2  9  1 -1</clus>
<clus scale="   90.080">  7  8 -1 -1</clus>
<clus scale="   92.159">  5  6 -1 -1</clus>
<clus scale="   93.137">  2  7  1 -1</clus>
<clus scale="   95.149">  1  5  2 -1</clus>
</clustering>
</event>
<event>
 9    1  0.1713970E-005  0.1427720E+03  0.7546771E-02  0.1210382E+00
          3   -1    0    0  502    0  0.00000000000E+00  0.00000000000E+00  0.91054054566E+03  0.91054054566E+03  0.00000000000E+00 0. -1.
         -3   -1    0    0    0  501 -0.00000000000E+00 -0.00000000000E+00 -0.54552271659E+02  0.54552271659E+02  0.00000000000E+00 0.  1.
         23    2    1    2    0    0 -0.26926901221E+02  0.85903208151E+02  0.15040031848E+03  0.19623665788E+03  0.88227835280E+02 0.  0.
         23    2    1    2    0    0  0.10518391673E+03 -0.65164662170E+02  0.65617385882E+03  0.67400891004E+03  0.91726704260E+02 0.  0.
        -11    1    4    4    0    0 -0.16377421274E+02 -0.14603443945E+02  0.77456870884E+02  0.80504952331E+02  0.00000000000E+00 0.  1.
         11    1    4    4    0    0  0.12156133800E+03 -0.50561218224E+02  0.57871698794E+03  0.59350395771E+03  0.00000000000E+00 0. -1.
        -11    1    3    3    0    0 -0.56403254880E+02  0.59101961648E+02  0.74732193219E+02  0.11072158658E+03  0.00000000000E+00 0.  1.
         11    1    3    3    0    0  0.29476353660E+02  0.26801246503E+02  0.75668125263E+02  0.85515071303E+02  0.00000000000E+00 0. -1.
         21    1    1    2  502  501 -0.78257015510E+02 -0.20738545982E+02  0.49414096701E+02  0.94847249400E+02  0.00000000000E+00 0.  1.
<scales pt_clust_5="13000.00000" pt_clust_6="13000.00000" pt_clust_7="13000.00000" pt_clust_8="13000.00000" pt_clust_9="80.95831"></scales>
<clustering>
<clus scale="   80.958">  2  9  1 -1</clus>
<clus scale="   88.228">  7  8 -1 -1</clus>
<clus scale="   91.727">  5  6 -1 -1</clus>
<clus scale="  140.550">  2  7  1 -1</clus>
<clus scale="  142.772">  1  5  2 -1</clus>
</clustering>
</event>
<event>
 9    1  0.1713970E-005  0.1574481E+03  0.7546771E-02  0.1192790E+00
         -2   -1    0    0    0  501 -0.00000000000E+00  0.00000000000E+00  0.25134952985E+02  0.25134952985E+02  0.00000000000E+00 0.  1.
          2   -1    0    0  502    0  0.00000000000E+00 -0.00000000000E+00 -0.16135983641E+04  0.16135983641E+04  0.00000000000E+00 0. -1.
         23    2    1    2    0    0  0.60345283104E+02  0.14772505536E+03 -0.50094678611E+03  0.53258750299E+03  0.85073619045E+02 0.  0.
         23    2    1    2    0    0 -0.46386990791E+02 -0.74437303506E+02 -0.65490247398E+03  0.66714589136E+03  0.92161406560E+02 0.  0.
        -11    1    3    3    0    0 -0.43309396016E+01  0.41994258321E+02 -0.52721381639E+02  0.67541238157E+02  0.00000000000E+00 0.  1.
         11    1    3    3    0    0  0.64676222706E+02  0.10573079704E+03 -0.44822540447E+03  0.46504626484E+03  0.00000000000E+00 0. -1.
        -13    1    4    4    0    0  0.48688603634E+01 -0.75722977024E+02 -0.40194091781E+03  0.40904055601E+03  0.00000000000E+00 0.  1.
         13    1    4    4    0    0 -0.51255851154E+02  0.12856735183E+01 -0.25296155617E+03  0.25810533535E+03  0.00000000000E+00 0. -1.
         21    1    1    2  502  501 -0.13958292313E+02 -0.73287751851E+02 -0.43261415100E+03  0.43899992271E+03  0.00000000000E+00 0. -1.
<scales pt_clust_5="13000.00000" pt_clust_6="13000.00000" pt_clust_7="13000.00000" pt_clust_8="13000.00000" pt_clust_9="74.60515"></scales>
<clustering>
<clus scale="   74.605">  2  9  1 -1</clus>
<clus scale="   85.074">  5  6 -1 -1</clus>
<clus scale="   92.161">  7  8 -1 -1</clus>
<clus scale="  153.407">  1  5  2 -1</clus>
<clus scale="   74.605">  2  5  1 -1</clus>
</clustering>
</event>
<event>
 9    1  0.1713970E-005  0.2022510E+03  0.7546771E-02  0.1149065E+00
         -1   -1    0    0    0  501 -0.00000000000E+00  0.00000000000E+00  0.68855549719E+02  0.68855549719E+02  0.00000000000E+00 0.  1.
          1   -1    0    0  502    0  0.00000000000E+00 -0.00000000000E+00 -0.12393866950E+04  0.12393866950E+04  0.00000000000E+00 0. -1.
         23    2    1    2    0    0  0.44824581504E+02 -0.16469701889E+03 -0.43085394473E+03  0.47246497873E+03  0.91943913857E+02 0.  0.
         23    2    1    2    0    0 -0.65757529951E+02  0.16330265999E+03 -0.77126226980E+03  0.79785960293E+03  0.10364673488E+03 0.  0.
        -13    1    3    3    0    0  0.42131569636E+02 -0.11809963203E+03 -0.19356864541E+03  0.23063263588E+03  0.00000000000E+00 0. -1.
         13    1    3    3    0    0  0.26930118682E+01 -0.46597386864E+02 -0.23728529932E+03  0.24183234285E+03  0.00000000000E+00 0.  1.
        -13    1    4    4    0    0 -0.58208677356E+02  0.68783557668E+02 -0.20810349733E+03  0.22677410242E+03  0.00000000000E+00 0. -1.
         13    1    4    4    0    0 -0.75488525949E+01  0.94519102322E+02 -0.56315877247E+03  0.57108550051E+03  0.00000000000E+00 0.  1.
         21    1    1    2  502  501  0.20932948447E+02  0.13943589031E+01  0.31585069290E+02  0.37917663028E+02  0.00000000000E+00 0.  1.
<scales pt_clust_5="13000.00000" pt_clust_6="13000.00000" pt_clust_7="13000.00000" pt_clust_8="13000.00000" pt_clust_9="20.97934"></scales>
<clustering>
<clus scale="   20.979">  1  9  2 -1</clus>
<clus scale="   91.944">  5  6 -1 -1</clus>
<clus scale="  103.647">  7  8 -1 -1</clus>
<clus scale="  196.511">  1  5  2 -1</clus>
<clus scale="  202.251">  2  5  1 -1</clus>
</clustering>
</event>
<event>
 9    1  0.1713970E-005  0.1120046E+03  0.7546771E-02  0.1261080E+00
         -1   -1    0    0    0  501 -0.00000000000E+00  0.00000000000E+00  0.31574571746E+03  0.31574571746E+03  0.00000000000E+00 0.  1.
          1   -1    0    0  502    0  0.00000000000E+00 -0.00000000000E+00 -0.18204990432E+03  0.18204990432E+03  0.00000000000E+00 0. -1.
         23    2    1    2    0    0  0.15598709188E+02  0.94534300127E+02  0.47772077890E+02  0.14146387420E+03  0.92465142889E+02 0.  0.
         23    2    1    2    0    0  0.56468126709E+02 -0.35281656928E+02 -0.10196701324E+03  0.14655224922E+03  0.81528187234E+02 0.  0.
        -11    1    4    4    0    0 -0.56868004357E+01 -0.42053307098E+02 -0.46746958700E+02  0.63135556422E+02  0.00000000000E+00 0.  1.
         11    1    4    4    0    0  0.62154927145E+02  0.67716501692E+01 -0.55220054536E+02  0.83416692798E+02  0.00000000000E+00 0. -1.
        -13    1    3    3    0    0 -0.31187020624E+02  0.47317793346E+02  0.49096350366E+02  0.74980367042E+02  0.00000000000E+00 0.  1.
         13    1    3    3    0    0  0.46785729812E+02  0.47216506782E+02 -0.13242724763E+01  0.66483507160E+02  0.00000000000E+00 0. -1.
         21    1    1    2  502  501 -0.72066835898E+02 -0.59252643199E+02  0.18789074848E+03  0.20977949835E+03  0.00000000000E+00 0.  1.
<scales pt_clust_5="13000.00000" pt_clust_6="13000.00000" pt_clust_7="13000.00000" pt_clust_8="13000.00000" pt_clust_9="93.29793"></scales>
<clustering>
<clus scale="   81.528">  5  6 -1 -1</clus>
<clus scale="   92.465">  7  8 -1 -1</clus>
<clus scale="   93.298">  1  9  2 -1</clus>
<clus scale="  103.160">  2  5  1 -1</clus>
<clus scale="  103.160">  2  5  1 -1</clus>
</clustering>
</event>
<event>
 9    1  0.1713970E-005  0.9511496E+02  0.7546771E-02  0.1293138E+00
         -1   -1    0    0    0  501 -0.00000000000E+00  0.00000000000E+00  0.25031492970E+03  0.25031492970E+03  0.00000000000E+00 0.  1.
          1   -1    0    0  502    0  0.00000000000E+00 -0.00000000000E+00 -0.55842275262E+02  0.55842275262E+02  0.00000000000E+00 0. -1.
         23    2    1    2    0    0 -0.56449246989E+01  0.41409440854E+02  0.64545177183E+02  0.11885033253E+03  0.90624029256E+02 0.  0.
         23    2    1    2    0    0  0.49686359488E+01 -0.18132959901E+02  0.45214135033E+02  0.99451296156E+02  0.86560676535E+02 0.  0.
        -11    1    4    4    0    0  0.31739627601E+02 -0.39319399978E+02  0.40959758273E+02  0.65047067364E+02  0.00000000000E+00 0.  1.
         11    1    4    4    0    0 -0.26770991652E+02  0.21186440076E+02  0.42543767597E+01  0.34404228792E+02  0.00000000000E+00 0. -1.
        -13    1    3    3    0    0 -0.40228220182E+02  0.29421426979E+02  0.65415094750E+02  0.82237854335E+02  0.00000000000E+00 0.  1.
         13    1    3    3    0    0  0.34583295483E+02  0.11988013874E+02 -0.86991756727E+00  0.36612478196E+02  0.00000000000E+00 0. -1.
         21    1    1    2  502  501  0.67628875004E+00 -0.23276480952E+02  0.84713342220E+02  0.87855576272E+02  0.00000000000E+00 0.  1.
<scales pt_clust_5="13000.00000" pt_clust_6="13000.00000" pt_clust_7="13000.00000" pt_clust_8="13000.00000" pt_clust_9="23.28630"></scales>
<clustering>
<clus scale="   23.286">  1  9  2 -1</clus>
<clus scale="   86.561">  5  6 -1 -1</clus>
<clus scale="   90.624">  7  8 -1 -1</clus>
<clus scale="   91.252">  2  5  1 -1</clus>
<clus scale="   91.252">  2  5  1 -1</clus>
</clustering>
</event>
<event>
 9    1  0.1713970E-005  0.1352247E+03  0.7546771E-02  0.1227301E+00
          1   -1    0    0  502    0  0.00000000000E+00  0.00000000000E+00  0.45823211372E+03  0.45823211372E+03  0.00000000000E+00 0. -1.
         -1   -1    0    0    0  501 -0.00000000000E+00 -0.00000000000E+00 -0.14470421180E+03  0.14470421180E+03  0.00000000000E+00 0.  1.
         23    2    1    2    0    0 -0.10983861725E+02  0.83999915225E+02  0.13465914940E+03  0.19567443929E+03  0.11392439905E+03 0.  0.
         23    2    1    2    0    0  0.20305282410E+02 -0.65807446344E+02  0.28104145294E+03  0.30306440295E+03  0.90115534599E+02 0.  0.
        -11    1    4    4    0    0  0.24152793159E+02  0.11349587754E+02  0.13739049753E+03  0.13995827726E+03  0.00000000000E+00 0.  1.
         11    1    4    4    0    0 -0.38475107498E+01 -0.77157034098E+02  0.14365095541E+03  0.16310612570E+03  0.00000000000E+00 0. -1.
        -13    1    3    3    0    0 -0.43201916751E+02  0.93475731057E+02  0.12232479880E+03  0.15989832491E+03  0.00000000000E+00 0.  1.
         13    1    3    3    0    0  0.32218055026E+02 -0.94758158324E+01  0.12334350595E+02  0.35776114377E+02  0.00000000000E+00 0. -1.
         21    1    1    2  502  501 -0.93214206843E+01 -0.18192468881E+02 -0.10217270043E+03  0.10419748327E+03  0.00000000000E+00 0.  1.
<scales pt_clust_5="13000.00000" pt_clust_6="13000.00000" pt_clust_7="13000.00000" pt_clust_8="13000.00000" pt_clust_9="20.44150"></scales>
<clustering>
<clus scale="   20.441">  2  9  1 -1</clus>
<clus scale="   90.116">  5  6 -1 -1</clus>
<clus scale="  113.924">  7  8 -1 -1</clus>
<clus scale="  115.878">  1  5  2 -1</clus>
<clus scale="  115.878">  1  5  2 -1</clus>
</clustering>
</event>
<event>
 9    1  0.1713970E-005  0.1781607E+03  0.7546771E-02  0.1198597E+00
         -1   -1    0    0    0  501 -0.00000000000E+00  0.00000000000E+00  0.22873495125E+03  0.22873495125E+03  0.00000000000E+00 0.  1.
          1   -1    0    0  502    0  0.00000000000E+00 -0.00000000000E+00 -0.22297429074E+03  0.22297429074E+03  0.00000000000E+00 0. -1.
         23    2    1    2    0    0  0.16005459106E+03 -0.38648126121E+02 -0.47146149901E+02  0.19428977168E+03  0.91731162419E+02 0.  0.
         23    2    1    2    0    0 -0.14844872567E+02  0.96454372359E+01 -0.15115440208E+02  0.94465351344E+02  0.91552287633E+02 0.  0.
        -13    1    3    3    0    0  0.15209399133E+02 -0.40522775569E+02 -0.59621378322E+01  0.43691741203E+02  0.00000000000E+00 0. -1.
         13    1    3    3    0    0  0.14484519192E+03  0.18746494483E+01 -0.41184012069E+02  0.15059803048E+03  0.00000000000E+00 0.  1.
        -13    1    4    4    0    0 -0.60793991694E+01  0.38999147259E+02 -0.39100401126E+02  0.55558383250E+02  0.00000000000E+00 0. -1.
         13    1    4    4    0    0 -0.87654733978E+01 -0.29353710023E+02  0.23984960917E+02  0.38906968093E+02  0.00000000000E+00 0.  1.
         21    1    1    2  502  501 -0.14520971849E+03  0.29002688885E+02  0.68022250626E+02  0.16295411896E+03  0.00000000000E+00 0. -1.
<scales pt_clust_5="13000.00000" pt_clust_6="13000.00000" pt_clust_7="13000.00000" pt_clust_8="13000.00000" pt_clust_9="152.73058"></scales>
<clustering>
<clus scale="   91.552">  7  8 -1 -1</clus>
<clus scale="   91.731">  5  6 -1 -1</clus>
<clus scale="   93.248">  2  7  1 -1</clus>
<clus scale="  152.731">  1  9  2 -1</clus>
<clus scale="   93.248">  2  5  1 -1</clus>
</clustering>
</event>
<event>
 9    1  0.1713970E-005  0.1144451E+03  0.7546771E-02  0.1253530E+00
          1   -1    0    0  502    0  0.00000000000E+00  0.00000000000E+00  0.16371656812E+03  0.16371656812E+03  0.00000000000E+00 0. -1.
         -1   -1    0    0    0  501 -0.00000000000E+00 -0.00000000000E+00 -0.29144182886E+03  0.29144182886E+03  0.00000000000E+00 0.  1.
         23    2    1    2    0    0 -0.75758939925E+02 -0.53861582257E+02 -0.12096284272E+03  0.17809687959E+03  0.91902133702E+02 0.  0.
         23    2    1    2    0    0  0.66901921214E+02 -0.11532968211E+02  0.10089749337E+03  0.15078582482E+03  0.89146981880E+02 0.  0.
        -11    1    4    4    0    0  0.59127610368E+01 -0.24787037721E+02 -0.67432627868E+01  0.26359620162E+02  0.00000000000E+00 0.  1.
         11    1    4    4    0    0  0.60989160177E+02  0.13254069510E+02  0.10764075616E+03  0.12442620465E+03  0.00000000000E+00 0. -1.
        -13    1    3    3    0    0 -0.96217807607E+02 -0.33608675913E+02 -0.95168780562E+02  0.13944355988E+03  0.00000000000E+00 0.  1.
         13    1    3    3    0    0  0.20458867683E+02 -0.20252906344E+02 -0.25794062157E+02  0.38653319712E+02  0.00000000000E+00 0. -1.
         21    1    1    2  502  501  0.88570187110E+01  0.65394550468E+02 -0.10765991140E+03  0.12627569257E+03  0.00000000000E+00 0.  1.
<scales pt_clust_5="13000.00000" pt_clust_6="13000.00000" pt_clust_7="13000.00000" pt_clust_8="13000.00000" pt_clust_9="65.99162"></scales>
<clustering>
<clus scale="   65.992">  2  9  1 -1</clus>
<clus scale="   89.147">  5  6 -1 -1</clus>
<clus scale="   91.902">  7  8 -1 -1</clus>
<clus scale="  112.245">  1  5  2 -1</clus>
<clus scale="  112.245">  1  5  2 -1</clus>
</clustering>
</event>
<event>
 9    1  0.1713970E-005  0.1581761E+03  0.7546771E-02  0.1197356E+00
         -3   -1    0    0    0  501 -0.00000000000E+00  0.00000000000E+00  0.14119986580E+03  0.14119986580E+03  0.00000000000E+00 0.  1.
          3   -1    0    0  502    0  0.00000000000E+00 -0.00000000000E+00 -0.37907094428E+03  0.37907094428E+03  0.00000000000E+00 0. -1.
         23    2    1    2    0    0 -0.10320006275E+03  0.38913570265E+02  0.10982339658E+02  0.14451576048E+03  0.92734429109E+02 0.  0.
         23    2    1    2    0    0  0.97349333353E+02 -0.16106363490E+02 -0.28921425736E+03  0.32902821515E+03  0.12197693247E+03 0.  0.
        -13    1    3    3    0    0 -0.44912952706E+02  0.45946964559E+02 -0.31974969574E+02  0.71768346450E+02  0.00000000000E+00 0. -1.
         13    1    3    3    0    0 -0.58287110040E+02 -0.70333942939E+01  0.42957309231E+02  0.72747414033E+02  0.00000000000E+00 0.  1.
        -13    1    4    4    0    0  0.12500937257E+03 -0.24759718912E+02 -0.22516601599E+03  0.25872789117E+03  0.00000000000E+00 0. -1.
         13    1    4    4    0    0 -0.27660039216E+02  0.86533554226E+01 -0.64048241366E+02  0.70300323979E+02  0.00000000000E+00 0.  1.
         21    1    1    2  502  501  0.58507293931E+01 -0.22807206775E+02  0.40360839215E+02  0.46726834447E+02  0.00000000000E+00 0. -1.
<scales pt_clust_5="13000.00000" pt_clust_6="13000.00000" pt_clust_7="13000.00000" pt_clust_8="13000.00000" pt_clust_9="23.54569"></scales>
<clustering>
<clus scale="   23.546">  1  9  2 -1</clus>
<clus scale="   92.734">  5  6 -1 -1</clus>
<clus scale="  121.977">  7  8 -1 -1</clus>
<clus scale="  136.898">  1  5  2 -1</clus>
<clus scale="  158.176">  2  5  1 -1</clus>
</clustering>
</event>
<event>
 9    1  0.1713970E-005  0.9491928E+02  0.7546771E-02  0.1291898E+00
         -1   -1    0    0    0  501 -0.00000000000E+00  0.00000000000E+00  0.18865115276E+03  0.18865115276E+03  0.00000000000E+00 0.  1.
          1   -1    0    0  502    0  0.00000000000E+00 -0.00000000000E+00 -0.74353755722E+02  0.74353755722E+02  0.00000000000E+00 0. -1.
         23    2    1    2    0    0  0.17642966055E+02 -0.20853056180E+02  0.85214289808E+02  0.12705100225E+03  0.90190674578E+02 0.  0.
         23    2    1    2    0    0 -0.36170301809E+02 -0.80250724204E+01  0.19578429959E+02  0.10035127471E+03  0.91183172216E+02 0.  0.
        -13    1    4    4    0    0 -0.61043849455E+02  0.98058394271E+01 -0.36438630667E+01  0.61933704727E+02  0.00000000000E+00 0.  1.
         13    1    4    4    0    0  0.24873547646E+02 -0.17830911848E+02  0.23222293026E+02  0.38417569980E+02  0.00000000000E+00 0. -1.
        -13    1    3    3    0    0  0.31040424855E+02  0.27167650637E+02  0.55018278418E+02  0.68764817868E+02  0.00000000000E+00 0.  1.
         13    1    3    3    0    0 -0.13397458800E+02 -0.48020706817E+02  0.30196011391E+02  0.58286184378E+02  0.00000000000E+00 0. -1.
         21    1    1    2  502  501  0.18527335754E+02  0.28878128600E+02  0.95046772653E+01  0.35602631525E+02  0.00000000000E+00 0.  1.
<scales pt_clust_5="13000.00000" pt_clust_6="13000.00000" pt_clust_7="13000.00000" pt_clust_8="13000.00000" pt_clust_9="34.31047"></scales>
<clustering>
<clus scale="   34.310">  2  9  1 -1</clus>
<clus scale="   90.191">  7  8 -1 -1</clus>
<clus scale="   91.183">  5  6 -1 -1</clus>
<clus scale="   93.966">  1  7  2 -1</clus>
<clus scale="   34.310">  2  5  1 -1</clus>
</clustering>
</event>
<event>
 9    1  0.1713970E-005  0.2043368E+03  0.7546771E-02  0.1146452E+00
         -2   -1    0    0    0  501 -0.00000000000E+00  0.00000000000E+00  0.39828885800E+03  0.39828885800E+03  0.00000000000E+00 0.  1.
          2   -1    0    0  502    0  0.00000000000E+00 -0.00000000000E+00 -0.23927921239E+03  0.23927921239E+03  0.00000000000E+00 0. -1.
         23    2    1    2    0    0  0.17187565045E+03  0.25073914317E+02  0.21228044371E+03  0.29013325206E+03  0.94574715286E+02 0.  0.
         23    2    1    2    0    0 -0.18187755385E+03  0.29242820164E+02 -0.13708908516E+03  0.24705627999E+03  0.91152625236E+02 0.  0.
        -13    1    3    3    0    0  0.22003627724E+02 -0.25177180264E+02  0.13246873352E+02  0.35965673810E+02  0.00000000000E+00 0. -1.
         13    1    3    3    0    0  0.14987202272E+03  0.50251094581E+02  0.19903357036E+03  0.25416757825E+03  0.00000000000E+00 0.  1.
        -13    1    4    4    0    0 -0.11090777259E+03 -0.17648714206E+02 -0.11143986656E+03  0.15821142498E+03  0.00000000000E+00 0. -1.
         13    1    4    4    0    0 -0.70969781252E+02  0.46891534370E+02 -0.25649218594E+02  0.88844855006E+02  0.00000000000E+00 0.  1.
         21    1    1    2  502  501  0.10001903400E+02 -0.54316734481E+02  0.83818287053E+02  0.10037853835E+03  0.00000000000E+00 0.  1.
<scales pt_clust_5="13000.00000" pt_clust_6="13000.00000" pt_clust_7="13000.00000" pt_clust_8="13000.00000" pt_clust_9="55.22993"></scales>
<clustering>
<clus scale="   55.230">  1  9  2 -1</clus>
<clus scale="   91.153">  7  8 -1 -1</clus>
<clus scale="   94.575">  5  6 -1 -1</clus>
<clus scale="  202.776">  2  7  1 -1</clus>
<clus scale="  202.776">  2  5  1 -1</clus>
</clustering>
</event>
<event>
 9    1  0.1713970E-005  0.2219459E+03  0.7546771E-02  0.1132803E+00
         -1   -1    0    0    0  501 -0.00000000000E+00  0.00000000000E+00  0.16659351520E+03  0.16659351520E+03  0.00000000000E+00 0.  1.
          1   -1    0    0  502    0  0.00000000000E+00 -0.00000000000E+00 -0.69911685027E+03  0.69911685027E+03  0.00000000000E+00 0. -1.
         23    2    1    2    0    0 -0.15013409271E+03 -0.45244277558E+01  0.44719509952E+02  0.18307829409E+03  0.94642014761E+02 0.  0.
         23    2    1    2    0    0  0.20770549395E+03 -0.38988444510E+02 -0.56438463193E+03  0.60933016187E+03  0.89953112141E+02 0.  0.
        -13    1    3    3    0    0 -0.15166537356E+03  0.16568992483E+02  0.51247516309E+02  0.16094478860E+03  0.00000000000E+00 0.  1.
         13    1    3    3    0    0  0.15312808540E+01 -0.21093420239E+02 -0.65280063571E+01  0.22133505494E+02  0.00000000000E+00 0. -1.
        -13    1    4    4    0    0  0.16763865925E+03 -0.35774427062E+02 -0.52794748612E+03  0.55507754216E+03  0.00000000000E+00 0. -1.
         13    1    4    4    0    0  0.40066834698E+02 -0.32140174474E+01 -0.36437145809E+02  0.54252619712E+02  0.00000000000E+00 0.  1.
         21    1    1    2  502  501 -0.57571401242E+02  0.43512872266E+02 -0.12858213093E+02  0.73301909509E+02  0.00000000000E+00 0.  1.
<scales pt_clust_5="13000.00000" pt_clust_6="13000.00000" pt_clust_7="13000.00000" pt_clust_8="13000.00000" pt_clust_9="72.16534"></scales>
<clustering>
<clus scale="   72.165">  1  9  2 -1</clus>
<clus scale="   89.953">  7  8 -1 -1</clus>
<clus scale="   94.642">  5  6 -1 -1</clus>
<clus scale="  219.987">  2  7  1 -1</clus>
<clus scale="  219.987">  2  5  1 -1</clus>
</clustering>
</event>
<event>
 9    1  0.1713970E-005  0.1288716E+03  0.7546771E-02  0.1229419E+00
          2   -1    0    0  502    0  0.00000000000E+00  0.00000000000E+00  0.37436502312E+03  0.37436502312E+03  0.00000000000E+00 0. -1.
         -2   -1    0    0    0  501 -0.00000000000E+00 -0.00000000000E+00 -0.29486992504E+03  0.29486992504E+03  0.00000000000E+00 0.  1.
         23    2    1    2    0    0 -0.98348676862E+02 -0.55234299908E+02 -0.24926729021E+03  0.28839537055E+03  0.91183428621E+02 0.  0.
         23    2    1    2    0    0  0.81120670680E+02  0.36658419106E+02  0.33144134478E+03  0.35536322873E+03  0.92223947014E+02 0.  0.
        -13    1    3    3    0    0 -0.40765284543E+02  0.10617157826E+02 -0.28315987665E+02  0.50757537585E+02  0.00000000000E+00 0. -1.
         13    1    3    3    0    0 -0.57583392319E+02 -0.65851457734E+02 -0.22095130255E+03  0.23763783296E+03  0.00000000000E+00 0.  1.
        -13    1    4    4    0    0  0.42538399792E+02  0.29834642496E+02  0.30178239054E+03  0.30622252136E+03  0.00000000000E+00 0. -1.
         13    1    4    4    0    0  0.38582270888E+02  0.68237766098E+01  0.29658954237E+02  0.49140707368E+02  0.00000000000E+00 0.  1.
         21    1    1    2  502  501  0.17228006182E+02  0.18575880802E+02 -0.26789564921E+01  0.25476348884E+02  0.00000000000E+00 0.  1.
<scales pt_clust_5="13000.00000" pt_clust_6="13000.00000" pt_clust_7="13000.00000" pt_clust_8="13000.00000" pt_clust_9="25.33510"></scales>
<clustering>
<clus scale="   25.335">  2  9  1 -1</clus>
<clus scale="   91.183">  5  6 -1 -1</clus>
<clus scale="   92.224">  7  8 -1 -1</clus>
<clus scale="  128.129">  2  5  1 -1</clus>
<clus scale="  128.872">  1  5  2 -1</clus>
</clustering>
</event>
<event>
 9    1  0.1713970E-005  0.1033518E+03  0.7546771E-02  0.1275706E+00
         -1   -1    0    0    0  501 -0.00000000000E+00  0.00000000000E+00  0.22925483142E+02  0.22925483142E+02  0.00000000000E+00 0.  1.
          1   -1    0    0  502    0  0.00000000000E+00 -0.00000000000E+00 -0.74991544318E+03  0.74991544318E+03  0.00000000000E+00 0. -1.
         23    2    1    2    0    0 -0.85093802079E+01  0.23676259294E+02 -0.28004407267E+03  0.29726312775E+03  0.96476472134E+02 0.  0.
         23    2    1    2    0    0  0.26807254538E+02 -0.37002027191E+02 -0.44019828910E+03  0.45195750269E+03  0.91669360208E+02 0.  0.
        -11    1    3    3    0    0  0.31325944480E+02  0.44455267010E+02 -0.16632627626E+03  0.17499147332E+03  0.00000000000E+00 0.  1.
         11    1    3    3    0    0 -0.39835324688E+02 -0.20779007717E+02 -0.11371779642E+03  0.12227165443E+03  0.00000000000E+00 0. -1.
        -13    1    4    4    0    0  0.38184450509E+02  0.20356823532E+02 -0.16197855467E+03  0.16765889388E+03  0.00000000000E+00 0.  1.
         13    1    4    4    0    0 -0.11377195972E+02 -0.57358850724E+02 -0.27821973443E+03  0.28429860881E+03  0.00000000000E+00 0. -1.
         21    1    1    2  502  501 -0.18297874330E+02  0.13325767898E+02 -0.67475982642E+01  0.23620295878E+02  0.00000000000E+00 0.  1.
<scales pt_clust_5="13000.00000" pt_clust_6="13000.00000" pt_clust_7="13000.00000" pt_clust_8="13000.00000" pt_clust_9="22.63600"></scales>
<clustering>
<clus scale="   22.636">  1  9  2 -1</clus>
<clus scale="   91.669">  7  8 -1 -1</clus>
<clus scale="   96.476">  5  6 -1 -1</clus>
<clus scale="   98.879">  2  7  1 -1</clus>
<clus scale="   98.879">  2  5  1 -1</clus>
</clustering>
</event>
<event>
 9    1  0.1713970E-005  0.9972182E+02  0.7546771E-02  0.1282461E+00
         -1   -1    0    0    0  501 -0.00000000000E+00  0.00000000000E+00  0.46339835861E+02  0.46339835861E+02  0.00000000000E+00 0.  1.
          1   -1    0    0  502    0  0.00000000000E+00 -0.00000000000E+00 -0.40112810492E+03  0.40112810492E+03  0.00000000000E+00 0. -1.
         23    2    1    2    0    0  0.48263781727E+02  0.32000477832E+02 -0.11109261962E+03  0.15445233285E+03  0.90335650661E+02 0.  0.
         23    2    1    2    0    0 -0.26845238741E+02  0.21777183055E+02 -0.18746771521E+03  0.21231634287E+03  0.93483542179E+02 0.  0.
        -11    1    3    3    0    0  0.47916732755E+02 -0.12830979683E+02 -0.94349901274E+02  0.10659526813E+03  0.00000000000E+00 0.  1.
         11    1    3    3    0    0  0.34704897181E+00  0.44831457515E+02 -0.16742718350E+02  0.47857064720E+02  0.00000000000E+00 0. -1.
        -13    1    4    4    0    0 -0.50296808444E+02  0.23551142944E+02 -0.17884034340E+03  0.18726530298E+03  0.00000000000E+00 0. -1.
         13    1    4    4    0    0  0.23451569702E+02 -0.17739598894E+01 -0.86273718144E+01  0.25051039891E+02  0.00000000000E+00 0.  1.
         21    1    1    2  502  501 -0.21418542985E+02 -0.53777660887E+02 -0.56227934222E+02  0.80699265058E+02  0.00000000000E+00 0. -1.
<scales pt_clust_5="13000.00000" pt_clust_6="13000.00000" pt_clust_7="13000.00000" pt_clust_8="13000.00000" pt_clust_9="57.88602"></scales>
<clustering>
<clus scale="   57.886">  1  9  2 -1</clus>
<clus scale="   90.336">  5  6 -1 -1</clus>
<clus scale="   93.484">  7  8 -1 -1</clus>
<clus scale="   96.777">  1  5  2 -1</clus>
<clus scale="   99.722">  2  5  1 -1</clus>
</clustering>
</event>
<event>
 9    1  0.1713970E-005  0.1144190E+03  0.7546771E-02  0.1254331E+00
          1   -1    0    0  502    0  0.00000000000E+00  0.00000000000E+00  0.67159686731E+03  0.67159686731E+03  0.00000000000E+00 0. -1.
         -1   -1    0    0    0  501 -0.00000000000E+00 -0.00000000000E+00 -0.26419508514E+02  0.26419508514E+02  0.00000000000E+00 0.  1.
         23    2    1    2    0    0 -0.35470634044E+01 -0.62132122153E+02  0.16287959639E+03  0.19700148502E+03  0.91688821113E+02 0.  0.
         23    2    1    2    0    0 -0.15589254211E+02  0.70069448227E+02  0.43557847442E+03  0.44990822130E+03  0.86810412981E+02 0.  0.
        -11    1    4    4    0    0  0.21266739117E+02  0.70731202754E+02  0.24900162086E+03  0.25972482444E+03  0.00000000000E+00 0.  1.
         11    1    4    4    0    0 -0.36855993327E+02 -0.66175452703E+00  0.18657685355E+03  0.19018339687E+03  0.00000000000E+00 0. -1.
        -13    1    3    3    0    0 -0.39420460551E+02 -0.43109605312E+02  0.13678018529E+03  0.14873207411E+03  0.00000000000E+00 0. -1.
         13    1    3    3    0    0  0.35873397146E+02 -0.19022516841E+02  0.26099411096E+02  0.48269410907E+02  0.00000000000E+00 0.  1.
         21    1    1    2  502  501  0.19136317615E+02 -0.79373260741E+01  0.46719287988E+02  0.51106669498E+02  0.00000000000E+00 0. -1.
<scales pt_clust_5="13000.00000" pt_clust_6="13000.00000" pt_clust_7="13000.00000" pt_clust_8="13000.00000" pt_clust_9="20.71714"></scales>
<clustering>
<clus scale="   20.717">  2  9  1 -1</clus>
<clus scale="   86.810">  5  6 -1 -1</clus>
<clus scale="   91.689">  7  8 -1 -1</clus>
<clus scale="  110.548">  1  5  2 -1</clus>
<clus scale="  110.548">  1  5  2 -1</clus>
</clustering>
</event>
<event>
 9    1  0.1713970E-005  0.1420276E+03  0.7546771E-02  0.1211749E+00
          1   -1    0    0  502    0  0.00000000000E+00  0.00000000000E+00  0.14437252467E+03  0.14437252467E+03  0.00000000000E+00 0. -1.
         -1   -1    0    0    0  501 -0.00000000000E+00 -0.00000000000E+00 -0.19278550098E+03  0.19278550098E+03  0.00000000000E+00 0.  1.
         23    2    1    2    0    0  0.77735236111E+01  0.11560251991E+03 -0.32944793284E+02  0.14997820069E+03  0.89351726337E+02 0.  0.
         23    2    1    2    0    0 -0.43836663138E+02 -0.92261154689E+02  0.57662164338E+01  0.13926042301E+03  0.94479852171E+02 0.  0.
        -11    1    4    4    0    0 -0.71516946188E+02 -0.82241449175E+02  0.10308209713E+02  0.10947414645E+03  0.00000000000E+00 0.  1.
         11    1    4    4    0    0  0.27680283050E+02 -0.10019705514E+02 -0.45419932788E+01  0.29786276559E+02  0.00000000000E+00 0. -1.
        -13    1    3    3    0    0  0.33720408001E+02  0.29721640922E+02  0.16083988941E+02  0.47740303258E+02  0.00000000000E+00 0. -1.
         13    1    3    3    0    0 -0.25946884390E+02  0.85880878989E+02 -0.49028782226E+02  0.10223789744E+03  0.00000000000E+00 0.  1.
         21    1    1    2  502  501  0.36063139527E+02 -0.23341365222E+02 -0.21234399460E+02  0.47919401952E+02  0.00000000000E+00 0. -1.
<scales pt_clust_5="13000.00000" pt_clust_6="13000.00000" pt_clust_7="13000.00000" pt_clust_8="13000.00000" pt_clust_9="42.95776"></scales>
<clustering>
<clus scale="   42.958">  2  9  1 -1</clus>
<clus scale="   89.352">  7  8 -1 -1</clus>
<clus scale="   94.480">  5  6 -1 -1</clus>
<clus scale="  138.669">  2  7  1 -1</clus>
<clus scale="  142.028">  1  5  2 -1</clus>
</clustering>
</event>
<event>
 9    1  0.1713970E-005  0.9522587E+02  0.7546771E-02  0.1291447E+00
          1   -1    0    0  502    0  0.00000000000E+00  0.00000000000E+00  0.23582916493E+03  0.23582916493E+03  0.00000000000E+00 0. -1.
         -1   -1    0    0    0  501 -0.00000000000E+00 -0.00000000000E+00 -0.70190319778E+02  0.70190319778E+02  0.00000000000E+00 0.  1.
         23    2    1    2    0    0  0.34375128825E+02  0.12079736816E+02  0.93853756348E+02  0.13700007709E+03  0.92913529796E+02 0.  0.
         23    2    1    2    0    0 -0.45271364632E+01 -0.78553199129E+01  0.94059596420E+02  0.13153738478E+03  0.91502321829E+02 0.  0.
        -11    1    4    4    0    0 -0.12720846656E+02  0.18782443875E+02  0.10042081661E+03  0.10295115612E+03  0.00000000000E+00 0. -1.
         11    1    4    4    0    0  0.81937101929E+01 -0.26637763788E+02 -0.63612201946E+01  0.28586228655E+02  0.00000000000E+00 0.  1.
        -13    1    3    3    0    0 -0.34376671539E+01 -0.34521551045E+02  0.14724338801E+02  0.37687679620E+02  0.00000000000E+00 0.  1.
         13    1    3    3    0    0  0.37812795979E+02  0.46601287862E+02  0.79129417547E+02  0.99312397471E+02  0.00000000000E+00 0. -1.
         21    1    1    2  502  501 -0.29847992362E+02 -0.42244169034E+01 -0.22274507618E+02  0.37482022836E+02  0.00000000000E+00 0.  1.
<scales pt_clust_5="13000.00000" pt_clust_6="13000.00000" pt_clust_7="13000.00000" pt_clust_8="13000.00000" pt_clust_9="30.14545"></scales>
<clustering>
<clus scale="   30.145">  2  9  1 -1</clus>
<clus scale="   91.502">  5  6 -1 -1</clus>
<clus scale="   92.914">  7  8 -1 -1</clus>
<clus scale="   93.849">  1  5  2 -1</clus>
<clus scale="   93.849">  1  5  2 -1</clus>
</clustering>
</event>
<event>
 9    1  0.1713970E-005  0.1026234E+03  0.7546771E-02  0.1276000E+00
          2   -1    0    0  502    0  0.00000000000E+00  0.00000000000E+00  0.63023961420E+03  0.63023961420E+03  0.00000000000E+00 0. -1.
         -2   -1    0    0    0  501 -0.00000000000E+00 -0.00000000000E+00 -0.55537900938E+02  0.55537900938E+02  0.00000000000E+00 0.  1.
         23    2    1    2    0    0  0.32770683718E+02 -0.34014433134E+01  0.13333677848E+03  0.16521811463E+03  0.91830503532E+02 0.  0.
         23    2    1    2    0    0 -0.32020285360E+02 -0.35305165255E+02  0.46389927441E+03  0.47576474561E+03  0.94222094015E+02 0.  0.
        -11    1    3    3    0    0 -0.15556482898E+02  0.16342337336E+02  0.10170565740E+03  0.10417829379E+03  0.00000000000E+00 0. -1.
         11    1    3    3    0    0  0.48327166617E+02 -0.19743780650E+02  0.31631121079E+02  0.61039820841E+02  0.00000000000E+00 0.  1.
        -13    1    4    4    0    0  0.24270999699E+02 -0.39618484858E+02  0.15760110032E+03  0.16430706798E+03  0.00000000000E+00 0.  1.
         13    1    4    4    0    0 -0.56291285059E+02  0.43133196030E+01  0.30629817410E+03  0.31145767763E+03  0.00000000000E+00 0. -1.
         21    1    1    2  502  501 -0.75039835843E+00  0.38706608568E+02 -0.22534339629E+02  0.44794654894E+02  0.00000000000E+00 0.  1.
<scales pt_clust_5="13000.00000" pt_clust_6="13000.00000" pt_clust_7="13000.00000" pt_clust_8="13000.00000" pt_clust_9="38.71388"></scales>
<clustering>
<clus scale="   38.714">  2  9  1 -1</clus>
<clus scale="   91.831">  5  6 -1 -1</clus>
<clus scale="   94.222">  7  8 -1 -1</clus>
<clus scale="  100.432">  2  5  1 -1</clus>
<clus scale="  102.623">  1  5  2 -1</clus>
</clustering>
</event>
<event>
 9    1  0.1713970E-005  0.1192308E+03  0.7546771E-02  0.1245208E+00
          2   -1    0    0  502    0  0.00000000000E+00  0.00000000000E+00  0.43344296383E+03  0.43344296383E+03  0.00000000000E+00 0. -1.
         -2   -1    0    0    0  501 -0.00000000000E+00 -0.00000000000E+00 -0.41449253961E+02  0.41449253961E+02  0.00000000000E+00 0.  1.
         23    2    1    2    0    0 -0.45995088551E+02  0.54596256916E+02  0.16528429882E+03  0.20180758219E+03  0.91165242030E+02 0.  0.
         23    2    1    2    0    0  0.72040270681E+02 -0.43982511259E+02  0.16626415379E+03  0.20641656052E+03  0.88542451549E+02 0.  0.
        -11    1    3    3    0    0 -0.18902216018E+02 -0.24895073321E+02  0.53943898701E+02  0.62345831080E+02  0.00000000000E+00 0.  1.
         11    1    3    3    0    0 -0.27092872532E+02  0.79491330237E+02  0.11134040012E+03  0.13946175111E+03  0.00000000000E+00 0. -1.
        -13    1    4    4    0    0  0.74023795828E+02  0.29669326292E+01  0.11572304792E+03  0.13740505398E+03  0.00000000000E+00 0. -1.
         13    1    4    4    0    0 -0.19835251475E+01 -0.46949443888E+02  0.50541105867E+02  0.69011506545E+02  0.00000000000E+00 0.  1.
         21    1    1    2  502  501 -0.26045182130E+02 -0.10613745657E+02  0.60445257261E+02  0.66668075076E+02  0.00000000000E+00 0.  1.
<scales pt_clust_5="13000.00000" pt_clust_6="13000.00000" pt_clust_7="13000.00000" pt_clust_8="13000.00000" pt_clust_9="28.12478"></scales>
<clustering>
<clus scale="   28.125">  1  9  2 -1</clus>
<clus scale="   88.542">  7  8 -1 -1</clus>
<clus scale="   91.165">  5  6 -1 -1</clus>
<clus scale="  117.238">  1  7  2 -1</clus>
<clus scale="   28.125">  1  5  2 -1</clus>
</clustering>
</event>
<event>
 9    1  0.1713970E-005  0.9727371E+02  0.7546771E-02  0.1286428E+00
          1   -1    0    0  502    0  0.00000000000E+00  0.00000000000E+00  0.30249739590E+03  0.30249739590E+03  0.00000000000E+00 0. -1.
         -1   -1    0    0    0  501 -0.00000000000E+00 -0.00000000000E+00 -0.67165137205E+02  0.67165137205E+02  0.00000000000E+00 0.  1.
         23    2    1    2    0    0  0.13914438692E+01  0.33359338773E+02  0.95642680811E+02  0.13662034219E+03  0.91666863736E+02 0.  0.
         23    2    1    2    0    0 -0.20860603912E+02 -0.27381273001E+02  0.17035675776E+03  0.19622831602E+03  0.91100099812E+02 0.  0.
        -11    1    4    4    0    0  0.21853301884E+02  0.20492177769E+02  0.79873092477E+02  0.85306547550E+02  0.00000000000E+00 0.  1.
         11    1    4    4    0    0 -0.42713905796E+02 -0.47873450771E+02  0.90483665286E+02  0.11092176847E+03  0.00000000000E+00 0. -1.
        -13    1    3    3    0    0  0.23058718145E+02  0.48168700525E+02  0.96577258056E+02  0.11035893696E+03  0.00000000000E+00 0.  1.
         13    1    3    3    0    0 -0.21667274276E+02 -0.14809361751E+02 -0.93457724545E+00  0.26261405230E+02  0.00000000000E+00 0. -1.
         21    1    1    2  502  501  0.19469160043E+02 -0.59780657721E+01 -0.30667179880E+02  0.36813874897E+02  0.00000000000E+00 0.  1.
<scales pt_clust_5="13000.00000" pt_clust_6="13000.00000" pt_clust_7="13000.00000" pt_clust_8="13000.00000" pt_clust_9="20.36628"></scales>
<clustering>
<clus scale="   20.366">  2  9  1 -1</clus>
<clus scale="   91.100">  5  6 -1 -1</clus>
<clus scale="   91.667">  7  8 -1 -1</clus>
<clus scale="   96.740">  1  5  2 -1</clus>
<clus scale="   96.740">  1  5  2 -1</clus>
</clustering>
</event>
<event>
 9    1  0.1713970E-005  0.2313894E+03  0.7546771E-02  0.1125956E+00
         -1   -1    0    0    0  501 -0.00000000000E+00  0.00000000000E+00  0.60003147112E+03  0.60003147112E+03  0.00000000000E+00 0.  1.
          1   -1    0    0  502    0  0.00000000000E+00 -0.00000000000E+00 -0.49594189130E+03  0.49594189130E+03  0.00000000000E+00 0. -1.
         23    2    1    2    0    0  0.42643304825E+01 -0.21045326512E+03  0.36689169390E+03  0.43268406639E+03  0.91089104415E+02 0.  0.
         23    2    1    2    0    0  0.94648429515E+02  0.19250418230E+03 -0.41834898075E+03  0.47808472969E+03  0.86792589875E+02 0.  0.
        -11    1    4    4    0    0  0.38937496967E+02  0.54968574558E+02 -0.22184011376E+03  0.23184199131E+03  0.00000000000E+00 0.  1.
         11    1    4    4    0    0  0.55710932547E+02  0.13753560774E+03 -0.19650886699E+03  0.24624273838E+03  0.00000000000E+00 0. -1.
        -13    1    3    3    0    0 -0.37819534459E+02 -0.13380158372E+03  0.19094666340E+03  0.23620713211E+03  0.00000000000E+00 0.  1.
         13    1    3    3    0    0  0.42083864942E+02 -0.76651681391E+02  0.17594503050E+03  0.19647693428E+03  0.00000000000E+00 0. -1.
         21    1    1    2  502  501 -0.98912759997E+02  0.17949082816E+02  0.15554686666E+03  0.18520456634E+03  0.00000000000E+00 0. -1.
<scales pt_clust_5="13000.00000" pt_clust_6="13000.00000" pt_clust_7="13000.00000" pt_clust_8="13000.00000" pt_clust_9="100.52812"></scales>
<clustering>
<clus scale="   86.793">  5  6 -1 -1</clus>
<clus scale="   91.089">  7  8 -1 -1</clus>
<clus scale="  100.528">  1  9  2 -1</clus>
<clus scale="  229.732">  2  5  1 -1</clus>
<clus scale="  229.732">  2  5  1 -1</clus>
</clustering>
</event>
<event>
 9    1  0.1713970E-005  0.1014074E+03  0.7546771E-02  0.1277801E+00
         -1   -1    0    0    0  501 -0.00000000000E+00  0.00000000000E+00  0.77845999277E+02  0.77845999277E+02  0.00000000000E+00 0.  1.
          1   -1    0    0  502    0  0.00000000000E+00 -0.00000000000E+00 -0.18049264345E+03  0.18049264345E+03  0.00000000000E+00 0. -1.
         23    2    1    2    0    0  0.16713173348E+02 -0.49715910357E+02 -0.90914154930E+01  0.10535591980E+03  0.90918722466E+02 0.  0.
         23    2    1    2    0    0  0.22016429759E+01  0.33543484405E+02 -0.76817396303E+02  0.12299151304E+03  0.89977704618E+02 0.  0.
        -11    1    4    4    0    0 -0.31335157320E+02  0.16945265487E+02 -0.77790569177E+02  0.85559375638E+02  0.00000000000E+00 0. -1.
         11    1    4    4    0    0  0.33536800296E+02  0.16598218918E+02  0.97317287371E+00  0.37432137406E+02  0.00000000000E+00 0.  1.
        -11    1    3    3    0    0 -0.32205366606E+02 -0.45409144675E+02 -0.17099268291E+01  0.55696498167E+02  0.00000000000E+00 0. -1.
         11    1    3    3    0    0  0.48918539954E+02 -0.43067656828E+01 -0.73814886639E+01  0.49659421631E+02  0.00000000000E+00 0.  1.
         21    1    1    2  502  501 -0.18914816324E+02  0.16172425953E+02 -0.16737832378E+02  0.29991209887E+02  0.00000000000E+00 0. -1.
<scales pt_clust_5="13000.00000" pt_clust_6="13000.00000" pt_clust_7="13000.00000" pt_clust_8="13000.00000" pt_clust_9="24.88609"></scales>
<clustering>
<clus scale="   24.886">  2  9  1 -1</clus>
<clus scale="   89.978">  5  6 -1 -1</clus>
<clus scale="   90.919">  7  8 -1 -1</clus>
<clus scale="  100.565">  2  5  1 -1</clus>
<clus scale="   24.886">  2  5  1 -1</clus>
</clustering>
</event>
<event>
 9    1  0.1713970E-005  0.2521967E+03  0.7546771E-02  0.1127162E+00
         -2   -1    0    0    0  501 -0.00000000000E+00  0.00000000000E+00  0.72486251361E+03  0.72486251361E+03  0.00000000000E+00 0.  1.
          2   -1    0    0  502    0  0.00000000000E+00 -0.00000000000E+00 -0.27730880586E+03  0.27730880586E+03  0.00000000000E+00 0. -1.
         23    2    1    2    0    0  0.50994544094E+02  0.13314028199E+03  0.42146637231E+03  0.45529616056E+03  0.96612176354E+02 0.  0.
         23    2    1    2    0    0  0.69805835498E+02 -0.26189540213E+03 -0.12730011470E+03  0.31299843383E+03  0.91107870420E+02 0.  0.
        -13    1    4    4    0    0  0.52739296001E+02 -0.24774911482E+03 -0.88505925880E+02  0.26831764040E+03  0.00000000000E+00 0. -1.
         13    1    4    4    0    0  0.17066539498E+02 -0.14146287309E+02 -0.38794188820E+02  0.44680793427E+02  0.00000000000E+00 0.  1.
        -13    1    3    3    0    0 -0.15888634685E+02  0.90085464753E+02  0.19842610522E+03  0.21849658785E+03  0.00000000000E+00 0. -1.
         13    1    3    3    0    0  0.66883178779E+02  0.43054817240E+02  0.22304026709E+03  0.23679957271E+03  0.00000000000E+00 0.  1.
         21    1    1    2  502  501 -0.12080037959E+03  0.12875512013E+03  0.15338745015E+03  0.23387672508E+03  0.00000000000E+00 0. -1.
<scales pt_clust_5="13000.00000" pt_clust_6="13000.00000" pt_clust_7="13000.00000" pt_clust_8="13000.00000" pt_clust_9="235.16490"></scales>
<clustering>
<clus scale="   91.108">  5  6 -1 -1</clus>
<clus scale="   96.612">  7  8 -1 -1</clus>
<clus scale="  172.223">  1  7  2 -1</clus>
<clus scale="  235.165">  1  9  2 -1</clus>
<clus scale="  252.197">  2  5  1 -1</clus>
</clustering>
</event>
<event>
 9    1  0.1713970E-005  0.1503349E+03  0.7546771E-02  0.1220789E+00
         -1   -1    0    0    0  501 -0.00000000000E+00  0.00000000000E+00  0.13268266962E+03  0.13268266962E+03  0.00000000000E+00 0.  1.
          1   -1    0    0  502    0  0.00000000000E+00 -0.00000000000E+00 -0.30696562051E+03  0.30696562051E+03  0.00000000000E+00 0. -1.
         23    2    1    2    0    0  0.11476465440E+03 -0.80716914986E+01 -0.12015777393E+03  0.19019466516E+03  0.92195671899E+02 0.  0.
         23    2    1    2    0    0  0.33431792822E+01  0.34851006183E+02 -0.80224429710E+02  0.12556753589E+03  0.90030425239E+02 0.  0.
        -11    1    3    3    0    0  0.24367106037E+02  0.31412115214E+02 -0.75055245438E+01  0.40457505330E+02  0.00000000000E+00 0.  1.
         11    1    3    3    0    0  0.90397548360E+02 -0.39483806713E+02 -0.11265224939E+03  0.14973715983E+03  0.00000000000E+00 0. -1.
        -13    1    4    4    0    0 -0.40357283981E+02  0.34047894787E+02 -0.41197548093E+02  0.66971691622E+02  0.00000000000E+00 0.  1.
         13    1    4    4    0    0  0.43700463263E+02  0.80311139528E+00 -0.39026881617E+02  0.58595844273E+02  0.00000000000E+00 0. -1.
         21    1    1    2  502  501 -0.11810783368E+03 -0.26779314684E+02  0.26099252756E+02  0.12388608907E+03  0.00000000000E+00 0. -1.
<scales pt_clust_5="13000.00000" pt_clust_6="13000.00000" pt_clust_7="13000.00000" pt_clust_8="13000.00000" pt_clust_9="118.74566"></scales>
<clustering>
<clus scale="   90.030">  7  8 -1 -1</clus>
<clus scale="   92.196">  5  6 -1 -1</clus>
<clus scale="   96.598">  2  7  1 -1</clus>
<clus scale="  118.746">  1  9  2 -1</clus>
<clus scale="   96.598">  2  5  1 -1</clus>
</clustering>
</event>
<event>
 9    1  0.1713970E-005  0.2120577E+03  0.7546771E-02  0.1140438E+00
          1   -1    0    0  502    0  0.00000000000E+00  0.00000000000E+00  0.72394351610E+03  0.72394351610E+03  0.00000000000E+00 0. -1.
         -1   -1    0    0    0  501 -0.00000000000E+00 -0.00000000000E+00 -0.11548012808E+03  0.11548012808E+03  0.00000000000E+00 0.  1.
         23    2    1    2    0    0  0.67294631459E+02 -0.16461359022E+03  0.65332996088E+02  0.21072597548E+03  0.92254186120E+02 0.  0.
         23    2    1    2    0    0 -0.36169540396E+02  0.22507223496E+03  0.44164470456E+03  0.50653644834E+03  0.97792544821E+02 0.  0.
        -11    1    3    3    0    0 -0.10779142050E+02 -0.62512976250E+02  0.51008621684E+02  0.81399886911E+02  0.00000000000E+00 0. -1.
         11    1    3    3    0    0  0.78073773510E+02 -0.10210061397E+03  0.14324374405E+02  0.12932608857E+03  0.00000000000E+00 0.  1.
        -13    1    4    4    0    0  0.24236699264E+01  0.13891256550E+03  0.17358881073E+03  0.22234129225E+03  0.00000000000E+00 0.  1.
         13    1    4    4    0    0 -0.38593210322E+02  0.86159669468E+02  0.26805589383E+03  0.28419515609E+03  0.00000000000E+00 0. -1.
         21    1    1    2  502  501 -0.31125091063E+02 -0.60458644749E+02  0.10148568738E+03  0.12216122036E+03  0.00000000000E+00 0. -1.
<scales pt_clust_5="13000.00000" pt_clust_6="13000.00000" pt_clust_7="13000.00000" pt_clust_8="13000.00000" pt_clust_9="68.00014"></scales>
<clustering>
<clus scale="   68.000">  1  9  2 -1</clus>
<clus scale="   92.254">  5  6 -1 -1</clus>
<clus scale="   97.793">  7  8 -1 -1</clus>
<clus scale="  209.561">  2  5  1 -1</clus>
<clus scale="   68.000">  1  5  2 -1</clus>
</clustering>
</event>
<event>
 9    1  0.1713970E-005  0.1051882E+03  0.7546771E-02  0.1273353E+00
          1   -1    0    0  502    0  0.00000000000E+00  0.00000000000E+00  0.30208964268E+03  0.30208964268E+03  0.00000000000E+00 0. -1.
         -1   -1    0    0    0  501 -0.00000000000E+00 -0.00000000000E+00 -0.74163948370E+02  0.74163948370E+02  0.00000000000E+00 0.  1.
         23    2    1    2    0    0 -0.31084491220E+02 -0.16324642108E+02  0.39635513909E+01  0.98084424081E+02  0.91499207501E+02 0.  0.
         23    2    1    2    0    0  0.34815139217E+02 -0.16576875255E+02  0.22062490519E+03  0.24488907179E+03  0.99037477654E+02 0.  0.
        -11    1    4    4    0    0 -0.32076297948E+02 -0.24432133172E+01  0.37441680287E+02  0.49363322458E+02  0.00000000000E+00 0.  1.
         11    1    4    4    0    0  0.66891437165E+02 -0.14133661938E+02  0.18318322490E+03  0.19552574933E+03  0.00000000000E+00 0. -1.
        -13    1    3    3    0    0 -0.33189222328E+02  0.21681668263E+02 -0.27872607072E+02  0.48461339668E+02  0.00000000000E+00 0.  1.
         13    1    3    3    0    0  0.21047311080E+01 -0.38006310371E+02  0.31836158463E+02  0.49623084414E+02  0.00000000000E+00 0. -1.
         21    1    1    2  502  501 -0.37306479975E+01  0.32901517363E+02  0.33372377259E+01  0.33280095176E+02  0.00000000000E+00 0.  1.
<scales pt_clust_5="13000.00000" pt_clust_6="13000.00000" pt_clust_7="13000.00000" pt_clust_8="13000.00000" pt_clust_9="33.11235"></scales>
<clustering>
<clus scale="   33.112">  2  9  1 -1</clus>
<clus scale="   91.499">  7  8 -1 -1</clus>
<clus scale="   98.124">  2  7  1 -1</clus>
<clus scale="   99.037">  5  6 -1 -1</clus>
<clus scale="  105.188">  1  5  2 -1</clus>
</clustering>
</event>
<event>
 9    1  0.1713970E-005  0.9236614E+02  0.7546771E-02  0.1297280E+00
          2   -1    0    0  502    0  0.00000000000E+00  0.00000000000E+00  0.14770624656E+03  0.14770624656E+03  0.00000000000E+00 0. -1.
         -2   -1    0    0    0  501 -0.00000000000E+00 -0.00000000000E+00 -0.32336799673E+03  0.32336799673E+03  0.00000000000E+00 0.  1.
         23    2    1    2    0    0  0.49297004608E+01 -0.56535840695E+02 -0.13447177927E+03  0.17207762477E+03  0.91145193487E+02 0.  0.
         23    2    1    2    0    0  0.10208419157E+02  0.72746751814E+01  0.10761751683E+03  0.14151806919E+03  0.91042304782E+02 0.  0.
        -11    1    4    4    0    0 -0.32812756243E+02 -0.13747396524E+02  0.17907070413E+02  0.39828771689E+02  0.00000000000E+00 0.  1.
         11    1    4    4    0    0  0.43021175400E+02  0.21022071705E+02  0.89710446412E+02  0.10168929751E+03  0.00000000000E+00 0. -1.
        -13    1    3    3    0    0  0.23707487914E+02  0.18460671571E+02 -0.38687152492E+02  0.48985070644E+02  0.00000000000E+00 0. -1.
         13    1    3    3    0    0 -0.18777787453E+02 -0.74996512265E+02 -0.95784626778E+02  0.12309255412E+03  0.00000000000E+00 0.  1.
         21    1    1    2  502  501 -0.15138119618E+02  0.49261165513E+02 -0.14880748773E+03  0.15747854933E+03  0.00000000000E+00 0.  1.
<scales pt_clust_5="13000.00000" pt_clust_6="13000.00000" pt_clust_7="13000.00000" pt_clust_8="13000.00000" pt_clust_9="51.53470"></scales>
<clustering>
<clus scale="   51.535">  2  9  1 -1</clus>
<clus scale="   91.042">  5  6 -1 -1</clus>
<clus scale="   91.145">  7  8 -1 -1</clus>
<clus scale="   92.265">  1  5  2 -1</clus>
<clus scale="   92.265">  1  5  2 -1</clus>
</clustering>
</event>
<event>
 9    1  0.1713970E-005  0.4319085E+03  0.7546771E-02  0.1033278E+00
          2   -1    0    0  502    0  0.00000000000E+00  0.00000000000E+00  0.91418769089E+03  0.91418769089E+03  0.00000000000E+00 0. -1.
         -2   -1    0    0    0  501 -0.00000000000E+00 -0.00000000000E+00 -0.26085755375E+03  0.26085755375E+03  0.00000000000E+00 0.  1.
         23    2    1    2    0    0  0.32893774916E+03  0.29131793774E+03  0.32323523687E+03  0.55285415261E+03  0.90002844586E+02 0.  0.
         23    2    1    2    0    0 -0.32646919142E+03 -0.24658348312E+03  0.37258881691E+03  0.56044161301E+03  0.88807815003E+02 0.  0.
        -11    1    3    3    0    0  0.10505969787E+03  0.82573042528E+02  0.50409513819E+02  0.14281794898E+03  0.00000000000E+00 0.  1.
         11    1    3    3    0    0  0.22387805129E+03  0.20874489522E+03  0.27282572305E+03  0.41003620363E+03  0.00000000000E+00 0. -1.
        -11    1    4    4    0    0 -0.17527456340E+03 -0.89309043265E+02  0.21434010596E+03  0.29092775531E+03  0.00000000000E+00 0. -1.
         11    1    4    4    0    0 -0.15119462802E+03 -0.15727443986E+03  0.15824871095E+03  0.26951385770E+03  0.00000000000E+00 0.  1.
         21    1    1    2  502  501 -0.24685577460E+01 -0.44734454619E+02 -0.42493916644E+02  0.61749479020E+02  0.00000000000E+00 0.  1.
<scales pt_clust_5="13000.00000" pt_clust_6="13000.00000" pt_clust_7="13000.00000" pt_clust_8="13000.00000" pt_clust_9="44.80251"></scales>
<clustering>
<clus scale="   44.803">  2  9  1 -1</clus>
<clus scale="   88.808">  7  8 -1 -1</clus>
<clus scale="   90.003">  5  6 -1 -1</clus>
<clus scale="  431.661">  1  7  2 -1</clus>
<clus scale="  431.661">  1  5  2 -1</clus>
</clustering>
</event>
<event>
 9    1  0.1713970E-005  0.1413195E+03  0.7546771E-02  0.1229862E+00
         -1   -1    0    0    0  501 -0.00000000000E+00  0.00000000000E+00  0.89167557776E+02  0.89167557776E+02  0.00000000000E+00 0.  1.
          1   -1    0    0  502    0  0.00000000000E+00 -0.00000000000E+00 -0.63405401256E+03  0.63405401256E+03  0.00000000000E+00 0. -1.
         23    2    1    2    0    0  0.82035899689E+02  0.32742024046E+02 -0.12649517148E+03  0.17910550173E+03  0.90971552510E+02 0.  0.
         23    2    1    2    0    0  0.26665917760E+02  0.69542363067E+01 -0.41742907952E+03  0.42838878557E+03  0.92252276969E+02 0.  0.
        -13    1    3    3    0    0  0.22824313062E+02 -0.26751756481E+02 -0.12037538448E+02  0.37168643686E+02  0.00000000000E+00 0.  1.
         13    1    3    3    0    0  0.59211586627E+02  0.59493780528E+02 -0.11445763303E+03  0.14193685804E+03  0.00000000000E+00 0. -1.
        -13    1    4    4    0    0  0.33275314344E+01 -0.40398330501E+02 -0.13074073181E+03  0.13688037306E+03  0.00000000000E+00 0.  1.
         13    1    4    4    0    0  0.23338386325E+02  0.47352566808E+02 -0.28668834770E+03  0.29150841251E+03  0.00000000000E+00 0. -1.
         21    1    1    2  502  501 -0.10870181745E+03 -0.39696260353E+02 -0.96220379146E+00  0.11572728304E+03  0.00000000000E+00 0.  1.
<scales pt_clust_5="13000.00000" pt_clust_6="13000.00000" pt_clust_7="13000.00000" pt_clust_8="13000.00000" pt_clust_9="108.14513"></scales>
<clustering>
<clus scale="   90.972">  5  6 -1 -1</clus>
<clus scale="   92.252">  7  8 -1 -1</clus>
<clus scale="   96.280">  2  7  1 -1</clus>
<clus scale="  108.145">  1  9  2 -1</clus>
<clus scale="   96.280">  2  5  1 -1</clus>
</clustering>
</event>
<event>
 9    1  0.1713970E-005  0.1418173E+03  0.7546771E-02  0.1211712E+00
         -2   -1    0    0    0  501 -0.00000000000E+00  0.00000000000E+00  0.67061502960E+02  0.67061502960E+02  0.00000000000E+00 0.  1.
          2   -1    0    0  502    0  0.00000000000E+00 -0.00000000000E+00 -0.78034021431E+03  0.78034021431E+03  0.00000000000E+00 0. -1.
         23    2    1    2    0    0  0.49138712512E+02 -0.80256325038E+02 -0.21230825100E+03  0.24773138086E+03  0.86257479936E+02 0.  0.
         23    2    1    2    0    0 -0.25222292917E+02  0.11824829324E+03 -0.52674487407E+03  0.54790446758E+03  0.90112819954E+02 0.  0.
        -11    1    4    4    0    0 -0.58999662520E+02  0.73078509031E+02 -0.34963813162E+03  0.36203349533E+03  0.00000000000E+00 0. -1.
         11    1    4    4    0    0  0.33777369603E+02  0.45169784212E+02 -0.17710674244E+03  0.18587097224E+03  0.00000000000E+00 0.  1.
        -11    1    3    3    0    0  0.27859200725E+02 -0.43957986676E+01 -0.13293259197E+03  0.13589161902E+03  0.00000000000E+00 0. -1.
         11    1    3    3    0    0  0.21279511787E+02 -0.75860526370E+02 -0.79375659026E+02  0.11183976184E+03  0.00000000000E+00 0.  1.
         21    1    1    2  502  501 -0.23916419595E+02 -0.37991968205E+02  0.25774413711E+02  0.51765868837E+02  0.00000000000E+00 0.  1.
<scales pt_clust_5="13000.00000" pt_clust_6="13000.00000" pt_clust_7="13000.00000" pt_clust_8="13000.00000" pt_clust_9="44.89304"></scales>
<clustering>
<clus scale="   44.893">  1  9  2 -1</clus>
<clus scale="   86.257">  7  8 -1 -1</clus>
<clus scale="   90.113">  5  6 -1 -1</clus>
<clus scale="  139.399">  1  7  2 -1</clus>
<clus scale="  141.817">  2  5  1 -1</clus>
</clustering>
</event>
<event>
 9    1  0.1713970E-005  0.9696444E+02  0.7546771E-02  0.1288049E+00
         -2   -1    0    0    0  501 -0.00000000000E+00  0.00000000000E+00  0.19802201578E+02  0.19802201578E+02  0.00000000000E+00 0.  1.
          2   -1    0    0  502    0  0.00000000000E+00 -0.00000000000E+00 -0.72852505312E+03  0.72852505312E+03  0.00000000000E+00 0. -1.
         23    2    1    2    0    0 -0.10695618665E+02 -0.93190766151E+01 -0.17559502929E+03  0.19856733085E+03  0.91619480033E+02 0.  0.
         23    2    1    2    0    0  0.29724245234E+02 -0.38137320786E+01 -0.49828011807E+03  0.50793981170E+03  0.93923910383E+02 0.  0.
        -13    1    3    3    0    0  0.27390246507E+02  0.25664684716E+02 -0.10143034597E+03  0.10815274721E+03  0.00000000000E+00 0. -1.
         13    1    3    3    0    0 -0.38085865172E+02 -0.34983761331E+02 -0.74164683317E+02  0.90414583637E+02  0.00000000000E+00 0.  1.
        -13    1    4    4    0    0  0.14211106062E+02  0.45091823224E+02 -0.23676033202E+03  0.24143463479E+03  0.00000000000E+00 0. -1.
         13    1    4    4    0    0  0.15513139172E+02 -0.48905555303E+02 -0.26151978604E+03  0.26650517691E+03  0.00000000000E+00 0.  1.
         21    1    1    2  502  501 -0.19028626569E+02  0.13132808694E+02 -0.34847704187E+02  0.41820112152E+02  0.00000000000E+00 0.  1.
<scales pt_clust_5="13000.00000" pt_clust_6="13000.00000" pt_clust_7="13000.00000" pt_clust_8="13000.00000" pt_clust_9="23.12054"></scales>
<clustering>
<clus scale="   23.121">  1  9  2 -1</clus>
<clus scale="   91.619">  5  6 -1 -1</clus>
<clus scale="   93.924">  7  8 -1 -1</clus>
<clus scale="   94.734">  1  5  2 -1</clus>
<clus scale="   96.964">  2  5  1 -1</clus>
</clustering>
</event>
<event>
 9    1  0.2507716E-005  0.9888378E+02  0.7546771E-02  0.1283356E+00
         -2   -1    0    0    0  501 -0.00000000000E+00  0.00000000000E+00  0.22532592692E+03  0.22532592692E+03  0.00000000000E+00 0.  1.
          2   -1    0    0  502    0  0.00000000000E+00 -0.00000000000E+00 -0.24374236191E+03  0.24374236191E+03  0.00000000000E+00 0. -1.
         23    2    1    2    0    0  0.24620827293E+02 -0.66299284201E+02  0.17777951969E+03  0.21150112510E+03  0.90140934502E+02 0.  0.
         23    2    1    2    0    0 -0.16490534145E+02  0.31398912475E+02 -0.19871764144E+03  0.22164368231E+03  0.91539016089E+02 0.  0.
        -11    1    4    4    0    0 -0.49466165416E+02  0.28638816487E+02 -0.16403062213E+03  0.17370414022E+03  0.00000000000E+00 0. -1.
         11    1    4    4    0    0  0.32975631272E+02  0.27600959884E+01 -0.34687019309E+02  0.47939542094E+02  0.00000000000E+00 0.  1.
        -11    1    3    3    0    0 -0.25989164544E+02 -0.56448375599E+02  0.84085326975E+02  0.10455715181E+03  0.00000000000E+00 0.  1.
         11    1    3    3    0    0  0.50609991837E+02 -0.98509086021E+01  0.93694192718E+02  0.10694397329E+03  0.00000000000E+00 0. -1.
         21    1    1    2  502  501 -0.81302931483E+01  0.34900371726E+02  0.25216867519E+01  0.35923481421E+02  0.00000000000E+00 0.  1.
<scales pt_clust_5="13000.00000" pt_clust_6="13000.00000" pt_clust_7="13000.00000" pt_clust_8="13000.00000" pt_clust_9="35.83487"></scales>
<clustering>
<clus scale="   35.835">  1  9  2 -1</clus>
<clus scale="   90.141">  7  8 -1 -1</clus>
<clus scale="   91.539">  5  6 -1 -1</clus>
<clus scale="   97.591">  1  7  2 -1</clus>
<clus scale="   98.884">  2  5  1 -1</clus>
</clustering>
</event>
<event>
 9    1  0.1713970E-005  0.9877012E+02  0.7546771E-02  0.1283791E+00
         -2   -1    0    0    0  501 -0.00000000000E+00  0.00000000000E+00  0.31715075540E+03  0.31715075540E+03  0.00000000000E+00 0.  1.
          2   -1    0    0  502    0  0.00000000000E+00 -0.00000000000E+00 -0.69381898849E+02  0.69381898849E+02  0.00000000000E+00 0. -1.
         23    2    1    2    0    0 -0.44468458676E+01 -0.53837055699E+02  0.14405608721E+03  0.17831081276E+03  0.90135379740E+02 0.  0.
         23    2    1    2    0    0 -0.57529243267E+01  0.30880809811E+02 -0.44043818599E+01  0.97224801341E+02  0.91905075286E+02 0.  0.
        -11    1    3    3    0    0  0.16910848547E+02 -0.70271793099E+02  0.12784397240E+03  0.14686110099E+03  0.00000000000E+00 0. -1.
         11    1    3    3    0    0 -0.21357694415E+02  0.16434737400E+02  0.16212114809E+02  0.31449711774E+02  0.00000000000E+00 0.  1.
        -13    1    4    4    0    0  0.18518085857E+02  0.38009813830E+02 -0.36848452623E+02  0.56084524709E+02  0.00000000000E+00 0. -1.
         13    1    4    4    0    0 -0.24271010184E+02 -0.71290040188E+01  0.32444070763E+02  0.41140276631E+02  0.00000000000E+00 0.  1.
         21    1    1    2  502  501  0.10199770194E+02  0.22956245889E+02  0.10811715120E+03  0.11099704015E+03  0.00000000000E+00 0.  1.
<scales pt_clust_5="13000.00000" pt_clust_6="13000.00000" pt_clust_7="13000.00000" pt_clust_8="13000.00000" pt_clust_9="25.12020"></scales>
<clustering>
<clus scale="   25.120">  1  9  2 -1</clus>
<clus scale="   90.135">  5  6 -1 -1</clus>
<clus scale="   91.905">  7  8 -1 -1</clus>
<clus scale="   97.126">  1  5  2 -1</clus>
<clus scale="   98.770">  2  5  1 -1</clus>
</clustering>
</event>
<event>
 9    1  0.1713970E-005  0.9503598E+02  0.7546771E-02  0.1291562E+00
          1   -1    0    0  502    0  0.00000000000E+00  0.00000000000E+00  0.74982625423E+03  0.74982625423E+03  0.00000000000E+00 0. -1.
         -1   -1    0    0    0  501 -0.00000000000E+00 -0.00000000000E+00 -0.17616713925E+02  0.17616713925E+02  0.00000000000E+00 0.  1.
         23    2    1    2    0    0 -0.95790650225E+01  0.41514141962E+02  0.28320273585E+03  0.30040112279E+03  0.90674486564E+02 0.  0.
         23    2    1    2    0    0 -0.28892477501E+01 -0.70139638449E+01  0.32256163063E+03  0.33538280428E+03  0.91531832791E+02 0.  0.
        -13    1    3    3    0    0  0.36695425519E+02  0.39379696291E+02  0.15614152823E+03  0.16515898877E+03  0.00000000000E+00 0. -1.
         13    1    3    3    0    0 -0.46274490542E+02  0.21344456707E+01  0.12706120761E+03  0.13524213402E+03  0.00000000000E+00 0.  1.
        -13    1    4    4    0    0 -0.36970575674E+02 -0.28462469702E+02  0.11788604044E+03  0.12678349332E+03  0.00000000000E+00 0.  1.
         13    1    4    4    0    0  0.34081327924E+02  0.21448505857E+02  0.20467559019E+03  0.20859931097E+03  0.00000000000E+00 0. -1.
         21    1    1    2  502  501  0.12468312773E+02 -0.34500178117E+02  0.12644517383E+03  0.13165904108E+03  0.00000000000E+00 0.  1.
<scales pt_clust_5="13000.00000" pt_clust_6="13000.00000" pt_clust_7="13000.00000" pt_clust_8="13000.00000" pt_clust_9="36.68407"></scales>
<clustering>
<clus scale="   36.684">  1  9  2 -1</clus>
<clus scale="   90.674">  5  6 -1 -1</clus>
<clus scale="   91.532">  7  8 -1 -1</clus>
<clus scale="   94.211">  2  5  1 -1</clus>
<clus scale="   36.684">  1  5  2 -1</clus>
</clustering>
</event>
<event>
 9    1  0.1713970E-005  0.9998231E+02  0.7546771E-02  0.1284013E+00
          1   -1    0    0  502    0  0.00000000000E+00  0.00000000000E+00  0.47686129966E+03  0.47686129966E+03  0.00000000000E+00 0. -1.
         -1   -1    0    0    0  501 -0.00000000000E+00 -0.00000000000E+00 -0.74420005018E+02  0.74420005018E+02  0.00000000000E+00 0.  1.
         23    2    1    2    0    0  0.14619378892E+02  0.45068472935E+02  0.70962613080E+02  0.12484692494E+03  0.91138184748E+02 0.  0.
         23    2    1    2    0    0 -0.44808275036E+02 -0.50476855720E+01  0.35752053799E+03  0.36994357378E+03  0.83690214830E+02 0.  0.
        -11    1    4    4    0    0 -0.69239062836E+02 -0.70062247443E+01  0.23955634536E+03  0.24946017239E+03  0.00000000000E+00 0. -1.
         11    1    4    4    0    0  0.24430787800E+02  0.19585391723E+01  0.11796419263E+03  0.12048340139E+03  0.00000000000E+00 0.  1.
        -13    1    3    3    0    0 -0.18002957861E+02 -0.21084787853E+02  0.28394192497E+02  0.39685071981E+02  0.00000000000E+00 0. -1.
         13    1    3    3    0    0  0.32622336753E+02  0.66153260788E+02  0.42568420583E+02  0.85161852957E+02  0.00000000000E+00 0.  1.
         21    1    1    2  502  501  0.30188896144E+02 -0.40020787363E+02 -0.26041856427E+02  0.56490805957E+02  0.00000000000E+00 0.  1.
<scales pt_clust_5="13000.00000" pt_clust_6="13000.00000" pt_clust_7="13000.00000" pt_clust_8="13000.00000" pt_clust_9="50.13016"></scales>
<clustering>
<clus scale="   50.130">  2  9  1 -1</clus>
<clus scale="   83.690">  5  6 -1 -1</clus>
<clus scale="   91.138">  7  8 -1 -1</clus>
<clus scale="   93.243">  1  5  2 -1</clus>
<clus scale="   93.243">  1  5  2 -1</clus>
</clustering>
</event>
<event>
 9    1  0.1713970E-005  0.1519994E+03  0.7546771E-02  0.1198354E+00
          1   -1    0    0  502    0  0.00000000000E+00  0.00000000000E+00  0.40003412367E+03  0.40003412367E+03  0.00000000000E+00 0. -1.
         -1   -1    0    0    0  501 -0.00000000000E+00 -0.00000000000E+00 -0.11620614954E+03  0.11620614954E+03  0.00000000000E+00 0.  1.
         23    2    1    2    0    0 -0.65338901286E+02 -0.11662191656E+03  0.61552308032E+02  0.17373353248E+03  0.92329898957E+02 0.  0.
         23    2    1    2    0    0  0.32740320047E+02  0.11041202091E+03  0.25546189582E+03  0.29557534243E+03  0.94027974128E+02 0.  0.
        -11    1    4    4    0    0  0.62469866415E+02  0.66260228498E+02  0.12484190536E+03  0.15452638423E+03  0.00000000000E+00 0.  1.
         11    1    4    4    0    0 -0.29729546368E+02  0.44151792414E+02  0.13061999046E+03  0.14104895820E+03  0.00000000000E+00 0. -1.
        -13    1    3    3    0    0 -0.39712885937E+02 -0.69690173607E+01  0.44147939812E+02  0.59788971408E+02  0.00000000000E+00 0. -1.
         13    1    3    3    0    0 -0.25626015349E+02 -0.10965289920E+03  0.17404368220E+02  0.11394456107E+03  0.00000000000E+00 0.  1.
         21    1    1    2  502  501  0.32598581239E+02  0.62098956454E+01 -0.33186229724E+02  0.46931398296E+02  0.00000000000E+00 0.  1.
<scales pt_clust_5="13000.00000" pt_clust_6="13000.00000" pt_clust_7="13000.00000" pt_clust_8="13000.00000" pt_clust_9="33.18479"></scales>
<clustering>
<clus scale="   33.185">  2  9  1 -1</clus>
<clus scale="   92.330">  7  8 -1 -1</clus>
<clus scale="   94.028">  5  6 -1 -1</clus>
<clus scale="  150.955">  2  7  1 -1</clus>
<clus scale="  151.999">  1  5  2 -1</clus>
</clustering>
</event>
<event>
 9    1  0.1713970E-005  0.1655883E+03  0.7546771E-02  0.1201854E+00
         -1   -1    0    0    0  501 -0.00000000000E+00  0.00000000000E+00  0.70251573016E+02  0.70251573016E+02  0.00000000000E+00 0.  1.
          1   -1    0    0  502    0  0.00000000000E+00 -0.00000000000E+00 -0.80259999537E+03  0.80259999537E+03  0.00000000000E+00 0. -1.
         23    2    1    2    0    0  0.79862196777E+02 -0.11340785697E+03 -0.11517938178E+03  0.20299431314E+03  0.93279626304E+02 0.  0.
         23    2    1    2    0    0  0.38199504931E+02  0.37793978372E+02 -0.37214114667E+03  0.38755477060E+03  0.93925929286E+02 0.  0.
        -11    1    3    3    0    0 -0.15921962199E+02 -0.49147304746E+02 -0.31711454990E+02  0.60618337338E+02  0.00000000000E+00 0. -1.
         11    1    3    3    0    0  0.95784158976E+02 -0.64260552225E+02 -0.83467926794E+02  0.14237597580E+03  0.00000000000E+00 0.  1.
        -11    1    4    4    0    0  0.21586262871E+01 -0.29431218168E+02 -0.70676488264E+02  0.76589961898E+02  0.00000000000E+00 0.  1.
         11    1    4    4    0    0  0.36040878644E+02  0.67225196539E+02 -0.30146465841E+03  0.31096480870E+03  0.00000000000E+00 0. -1.
         21    1    1    2  502  501 -0.11806170171E+03  0.75613878599E+02 -0.24502789390E+03  0.28230248465E+03  0.00000000000E+00 0. -1.
<scales pt_clust_5="13000.00000" pt_clust_6="13000.00000" pt_clust_7="13000.00000" pt_clust_8="13000.00000" pt_clust_9="136.81522"></scales>
<clustering>
<clus scale="   93.280">  5  6 -1 -1</clus>
<clus scale="   93.926">  7  8 -1 -1</clus>
<clus scale="  108.211">  2  7  1 -1</clus>
<clus scale="  136.815">  2  9  1 -1</clus>
<clus scale="  108.211">  2  5  1 -1</clus>
</clustering>
</event>
<event>
 9    1  0.1713970E-005  0.1099746E+03  0.7546771E-02  0.1269282E+00
         -4   -1    0    0    0  501 -0.00000000000E+00  0.00000000000E+00  0.68368854404E+02  0.68368854404E+02  0.00000000000E+00 0.  1.
          4   -1    0    0  502    0  0.00000000000E+00 -0.00000000000E+00 -0.23522912361E+03  0.23522912361E+03  0.00000000000E+00 0. -1.
         23    2    1    2    0    0 -0.22342678114E+02  0.64334155792E+02 -0.41020774409E+02  0.11190880196E+03  0.78757838692E+02 0.  0.
         23    2    1    2    0    0  0.12412498482E+02 -0.36768942660E+02 -0.12309459386E+03  0.16226157126E+03  0.98338767582E+02 0.  0.
        -13    1    3    3    0    0  0.22493830041E+02  0.27750711895E+02  0.73700124596E+01  0.36474531995E+02  0.00000000000E+00 0.  1.
         13    1    3    3    0    0 -0.44836508155E+02  0.36583443897E+02 -0.48390786869E+02  0.75434269962E+02  0.00000000000E+00 0. -1.
        -13    1    4    4    0    0  0.51705054230E+02 -0.10662614601E+01 -0.50117051604E+02  0.72015751110E+02  0.00000000000E+00 0.  1.
         13    1    4    4    0    0 -0.39292555749E+02 -0.35702681200E+02 -0.72977542252E+02  0.90245820154E+02  0.00000000000E+00 0. -1.
         21    1    1    2  502  501  0.99301796322E+01 -0.27565213131E+02 -0.27449009373E+01  0.29427604790E+02  0.00000000000E+00 0. -1.
<scales pt_clust_5="13000.00000" pt_clust_6="13000.00000" pt_clust_7="13000.00000" pt_clust_8="13000.00000" pt_clust_9="29.29931"></scales>
<clustering>
<clus scale="   29.299">  1  9  2 -1</clus>
<clus scale="   78.758">  5  6 -1 -1</clus>
<clus scale="   92.880">  1  5  2 -1</clus>
<clus scale="   98.339">  7  8 -1 -1</clus>
<clus scale="  109.975">  2  5  1 -1</clus>
</clustering>
</event>
<event>
 9    1  0.1713970E-005  0.2042613E+03  0.7546771E-02  0.1172352E+00
         -2   -1    0    0    0  501 -0.00000000000E+00  0.00000000000E+00  0.13784863257E+03  0.13784863257E+03  0.00000000000E+00 0.  1.
          2   -1    0    0  502    0  0.00000000000E+00 -0.00000000000E+00 -0.70077886610E+03  0.70077886610E+03  0.00000000000E+00 0. -1.
         23    2    1    2    0    0 -0.17461284139E+02 -0.59715020042E+02 -0.42297904541E+02  0.11879123872E+03  0.91931853049E+02 0.  0.
         23    2    1    2    0    0  0.19611240906E+03  0.27301150378E+02 -0.61806147913E+02  0.22639087512E+03  0.90705008780E+02 0.  0.
        -11    1    4    4    0    0  0.12445176193E+02  0.16904845223E+02  0.16258136085E+02  0.26551519570E+02  0.00000000000E+00 0.  1.
         11    1    4    4    0    0  0.18366723287E+03  0.10396305155E+02 -0.78064283998E+02  0.19983935555E+03  0.00000000000E+00 0. -1.
        -11    1    3    3    0    0 -0.33838451318E+02  0.92059957094E+01  0.21959465944E+01  0.35137064847E+02  0.00000000000E+00 0. -1.
         11    1    3    3    0    0  0.16377167179E+02 -0.68921015751E+02 -0.44493851136E+02  0.83654173870E+02  0.00000000000E+00 0.  1.
         21    1    1    2  502  501 -0.17865112492E+03  0.32413869663E+02 -0.45882618107E+03  0.49344538484E+03  0.00000000000E+00 0. -1.
<scales pt_clust_5="13000.00000" pt_clust_6="13000.00000" pt_clust_7="13000.00000" pt_clust_8="13000.00000" pt_clust_9="183.01715"></scales>
<clustering>
<clus scale="   90.705">  5  6 -1 -1</clus>
<clus scale="   91.932">  7  8 -1 -1</clus>
<clus scale="  111.006">  1  7  2 -1</clus>
<clus scale="  183.017">  2  9  1 -1</clus>
<clus scale="  183.017">  2  5  1 -1</clus>
</clustering>
</event>
<event>
 9    1  0.7144568E-005  0.3334841E+03  0.7546771E-02  0.1069658E+00
         -1   -1    0    0    0  501 -0.00000000000E+00  0.00000000000E+00  0.37468579091E+03  0.37468579091E+03  0.00000000000E+00 0.  1.
          1   -1    0    0  502    0  0.00000000000E+00 -0.00000000000E+00 -0.79683758559E+03  0.79683758559E+03  0.00000000000E+00 0. -1.
         23    2    1    2    0    0 -0.91229921301E+02 -0.28497225645E+03  0.24409892698E+03  0.39650650027E+03  0.90005739380E+02 0.  0.
         23    2    1    2    0    0  0.11227513253E+03  0.30318929246E+03 -0.66730887489E+03  0.74716223559E+03  0.91765022395E+02 0.  0.
        -11    1    4    4    0    0  0.29548805604E+02  0.79755232027E+02 -0.96546682546E+02  0.12866736517E+03  0.00000000000E+00 0.  1.
         11    1    4    4    0    0  0.82726326923E+02  0.22343406044E+03 -0.57076219235E+03  0.61849487042E+03  0.00000000000E+00 0. -1.
        -13    1    3    3    0    0 -0.74172751999E+02 -0.25920217032E+03  0.17667460961E+03  0.32233721460E+03  0.00000000000E+00 0.  1.
         13    1    3    3    0    0 -0.17057169302E+02 -0.25770086122E+02  0.67424317370E+02  0.74169285666E+02  0.00000000000E+00 0. -1.
         21    1    1    2  502  501 -0.21045211226E+02 -0.18217036016E+02  0.10581532301E+01  0.27854640637E+02  0.00000000000E+00 0.  1.
<scales pt_clust_5="13000.00000" pt_clust_6="13000.00000" pt_clust_7="13000.00000" pt_clust_8="13000.00000" pt_clust_9="27.83453"></scales>
<clustering>
<clus scale="   27.835">  1  9  2 -1</clus>
<clus scale="   90.006">  7  8 -1 -1</clus>
<clus scale="   91.765">  5  6 -1 -1</clus>
<clus scale="  333.004">  1  7  2 -1</clus>
<clus scale="  333.484">  2  5  1 -1</clus>
</clustering>
</event>
<event>
 9    1  0.1713970E-005  0.9757658E+02  0.7546771E-02  0.1287278E+00
         -2   -1    0    0    0  501 -0.00000000000E+00  0.00000000000E+00  0.40746357305E+02  0.40746357305E+02  0.00000000000E+00 0.  1.
          2   -1    0    0  502    0  0.00000000000E+00 -0.00000000000E+00 -0.32883169610E+03  0.32883169610E+03  0.00000000000E+00 0. -1.
         23    2    1    2    0    0 -0.17835744932E+02 -0.42861294324E+01 -0.67854196443E+02  0.11240465697E+03  0.87716191384E+02 0.  0.
         23    2    1    2    0    0  0.41295441040E+02  0.13355634798E+02 -0.20282773577E+03  0.22658758551E+03  0.91209413323E+02 0.  0.
        -11    1    4    4    0    0  0.11831058272E+02 -0.34860312229E+02 -0.40621017406E+02  0.54820455704E+02  0.00000000000E+00 0.  1.
         11    1    4    4    0    0  0.29464382768E+02  0.48215947027E+02 -0.16220671837E+03  0.17176712981E+03  0.00000000000E+00 0. -1.
        -11    1    3    3    0    0 -0.21279990879E+02  0.28903076823E+02  0.98442660462E+00  0.35905361123E+02  0.00000000000E+00 0.  1.
         11    1    3    3    0    0  0.34442459476E+01 -0.33189206256E+02 -0.68838623047E+02  0.76499295847E+02  0.00000000000E+00 0. -1.
         21    1    1    2  502  501 -0.23459696108E+02 -0.90695053651E+01 -0.17403406579E+02  0.30585810920E+02  0.00000000000E+00 0.  1.
<scales pt_clust_5="13000.00000" pt_clust_6="13000.00000" pt_clust_7="13000.00000" pt_clust_8="13000.00000" pt_clust_9="25.15180"></scales>
<clustering>
<clus scale="   25.152">  1  9  2 -1</clus>
<clus scale="   87.716">  7  8 -1 -1</clus>
<clus scale="   91.209">  5  6 -1 -1</clus>
<clus scale="   94.319">  1  7  2 -1</clus>
<clus scale="   97.577">  2  5  1 -1</clus>
</clustering>
</event>
<event>
 9    1  0.1713970E-005  0.1135254E+03  0.7546771E-02  0.1256580E+00
         -1   -1    0    0    0  501 -0.00000000000E+00  0.00000000000E+00  0.38979231650E+02  0.38979231650E+02  0.00000000000E+00 0.  1.
          1   -1    0    0  502    0  0.00000000000E+00 -0.00000000000E+00 -0.53648299841E+03  0.53648299841E+03  0.00000000000E+00 0. -1.
         23    2    1    2    0    0  0.74014805020E+02 -0.78893531796E+01 -0.13895259168E+03  0.18028102847E+03  0.87481387951E+02 0.  0.
         23    2    1    2    0    0 -0.52528755192E+02 -0.37177893215E+02 -0.27797756449E+03  0.30039294409E+03  0.93930445732E+02 0.  0.
        -13    1    3    3    0    0  0.86641108171E+02  0.10563308954E+02 -0.12912536255E+03  0.15585770553E+03  0.00000000000E+00 0. -1.
         13    1    3    3    0    0 -0.12626303151E+02 -0.18452662134E+02 -0.98272291317E+01  0.24423322941E+02  0.00000000000E+00 0.  1.
        -13    1    4    4    0    0 -0.10739163390E+02  0.31502871217E+02 -0.89318483052E+02  0.95318161648E+02  0.00000000000E+00 0.  1.
         13    1    4    4    0    0 -0.41789591802E+02 -0.68680764432E+02 -0.18865908143E+03  0.20507478244E+03  0.00000000000E+00 0. -1.
         21    1    1    2  502  501 -0.21486049828E+02  0.45067246395E+02 -0.80573610595E+02  0.94788257496E+02  0.00000000000E+00 0.  1.
<scales pt_clust_5="13000.00000" pt_clust_6="13000.00000" pt_clust_7="13000.00000" pt_clust_8="13000.00000" pt_clust_9="49.92702"></scales>
<clustering>
<clus scale="   49.927">  1  9  2 -1</clus>
<clus scale="   87.481">  5  6 -1 -1</clus>
<clus scale="   93.930">  7  8 -1 -1</clus>
<clus scale="  108.250">  1  5  2 -1</clus>
<clus scale="  113.525">  2  5  1 -1</clus>
</clustering>
</event>
<event>
 9    1  0.1713970E-005  0.1277099E+03  0.7546771E-02  0.1232433E+00
         -1   -1    0    0    0  501 -0.00000000000E+00  0.00000000000E+00  0.17182871242E+03  0.17182871242E+03  0.00000000000E+00 0.  1.
          1   -1    0    0  502    0  0.00000000000E+00 -0.00000000000E+00 -0.76423130980E+03  0.76423130980E+03  0.00000000000E+00 0. -1.
         23    2    1    2    0    0  0.36634308431E+02  0.21216370280E+02 -0.11830257464E+03  0.16170944515E+03  0.10179508123E+03 0.  0.
         23    2    1    2    0    0 -0.49457790311E+02 -0.74751855939E+02 -0.61190496650E+03  0.62595686952E+03  0.96749167837E+02 0.  0.
        -11    1    4    4    0    0 -0.13591273601E+02 -0.91310176085E+02 -0.41925466877E+03  0.42929797141E+03  0.00000000000E+00 0. -1.
         11    1    4    4    0    0 -0.35866516709E+02  0.16558320145E+02 -0.19265029773E+03  0.19665889810E+03  0.00000000000E+00 0.  1.
        -11    1    3    3    0    0 -0.28925849634E+02 -0.17660654877E+02 -0.32765110340E+02  0.47139749292E+02  0.00000000000E+00 0. -1.
         11    1    3    3    0    0  0.65560158065E+02  0.38877025157E+02 -0.85537464303E+02  0.11456969586E+03  0.00000000000E+00 0.  1.
         21    1    1    2  502  501  0.12823481879E+02  0.53535485660E+02  0.13780494377E+03  0.14839370755E+03  0.00000000000E+00 0.  1.
<scales pt_clust_5="13000.00000" pt_clust_6="13000.00000" pt_clust_7="13000.00000" pt_clust_8="13000.00000" pt_clust_9="55.04989"></scales>
<clustering>
<clus scale="   55.050">  1  9  2 -1</clus>
<clus scale="   96.749">  5  6 -1 -1</clus>
<clus scale="  101.795">  7  8 -1 -1</clus>
<clus scale="  123.725">  2  5  1 -1</clus>
<clus scale="  123.725">  2  5  1 -1</clus>
</clustering>
</event>
<event>
 9    1  0.1713970E-005  0.9509077E+02  0.7546771E-02  0.1291244E+00
          2   -1    0    0  502    0  0.00000000000E+00  0.00000000000E+00  0.30429903698E+03  0.30429903698E+03  0.00000000000E+00 0. -1.
         -2   -1    0    0    0  501 -0.00000000000E+00 -0.00000000000E+00 -0.61434493662E+02  0.61434493662E+02  0.00000000000E+00 0.  1.
         23    2    1    2    0    0  0.21169496851E+02 -0.69509209964E+01  0.81111850642E+02  0.12348083976E+03  0.90398686785E+02 0.  0.
         23    2    1    2    0    0 -0.13038367286E+01  0.38324012373E+02  0.17657590469E+03  0.20226965787E+03  0.90903984863E+02 0.  0.
        -11    1    3    3    0    0  0.23910151699E+02 -0.41802495674E+02  0.18149272496E+02  0.51463968861E+02  0.00000000000E+00 0.  1.
         11    1    3    3    0    0 -0.27406548488E+01  0.34851574677E+02  0.62962578146E+02  0.72016870894E+02  0.00000000000E+00 0. -1.
        -13    1    4    4    0    0  0.31176942628E+02 -0.10160611061E+02  0.29767090106E+02  0.44286786090E+02  0.00000000000E+00 0.  1.
         13    1    4    4    0    0 -0.32480779356E+02  0.48484623435E+02  0.14680881459E+03  0.15798287178E+03  0.00000000000E+00 0. -1.
         21    1    1    2  502  501 -0.19865660122E+02 -0.31373091377E+02 -0.14823212015E+02  0.39983033015E+02  0.00000000000E+00 0.  1.
<scales pt_clust_5="13000.00000" pt_clust_6="13000.00000" pt_clust_7="13000.00000" pt_clust_8="13000.00000" pt_clust_9="37.13375"></scales>
<clustering>
<clus scale="   37.134">  2  9  1 -1</clus>
<clus scale="   90.399">  5  6 -1 -1</clus>
<clus scale="   90.904">  7  8 -1 -1</clus>
<clus scale="   94.608">  2  5  1 -1</clus>
<clus scale="   95.091">  1  5  2 -1</clus>
</clustering>
</event>
<event>
 9    1  0.1713970E-005  0.1166160E+03  0.7546771E-02  0.1258580E+00
         -1   -1    0    0    0  501 -0.00000000000E+00  0.00000000000E+00  0.28530851206E+03  0.28530851206E+03  0.00000000000E+00 0.  1.
          1   -1    0    0  502    0  0.00000000000E+00 -0.00000000000E+00 -0.97109854174E+02  0.97109854174E+02  0.00000000000E+00 0. -1.
         23    2    1    2    0    0  0.35688691957E+02 -0.51782580514E+02  0.16740716871E+03  0.21068823237E+03  0.11139682556E+03 0.  0.
         23    2    1    2    0    0 -0.16438505903E+02  0.24856632080E+02 -0.39975484384E+02  0.10253330274E+03  0.89593315508E+02 0.  0.
        -11    1    3    3    0    0  0.39979860726E+02 -0.25831916591E+01  0.43294050004E+01  0.40296474913E+02  0.00000000000E+00 0.  1.
         11    1    3    3    0    0 -0.42911687686E+01 -0.49199388855E+02  0.16307776371E+03  0.17039175745E+03  0.00000000000E+00 0. -1.
        -13    1    4    4    0    0  0.37669267656E+01  0.22301588684E+02 -0.65837854156E+02  0.69614464265E+02  0.00000000000E+00 0. -1.
         13    1    4    4    0    0 -0.20205432668E+02  0.25550433958E+01  0.25862369772E+02  0.32918838471E+02  0.00000000000E+00 0.  1.
         21    1    1    2  502  501 -0.19250186054E+02  0.26925948434E+02  0.60766973559E+02  0.69196831125E+02  0.00000000000E+00 0. -1.
<scales pt_clust_5="13000.00000" pt_clust_6="13000.00000" pt_clust_7="13000.00000" pt_clust_8="13000.00000" pt_clust_9="33.09949"></scales>
<clustering>
<clus scale="   33.099">  1  9  2 -1</clus>
<clus scale="   89.593">  7  8 -1 -1</clus>
<clus scale="   96.005">  2  7  1 -1</clus>
<clus scale="  111.397">  5  6 -1 -1</clus>
<clus scale="   96.005">  2  5  1 -1</clus>
</clustering>
</event>
<event>
 9    1  0.1713970E-005  0.9157935E+02  0.7546771E-02  0.1299211E+00
         -1   -1    0    0    0  501 -0.00000000000E+00  0.00000000000E+00  0.33469191488E+02  0.33469191488E+02  0.00000000000E+00 0.  1.
          1   -1    0    0  502    0  0.00000000000E+00 -0.00000000000E+00 -0.57959354387E+03  0.57959354387E+03  0.00000000000E+00 0. -1.
         23    2    1    2    0    0  0.59469303115E+01 -0.42675976261E+02 -0.12725943023E+03  0.16246060690E+03  0.91333899961E+02 0.  0.
         23    2    1    2    0    0 -0.62753152346E+01 -0.19543058287E+02 -0.32371703603E+03  0.33691643750E+03  0.91096957840E+02 0.  0.
        -11    1    4    4    0    0  0.26822104859E+02 -0.39647881876E+02 -0.23930157684E+03  0.24404225971E+03  0.00000000000E+00 0. -1.
         11    1    4    4    0    0 -0.33097420094E+02  0.20104823589E+02 -0.84415459197E+02  0.92874177788E+02  0.00000000000E+00 0.  1.
        -13    1    3    3    0    0 -0.29438769118E+02  0.13740712150E+02 -0.27767038082E+02  0.42737064726E+02  0.00000000000E+00 0.  1.
         13    1    3    3    0    0  0.35385699429E+02 -0.56416688412E+02 -0.99492392149E+02  0.11972354217E+03  0.00000000000E+00 0. -1.
         21    1    1    2  502  501  0.32838492309E+00  0.62219034548E+02 -0.95147886121E+02  0.11368569096E+03  0.00000000000E+00 0.  1.
<scales pt_clust_5="13000.00000" pt_clust_6="13000.00000" pt_clust_7="13000.00000" pt_clust_8="13000.00000" pt_clust_9="62.21990"></scales>
<clustering>
<clus scale="   62.220">  1  9  2 -1</clus>
<clus scale="   91.097">  5  6 -1 -1</clus>
<clus scale="   91.334">  7  8 -1 -1</clus>
<clus scale="   91.343">  2  5  1 -1</clus>
<clus scale="   91.343">  2  5  1 -1</clus>
</clustering>
</event>
<event>
 9    1  0.1713970E-005  0.1242299E+03  0.7546771E-02  0.1236366E+00
         -2   -1    0    0    0  501 -0.00000000000E+00  0.00000000000E+00  0.16027845981E+03  0.16027845981E+03  0.00000000000E+00 0.  1.
          2   -1    0    0  502    0  0.00000000000E+00 -0.00000000000E+00 -0.40014756589E+03  0.40014756589E+03  0.00000000000E+00 0. -1.
         23    2    1    2    0    0 -0.42330951090E+02  0.53395256966E+02 -0.93141974855E+02  0.14676101985E+03  0.90666457854E+02 0.  0.
         23    2    1    2    0    0  0.81107894888E+02 -0.51144302304E+02 -0.26122354570E+03  0.29275947623E+03  0.90973291807E+02 0.  0.
        -11    1    4    4    0    0 -0.27393358744E+01 -0.41622835128E+02 -0.48858328226E+02  0.64242513977E+02  0.00000000000E+00 0. -1.
         11    1    4    4    0    0  0.83847230762E+02 -0.95214671761E+01 -0.21236521748E+03  0.22851696225E+03  0.00000000000E+00 0.  1.
        -13    1    3    3    0    0  0.19050694868E+02 -0.12887563542E+02 -0.21121772024E+02  0.31227352152E+02  0.00000000000E+00 0. -1.
         13    1    3    3    0    0 -0.61381645958E+02  0.66282820508E+02 -0.72020202831E+02  0.11553366769E+03  0.00000000000E+00 0.  1.
         21    1    1    2  502  501 -0.38776943798E+02 -0.22509546625E+01  0.11449641447E+03  0.12090552962E+03  0.00000000000E+00 0.  1.
<scales pt_clust_5="13000.00000" pt_clust_6="13000.00000" pt_clust_7="13000.00000" pt_clust_8="13000.00000" pt_clust_9="38.84222"></scales>
<clustering>
<clus scale="   38.842">  1  9  2 -1</clus>
<clus scale="   90.666">  7  8 -1 -1</clus>
<clus scale="   90.973">  5  6 -1 -1</clus>
<clus scale="  124.005">  1  7  2 -1</clus>
<clus scale="  124.230">  2  5  1 -1</clus>
</clustering>
</event>
<event>
 9    1  0.1713970E-005  0.2522876E+03  0.7546771E-02  0.1111997E+00
         -1   -1    0    0    0  501 -0.00000000000E+00  0.00000000000E+00  0.96886625445E+02  0.96886625445E+02  0.00000000000E+00 0.  1.
          1   -1    0    0  502    0  0.00000000000E+00 -0.00000000000E+00 -0.12415385138E+04  0.12415385138E+04  0.00000000000E+00 0. -1.
         23    2    1    2    0    0  0.60626956350E+02 -0.25042040698E+03 -0.21198433207E+03  0.34635358177E+03  0.92937820578E+02 0.  0.
         23    2    1    2    0    0 -0.37107822567E+02  0.22610984872E+03 -0.92516991088E+03  0.95742523611E+03  0.90670086326E+02 0.  0.
        -11    1    3    3    0    0  0.37111527740E+02 -0.12996513553E+03 -0.16880911240E+03  0.21625151646E+03  0.00000000000E+00 0. -1.
         11    1    3    3    0    0  0.23515428611E+02 -0.12045527145E+03 -0.43175219667E+02  0.13010206530E+03  0.00000000000E+00 0.  1.
        -13    1    4    4    0    0  0.26922039953E+02  0.45536252157E+02 -0.15481566831E+03  0.16360390475E+03  0.00000000000E+00 0.  1.
         13    1    4    4    0    0 -0.64029862520E+02  0.18057359656E+03 -0.77035424258E+03  0.79382133136E+03  0.00000000000E+00 0. -1.
         21    1    1    2  502  501 -0.23519133783E+02  0.24310558258E+02 -0.74976453866E+01  0.34646321350E+02  0.00000000000E+00 0. -1.
<scales pt_clust_5="13000.00000" pt_clust_6="13000.00000" pt_clust_7="13000.00000" pt_clust_8="13000.00000" pt_clust_9="33.82533"></scales>
<clustering>
<clus scale="   33.825">  1  9  2 -1</clus>
<clus scale="   90.670">  7  8 -1 -1</clus>
<clus scale="   92.938">  5  6 -1 -1</clus>
<clus scale="  251.461">  2  7  1 -1</clus>
<clus scale="  251.461">  2  5  1 -1</clus>
</clustering>
</event>
<event>
 9    1  0.1713970E-005  0.9451300E+02  0.7546771E-02  0.1293711E+00
         -2   -1    0    0    0  501 -0.00000000000E+00  0.00000000000E+00  0.11074305750E+03  0.11074305750E+03  0.00000000000E+00 0.  1.
          2   -1    0    0  502    0  0.00000000000E+00 -0.00000000000E+00 -0.25548729847E+03  0.25548729847E+03  0.00000000000E+00 0. -1.
         23    2    1    2    0    0 -0.21673986325E+02 -0.30844713895E+02  0.42107408998E+02  0.10783401664E+03  0.91836720286E+02 0.  0.
         23    2    1    2    0    0 -0.59977013537E+01  0.15171003364E+01 -0.19549947595E+03  0.21715781232E+03  0.94335551840E+02 0.  0.
        -13    1    4    4    0    0 -0.32524328812E+02  0.29925366358E+02 -0.15435482909E+03  0.16055769299E+03  0.00000000000E+00 0. -1.
         13    1    4    4    0    0  0.26526627459E+02 -0.28408266021E+02 -0.41144646858E+02  0.56600119326E+02  0.00000000000E+00 0.  1.
        -13    1    3    3    0    0 -0.24335618415E+02  0.18618688872E+02 -0.13395488630E+02  0.33441247204E+02  0.00000000000E+00 0. -1.
         13    1    3    3    0    0  0.26616320896E+01 -0.49463402767E+02  0.55502897628E+02  0.74392769432E+02  0.00000000000E+00 0.  1.
         21    1    1    2  502  501  0.27671687679E+02  0.29327613558E+02  0.86478259734E+01  0.41238527012E+02  0.00000000000E+00 0. -1.
<scales pt_clust_5="13000.00000" pt_clust_6="13000.00000" pt_clust_7="13000.00000" pt_clust_8="13000.00000" pt_clust_9="40.32160"></scales>
<clustering>
<clus scale="   40.322">  1  9  2 -1</clus>
<clus scale="   91.837">  7  8 -1 -1</clus>
<clus scale="   92.019">  1  7  2 -1</clus>
<clus scale="   94.336">  5  6 -1 -1</clus>
<clus scale="   94.513">  2  5  1 -1</clus>
</clustering>
</event>
<event>
 9    1  0.1713970E-005  0.2589135E+03  0.7546771E-02  0.1107868E+00
          1   -1    0    0  502    0  0.00000000000E+00  0.00000000000E+00  0.10583051483E+04  0.10583051483E+04  0.00000000000E+00 0. -1.
         -1   -1    0    0    0  501 -0.00000000000E+00 -0.00000000000E+00 -0.90573097822E+02  0.90573097822E+02  0.00000000000E+00 0.  1.
         23    2    1    2    0    0  0.23847053953E+03 -0.68586196955E+02  0.20801570844E+03  0.33632977250E+03  0.90966566809E+02 0.  0.
         23    2    1    2    0    0 -0.20927585134E+03  0.92444791599E+02  0.70052682902E+03  0.74237040862E+03  0.89630150989E+02 0.  0.
        -11    1    3    3    0    0  0.13395407406E+03  0.48518125970E+01  0.83364691374E+02  0.15785089740E+03  0.00000000000E+00 0.  1.
         11    1    3    3    0    0  0.10451646547E+03 -0.73438009552E+02  0.12465101706E+03  0.17847887509E+03  0.00000000000E+00 0. -1.
        -13    1    4    4    0    0 -0.29659363631E+02  0.18489761834E+02  0.36582302971E+02  0.50594604795E+02  0.00000000000E+00 0.  1.
         13    1    4    4    0    0 -0.17961648771E+03  0.73955029765E+02  0.66394452605E+03  0.69177580382E+03  0.00000000000E+00 0. -1.
         21    1    1    2  502  501 -0.29194688184E+02 -0.23858594644E+02  0.59189513024E+02  0.70178065010E+02  0.00000000000E+00 0. -1.
<scales pt_clust_5="13000.00000" pt_clust_6="13000.00000" pt_clust_7="13000.00000" pt_clust_8="13000.00000" pt_clust_9="37.70361"></scales>
<clustering>
<clus scale="   37.704">  1  9  2 -1</clus>
<clus scale="   89.630">  7  8 -1 -1</clus>
<clus scale="   90.967">  5  6 -1 -1</clus>
<clus scale="  258.447">  1  7  2 -1</clus>
<clus scale="   37.704">  1  5  2 -1</clus>
</clustering>
</event>
<event>
 9    1  0.1713970E-005  0.1023885E+03  0.7546771E-02  0.1275715E+00
         -2   -1    0    0    0  501 -0.00000000000E+00  0.00000000000E+00  0.31837752065E+02  0.31837752065E+02  0.00000000000E+00 0.  1.
          2   -1    0    0  502    0  0.00000000000E+00 -0.00000000000E+00 -0.65018486030E+03  0.65018486030E+03  0.00000000000E+00 0. -1.
         23    2    1    2    0    0 -0.50745448783E+02  0.50939400156E+02 -0.33350900910E+03  0.35296300568E+03  0.90469338284E+02 0.  0.
         23    2    1    2    0    0  0.22294826119E+02 -0.11345989903E+02 -0.25477103723E+03  0.27177868248E+03  0.91266533203E+02 0.  0.
        -13    1    3    3    0    0 -0.42224144016E+02 -0.17743651159E+02 -0.15000502881E+03  0.15684139812E+03  0.00000000000E+00 0.  1.
         13    1    3    3    0    0 -0.85213047674E+01  0.68683051315E+02 -0.18350398029E+03  0.19612160756E+03  0.00000000000E+00 0. -1.
        -13    1    4    4    0    0  0.49191658498E+02 -0.19304808575E+02 -0.22396939745E+03  0.23011906895E+03  0.00000000000E+00 0. -1.
         13    1    4    4    0    0 -0.26896832379E+02  0.79588186715E+01 -0.30801639775E+02  0.41659613530E+02  0.00000000000E+00 0.  1.
         21    1    1    2  502  501  0.28450622664E+02 -0.39593410253E+02 -0.30067061908E+02  0.57280924200E+02  0.00000000000E+00 0.  1.
<scales pt_clust_5="13000.00000" pt_clust_6="13000.00000" pt_clust_7="13000.00000" pt_clust_8="13000.00000" pt_clust_9="48.75527"></scales>
<clustering>
<clus scale="   48.755">  1  9  2 -1</clus>
<clus scale="   90.469">  5  6 -1 -1</clus>
<clus scale="   91.267">  7  8 -1 -1</clus>
<clus scale="  101.679">  1  5  2 -1</clus>
<clus scale="  102.388">  2  5  1 -1</clus>
</clustering>
</event>
<event>
 9    1  0.1713970E-005  0.1192285E+03  0.7546771E-02  0.1245336E+00
         -1   -1    0    0    0  501 -0.00000000000E+00  0.00000000000E+00  0.49300432302E+02  0.49300432302E+02  0.00000000000E+00 0.  1.
          1   -1    0    0  502    0  0.00000000000E+00 -0.00000000000E+00 -0.50241443429E+03  0.50241443429E+03  0.00000000000E+00 0. -1.
         23    2    1    2    0    0  0.28649978388E+02  0.49636561743E+02 -0.95293286055E+02  0.14321343248E+03  0.90247810791E+02 0.  0.
         23    2    1    2    0    0  0.13964842845E+02 -0.94333240134E+02 -0.28562093671E+03  0.31349288625E+03  0.87204892109E+02 0.  0.
        -13    1    4    4    0    0 -0.42169285162E+01 -0.47166815624E+02 -0.37863139013E+02  0.60630918500E+02  0.00000000000E+00 0.  1.
         13    1    4    4    0    0  0.18181771361E+02 -0.47166424510E+02 -0.24775779770E+03  0.25286196775E+03  0.00000000000E+00 0. -1.
        -13    1    3    3    0    0 -0.23095737696E+02  0.49940798482E+02 -0.45462859159E+02  0.71374841615E+02  0.00000000000E+00 0.  1.
         13    1    3    3    0    0  0.51745716084E+02 -0.30423673819E+00 -0.49830426895E+02  0.71838590866E+02  0.00000000000E+00 0. -1.
         21    1    1    2  502  501 -0.42614821233E+02  0.44696678391E+02 -0.72199779220E+02  0.95008547864E+02  0.00000000000E+00 0.  1.
<scales pt_clust_5="13000.00000" pt_clust_6="13000.00000" pt_clust_7="13000.00000" pt_clust_8="13000.00000" pt_clust_9="61.75610"></scales>
<clustering>
<clus scale="   61.756">  1  9  2 -1</clus>
<clus scale="   87.205">  5  6 -1 -1</clus>
<clus scale="   90.248">  7  8 -1 -1</clus>
<clus scale="  116.942">  2  5  1 -1</clus>
<clus scale="  116.942">  2  5  1 -1</clus>
</clustering>
</event>
<event>
 9    1  0.1713970E-005  0.1754537E+03  0.7546771E-02  0.1172657E+00
          3   -1    0    0  502    0  0.00000000000E+00  0.00000000000E+00  0.16656913984E+03  0.16656913984E+03  0.00000000000E+00 0. -1.
         -3   -1    0    0    0  501 -0.00000000000E+00 -0.00000000000E+00 -0.20611020549E+03  0.20611020549E+03  0.00000000000E+00 0.  1.
         23    2    1    2    0    0  0.10616542103E+03 -0.11924908815E+03 -0.34364780362E+02  0.18710886667E+03  0.91309080666E+02 0.  0.
         23    2    1    2    0    0 -0.94226598247E+02  0.10301311133E+03 -0.66764609746E+01  0.16536174392E+03  0.88371818451E+02 0.  0.
        -13    1    4    4    0    0 -0.88195727054E+02  0.50647214177E+02  0.23830569937E+02  0.10445823394E+03  0.00000000000E+00 0. -1.
         13    1    4    4    0    0 -0.60308711929E+01  0.52365897158E+02 -0.30507030912E+02  0.60903509977E+02  0.00000000000E+00 0.  1.
        -13    1    3    3    0    0  0.10224441376E+03 -0.83779407824E+02  0.71328850616E+01  0.13237744283E+03  0.00000000000E+00 0.  1.
         13    1    3    3    0    0  0.39210072660E+01 -0.35469680324E+02 -0.41497665423E+02  0.54731423842E+02  0.00000000000E+00 0. -1.
         21    1    1    2  502  501 -0.11938822783E+02  0.16235976813E+02  0.15001756918E+01  0.20208734735E+02  0.00000000000E+00 0.  1.
<scales pt_clust_5="13000.00000" pt_clust_6="13000.00000" pt_clust_7="13000.00000" pt_clust_8="13000.00000" pt_clust_9="20.15298"></scales>
<clustering>
<clus scale="   20.153">  1  9  2 -1</clus>
<clus scale="   88.372">  5  6 -1 -1</clus>
<clus scale="   91.309">  7  8 -1 -1</clus>
<clus scale="  173.943">  1  5  2 -1</clus>
<clus scale="   20.153">  1  5  2 -1</clus>
</clustering>
</event>
<event>
 9    1  0.1713970E-005  0.9982204E+02  0.7546771E-02  0.1280871E+00
         -1   -1    0    0    0  501 -0.00000000000E+00  0.00000000000E+00  0.17009402742E+03  0.17009402742E+03  0.00000000000E+00 0.  1.
          1   -1    0    0  502    0  0.00000000000E+00 -0.00000000000E+00 -0.19605959527E+03  0.19605959527E+03  0.00000000000E+00 0. -1.
         23    2    1    2    0    0  0.18321087049E+02  0.66319853809E+02 -0.17726054167E+02  0.11533710578E+03  0.90854002302E+02 0.  0.
         23    2    1    2    0    0 -0.20404176997E+02 -0.24971494673E+02 -0.10698009124E+03  0.14374771789E+03  0.90436499778E+02 0.  0.
        -11    1    3    3    0    0  0.53661642409E+02  0.52533014537E+02 -0.18705742170E+02  0.77389884820E+02  0.00000000000E+00 0.  1.
         11    1    3    3    0    0 -0.35340555360E+02  0.13786839272E+02  0.97968800337E+00  0.37947220963E+02  0.00000000000E+00 0. -1.
        -11    1    4    4    0    0  0.14406687887E+02  0.26876845902E+02 -0.19257244547E+02  0.36066036226E+02  0.00000000000E+00 0.  1.
         11    1    4    4    0    0 -0.34810864884E+02 -0.51848340575E+02 -0.87722846689E+02  0.10768168166E+03  0.00000000000E+00 0. -1.
         21    1    1    2  502  501  0.20830899485E+01 -0.41348359136E+02  0.98740577552E+02  0.10706879901E+03  0.00000000000E+00 0.  1.
<scales pt_clust_5="13000.00000" pt_clust_6="13000.00000" pt_clust_7="13000.00000" pt_clust_8="13000.00000" pt_clust_9="41.40080"></scales>
<clustering>
<clus scale="   41.401">  1  9  2 -1</clus>
<clus scale="   90.436">  7  8 -1 -1</clus>
<clus scale="   90.854">  5  6 -1 -1</clus>
<clus scale="   99.442">  2  7  1 -1</clus>
<clus scale="   99.442">  2  5  1 -1</clus>
</clustering>
</event>
<event>
 9    1  0.1713970E-005  0.1180588E+03  0.7546771E-02  0.1256715E+00
          1   -1    0    0  502    0  0.00000000000E+00  0.00000000000E+00  0.71766839153E+03  0.71766839153E+03  0.00000000000E+00 0. -1.
         -1   -1    0    0    0  501 -0.00000000000E+00 -0.00000000000E+00 -0.35215109182E+02  0.35215109182E+02  0.00000000000E+00 0.  1.
         23    2    1    2    0    0 -0.63125456271E+02 -0.47922640296E+02  0.26363595086E+03  0.29761141226E+03  0.11308065899E+03 0.  0.
         23    2    1    2    0    0 -0.75267324889E+01  0.24579677365E+02  0.30750953522E+03  0.32138388433E+03  0.89803533399E+02 0.  0.
        -11    1    3    3    0    0  0.86987027980E+01  0.30236274588E+02  0.71175432616E+02  0.77819290278E+02  0.00000000000E+00 0.  1.
         11    1    3    3    0    0 -0.71824159069E+02 -0.78158914883E+02  0.19246051825E+03  0.21979212198E+03  0.00000000000E+00 0. -1.
        -11    1    4    4    0    0  0.35250426020E+02 -0.25617665147E+01  0.68682454014E+02  0.77242699796E+02  0.00000000000E+00 0.  1.
         11    1    4    4    0    0 -0.42777158509E+02  0.27141443880E+02  0.23882708121E+03  0.24414118453E+03  0.00000000000E+00 0. -1.
         21    1    1    2  502  501  0.70652188760E+02  0.23342962931E+02  0.11130779626E+03  0.13388820412E+03  0.00000000000E+00 0.  1.
<scales pt_clust_5="13000.00000" pt_clust_6="13000.00000" pt_clust_7="13000.00000" pt_clust_8="13000.00000" pt_clust_9="74.40851"></scales>
<clustering>
<clus scale="   74.409">  2  9  1 -1</clus>
<clus scale="   89.804">  7  8 -1 -1</clus>
<clus scale="   95.996">  1  7  2 -1</clus>
<clus scale="  113.081">  5  6 -1 -1</clus>
<clus scale="   95.996">  1  5  2 -1</clus>
</clustering>
</event>
<event>
 9    1  0.1713970E-005  0.1268944E+03  0.7546771E-02  0.1239413E+00
         -2   -1    0    0    0  501 -0.00000000000E+00  0.00000000000E+00  0.55628680316E+02  0.55628680316E+02  0.00000000000E+00 0.  1.
          2   -1    0    0  502    0  0.00000000000E+00 -0.00000000000E+00 -0.34060436353E+03  0.34060436353E+03  0.00000000000E+00 0. -1.
         23    2    1    2    0    0  0.67819764174E+02  0.38327004661E+02 -0.89893586085E+02  0.14848208644E+03  0.88868405391E+02 0.  0.
         23    2    1    2    0    0 -0.46362397564E+02 -0.29278637115E+02 -0.18588080095E+03  0.22271188017E+03  0.10973695326E+03 0.  0.
        -13    1    4    4    0    0 -0.68887875351E+02 -0.27263961237E+02 -0.18587560460E+03  0.20009648508E+03  0.00000000000E+00 0. -1.
         13    1    4    4    0    0  0.22525477787E+02 -0.20146758785E+01 -0.51963431586E-02  0.22615395098E+02  0.00000000000E+00 0.  1.
        -13    1    3    3    0    0  0.73703496744E+02  0.38016196771E+01 -0.85872717779E+02  0.11322888944E+03  0.00000000000E+00 0.  1.
         13    1    3    3    0    0 -0.58837325699E+01  0.34525384984E+02 -0.40208683058E+01  0.35253197007E+02  0.00000000000E+00 0. -1.
         21    1    1    2  502  501 -0.21457366610E+02 -0.90483675460E+01 -0.92012961824E+01  0.25039077230E+02  0.00000000000E+00 0.  1.
<scales pt_clust_5="13000.00000" pt_clust_6="13000.00000" pt_clust_7="13000.00000" pt_clust_8="13000.00000" pt_clust_9="23.28715"></scales>
<clustering>
<clus scale="   23.287">  1  9  2 -1</clus>
<clus scale="   88.868">  7  8 -1 -1</clus>
<clus scale="  109.351">  1  7  2 -1</clus>
<clus scale="  109.737">  5  6 -1 -1</clus>
<clus scale="  126.894">  2  5  1 -1</clus>
</clustering>
</event>
<event>
 9    1  0.1713970E-005  0.2612755E+03  0.7546771E-02  0.1106485E+00
          2   -1    0    0  502    0  0.00000000000E+00  0.00000000000E+00  0.24893406435E+03  0.24893406435E+03  0.00000000000E+00 0. -1.
         -2   -1    0    0    0  501 -0.00000000000E+00 -0.00000000000E+00 -0.34321153820E+03  0.34321153820E+03  0.00000000000E+00 0.  1.
         23    2    1    2    0    0 -0.35009170757E+02  0.25299502360E+03 -0.94186075817E+02  0.28645030413E+03  0.89166338135E+02 0.  0.
         23    2    1    2    0    0  0.52593125945E+02 -0.23319846832E+03  0.38654982795E+02  0.25876576500E+03  0.91202801030E+02 0.  0.
        -13    1    3    3    0    0 -0.99227504890E+01  0.13468468272E+03 -0.95666034810E+02  0.16550049834E+03  0.00000000000E+00 0.  1.
         13    1    3    3    0    0 -0.25086420268E+02  0.11831034088E+03  0.14799589933E+01  0.12094980579E+03  0.00000000000E+00 0. -1.
        -13    1    4    4    0    0  0.29155505523E+01 -0.16123408857E+03  0.53841419167E+02  0.17001126483E+03  0.00000000000E+00 0.  1.
         13    1    4    4    0    0  0.49677575392E+02 -0.71964379749E+02 -0.15186436371E+02  0.88754500163E+02  0.00000000000E+00 0. -1.
         21    1    1    2  502  501 -0.17583955187E+02 -0.19796555276E+02 -0.38746380827E+02  0.46929533430E+02  0.00000000000E+00 0.  1.
<scales pt_clust_5="13000.00000" pt_clust_6="13000.00000" pt_clust_7="13000.00000" pt_clust_8="13000.00000" pt_clust_9="26.47828"></scales>
<clustering>
<clus scale="   26.478">  2  9  1 -1</clus>
<clus scale="   89.166">  5  6 -1 -1</clus>
<clus scale="   91.203">  7  8 -1 -1</clus>
<clus scale="  260.572">  2  5  1 -1</clus>
<clus scale="  261.276">  1  5  2 -1</clus>
</clustering>
</event>
<event>
 9    1  0.1713970E-005  0.1090698E+03  0.7546771E-02  0.1270077E+00
          1   -1    0    0  502    0  0.00000000000E+00  0.00000000000E+00  0.69233959751E+03  0.69233959751E+03  0.00000000000E+00 0. -1.
         -1   -1    0    0    0  501 -0.00000000000E+00 -0.00000000000E+00 -0.20913519183E+02  0.20913519183E+02  0.00000000000E+00 0.  1.
         23    2    1    2    0    0  0.45677530865E+02 -0.10265708364E+02  0.23040243304E+03  0.25262732548E+03  0.92430854353E+02 0.  0.
         23    2    1    2    0    0 -0.70779220292E+02  0.12635608959E+02  0.29547667556E+03  0.31291109445E+03  0.73739613455E+02 0.  0.
        -13    1    3    3    0    0 -0.18076041992E+02 -0.29559252091E+02  0.10593971551E+03  0.11146172438E+03  0.00000000000E+00 0. -1.
         13    1    3    3    0    0  0.63753572857E+02  0.19293543727E+02  0.12446271752E+03  0.14116560110E+03  0.00000000000E+00 0.  1.
        -13    1    4    4    0    0 -0.12967446785E+02 -0.22734849601E+02  0.34656260192E+02  0.43429073591E+02  0.00000000000E+00 0.  1.
         13    1    4    4    0    0 -0.57811773507E+02  0.35370458560E+02  0.26082041537E+03  0.26948202086E+03  0.00000000000E+00 0. -1.
         21    1    1    2  502  501  0.25101689427E+02 -0.23699005946E+01  0.14554696973E+03  0.14771469676E+03  0.00000000000E+00 0. -1.
<scales pt_clust_5="13000.00000" pt_clust_6="13000.00000" pt_clust_7="13000.00000" pt_clust_8="13000.00000" pt_clust_9="25.21331"></scales>
<clustering>
<clus scale="   25.213">  1  9  2 -1</clus>
<clus scale="   73.740">  7  8 -1 -1</clus>
<clus scale="   92.431">  5  6 -1 -1</clus>
<clus scale="   93.757">  1  7  2 -1</clus>
<clus scale="   25.213">  1  5  2 -1</clus>
</clustering>
</event>
<event>
 9    1  0.1713970E-005  0.9420028E+02  0.7546771E-02  0.1293083E+00
         -1   -1    0    0    0  501 -0.00000000000E+00  0.00000000000E+00  0.19497317031E+02  0.19497317031E+02  0.00000000000E+00 0.  1.
          1   -1    0    0  502    0  0.00000000000E+00 -0.00000000000E+00 -0.77826205327E+03  0.77826205327E+03  0.00000000000E+00 0. -1.
         23    2    1    2    0    0 -0.76845568271E+01  0.22888074370E+02 -0.26372106201E+03  0.28050047515E+03  0.92459729880E+02 0.  0.
         23    2    1    2    0    0  0.24955338299E+02  0.18070058790E+02 -0.40897686320E+03  0.42039123014E+03  0.92289846736E+02 0.  0.
        -11    1    3    3    0    0  0.34283832133E+02  0.26476916449E+02 -0.19614793913E+03  0.20087414537E+03  0.00000000000E+00 0. -1.
         11    1    3    3    0    0 -0.41968388960E+02 -0.35888420784E+01 -0.67573122872E+02  0.79626329779E+02  0.00000000000E+00 0.  1.
        -11    1    4    4    0    0  0.25374477758E+02 -0.32776972685E+02 -0.11956584544E+03  0.12654716692E+03  0.00000000000E+00 0.  1.
         11    1    4    4    0    0 -0.41913945875E+00  0.50847031475E+02 -0.28941101776E+03  0.29384406322E+03  0.00000000000E+00 0. -1.
         21    1    1    2  502  501 -0.17270781472E+02 -0.40958133160E+02 -0.86066811038E+02  0.96867665022E+02  0.00000000000E+00 0.  1.
<scales pt_clust_5="13000.00000" pt_clust_6="13000.00000" pt_clust_7="13000.00000" pt_clust_8="13000.00000" pt_clust_9="44.45052"></scales>
<clustering>
<clus scale="   44.451">  1  9  2 -1</clus>
<clus scale="   92.290">  7  8 -1 -1</clus>
<clus scale="   92.460">  5  6 -1 -1</clus>
<clus scale="   94.034">  2  7  1 -1</clus>
<clus scale="   94.034">  2  5  1 -1</clus>
</clustering>
</event>
<event>
 9    1  0.1713970E-005  0.2202962E+03  0.7546771E-02  0.1136794E+00
         -1   -1    0    0    0  501 -0.00000000000E+00  0.00000000000E+00  0.15251222858E+03  0.15251222858E+03  0.00000000000E+00 0.  1.
          1   -1    0    0  502    0  0.00000000000E+00 -0.00000000000E+00 -0.36542050169E+03  0.36542050169E+03  0.00000000000E+00 0. -1.
         23    2    1    2    0    0  0.16686206005E+03 -0.42812339240E+02 -0.29623603367E+02  0.19742257085E+03  0.91772926986E+02 0.  0.
         23    2    1    2    0    0 -0.18813236048E+03  0.22277471508E+02 -0.18296484087E+03  0.29094313787E+03  0.12361919624E+03 0.  0.
        -11    1    3    3    0    0  0.86475051821E+02 -0.55749531848E+02  0.15946126572E+02  0.10411639564E+03  0.00000000000E+00 0.  1.
         11    1    3    3    0    0  0.80387008229E+02  0.12937192608E+02 -0.45569729939E+02  0.93306175204E+02  0.00000000000E+00 0. -1.
        -13    1    4    4    0    0 -0.35218664839E+02 -0.25424145692E+02  0.52963560800E+01  0.43758346917E+02  0.00000000000E+00 0.  1.
         13    1    4    4    0    0 -0.15291369564E+03  0.47701617200E+02 -0.18826119695E+03  0.24718479095E+03  0.00000000000E+00 0. -1.
         21    1    1    2  502  501  0.21270300433E+02  0.20534867732E+02 -0.31982887580E+00  0.29567021557E+02  0.00000000000E+00 0.  1.
<scales pt_clust_5="13000.00000" pt_clust_6="13000.00000" pt_clust_7="13000.00000" pt_clust_8="13000.00000" pt_clust_9="29.56529"></scales>
<clustering>
<clus scale="   29.565">  1  9  2 -1</clus>
<clus scale="   91.773">  5  6 -1 -1</clus>
<clus scale="  123.619">  7  8 -1 -1</clus>
<clus scale="  204.135">  1  5  2 -1</clus>
<clus scale="  220.296">  2  5  1 -1</clus>
</clustering>
</event>
<event>
 9    1  0.1713970E-005  0.1447692E+03  0.7546771E-02  0.1207948E+00
         -2   -1    0    0    0  501 -0.00000000000E+00  0.00000000000E+00  0.22161733059E+03  0.22161733059E+03  0.00000000000E+00 0.  1.
          2   -1    0    0  502    0  0.00000000000E+00 -0.00000000000E+00 -0.18253609013E+03  0.18253609013E+03  0.00000000000E+00 0. -1.
         23    2    1    2    0    0 -0.11922594531E+03 -0.71638656290E+02 -0.32002495353E+02  0.16957800150E+03  0.91573007884E+02 0.  0.
         23    2    1    2    0    0  0.79877037058E+02  0.28003681942E+02 -0.16728533653E+02  0.12891870038E+03  0.95789562157E+02 0.  0.
        -13    1    4    4    0    0  0.13301729437E+01 -0.27961948022E+02 -0.16457062253E+02  0.32472677673E+02  0.00000000000E+00 0. -1.
         13    1    4    4    0    0  0.78546864114E+02  0.55965629964E+02 -0.27147139999E+00  0.96446022708E+02  0.00000000000E+00 0.  1.
        -13    1    3    3    0    0 -0.45891135688E+02 -0.29227943304E+02  0.32254162080E+02  0.63250296252E+02  0.00000000000E+00 0.  1.
         13    1    3    3    0    0 -0.73334809620E+02 -0.42410712986E+02 -0.64256657433E+02  0.10632770524E+03  0.00000000000E+00 0. -1.
         21    1    1    2  502  501  0.39348908250E+02  0.43634974348E+02  0.87812269472E+02  0.10565671884E+03  0.00000000000E+00 0.  1.
<scales pt_clust_5="13000.00000" pt_clust_6="13000.00000" pt_clust_7="13000.00000" pt_clust_8="13000.00000" pt_clust_9="58.75668"></scales>
<clustering>
<clus scale="   58.757">  1  9  2 -1</clus>
<clus scale="   91.573">  7  8 -1 -1</clus>
<clus scale="   95.790">  5  6 -1 -1</clus>
<clus scale="  142.014">  1  7  2 -1</clus>
<clus scale="  144.769">  2  5  1 -1</clus>
</clustering>
</event>
<event>
 9    1  0.1713970E-005  0.1121598E+03  0.7546771E-02  0.1256623E+00
         -1   -1    0    0    0  501 -0.00000000000E+00  0.00000000000E+00  0.14324737355E+03  0.14324737355E+03  0.00000000000E+00 0.  1.
          1   -1    0    0  502    0  0.00000000000E+00 -0.00000000000E+00 -0.32177376337E+03  0.32177376337E+03  0.00000000000E+00 0. -1.
         23    2    1    2    0    0 -0.43739299410E+02 -0.73847514975E+02 -0.13321666897E+03  0.18315754688E+03  0.91833677420E+02 0.  0.
         23    2    1    2    0    0  0.57387505027E+02  0.11560737492E+02 -0.13397315946E+03  0.17265222840E+03  0.91831411454E+02 0.  0.
        -13    1    4    4    0    0  0.69313461986E+02 -0.12162399290E+02 -0.54941951240E+02  0.89279885613E+02  0.00000000000E+00 0. -1.
         13    1    4    4    0    0 -0.11925956959E+02  0.23723136783E+02 -0.79031208224E+02  0.83372342786E+02  0.00000000000E+00 0.  1.
        -13    1    3    3    0    0 -0.43795515194E+02 -0.27548453795E+02 -0.11596945851E+02  0.53023142218E+02  0.00000000000E+00 0.  1.
         13    1    3    3    0    0  0.56215784787E-01 -0.46299061180E+02 -0.12161972312E+03  0.13013440467E+03  0.00000000000E+00 0. -1.
         21    1    1    2  502  501 -0.13648205617E+02  0.62286777483E+02  0.88663438604E+02  0.10921136164E+03  0.00000000000E+00 0.  1.
<scales pt_clust_5="13000.00000" pt_clust_6="13000.00000" pt_clust_7="13000.00000" pt_clust_8="13000.00000" pt_clust_9="63.76454"></scales>
<clustering>
<clus scale="   63.765">  1  9  2 -1</clus>
<clus scale="   91.831">  5  6 -1 -1</clus>
<clus scale="   91.834">  7  8 -1 -1</clus>
<clus scale="  112.158">  2  5  1 -1</clus>
<clus scale="  112.158">  2  5  1 -1</clus>
</clustering>
</event>
<event>
 9    1  0.1713970E-005  0.1978913E+03  0.7546771E-02  0.1151641E+00
          2   -1    0    0  502    0  0.00000000000E+00  0.00000000000E+00  0.23175043769E+03  0.23175043769E+03  0.00000000000E+00 0. -1.
         -2   -1    0    0    0  501 -0.00000000000E+00 -0.00000000000E+00 -0.32945661580E+03  0.32945661580E+03  0.00000000000E+00 0.  1.
         23    2    1    2    0    0 -0.17045399342E+03  0.51277726818E+02 -0.21206126552E+03  0.29150607444E+03  0.91224130357E+02 0.  0.
         23    2    1    2    0    0  0.17306546051E+03 -0.28356209336E+02  0.13483007527E+03  0.23885554419E+03  0.90094914167E+02 0.  0.
        -13    1    3    3    0    0 -0.34206563954E+01  0.28441599402E+02 -0.50182258626E+02  0.57783081845E+02  0.00000000000E+00 0.  1.
         13    1    3    3    0    0 -0.16703333703E+03  0.22836127416E+02 -0.16187900689E+03  0.23372299259E+03  0.00000000000E+00 0. -1.
        -13    1    4    4    0    0  0.79881400632E+02  0.16989585020E+02  0.19811065191E+02  0.84036673364E+02  0.00000000000E+00 0.  1.
         13    1    4    4    0    0  0.93184059882E+02 -0.45345794355E+02  0.11501901008E+03  0.15481887082E+03  0.00000000000E+00 0. -1.
         21    1    1    2  502  501 -0.26114670893E+01 -0.22921517483E+02 -0.20474987861E+02  0.30845434864E+02  0.00000000000E+00 0.  1.
<scales pt_clust_5="13000.00000" pt_clust_6="13000.00000" pt_clust_7="13000.00000" pt_clust_8="13000.00000" pt_clust_9="23.06980"></scales>
<clustering>
<clus scale="   23.070">  2  9  1 -1</clus>
<clus scale="   90.095">  7  8 -1 -1</clus>
<clus scale="   91.224">  5  6 -1 -1</clus>
<clus scale="  197.373">  1  7  2 -1</clus>
<clus scale="  197.373">  1  5  2 -1</clus>
</clustering>
</event>
<event>
 9    1  0.1713970E-005  0.1150250E+03  0.7546771E-02  0.1254479E+00
          2   -1    0    0  502    0  0.00000000000E+00  0.00000000000E+00  0.81384166003E+02  0.81384166003E+02  0.00000000000E+00 0. -1.
         -2   -1    0    0    0  501 -0.00000000000E+00 -0.00000000000E+00 -0.20000379995E+03  0.20000379995E+03  0.00000000000E+00 0.  1.
         23    2    1    2    0    0 -0.42166347854E+02 -0.50494454588E+02 -0.54285898118E+02  0.13208017705E+03  0.10084901387E+03 0.  0.
         23    2    1    2    0    0  0.37208221800E+02  0.30254116980E+02 -0.29980091005E+02  0.10912785370E+03  0.93329091031E+02 0.  0.
        -11    1    3    3    0    0  0.89253739593E+01 -0.55039321863E+02 -0.58248070850E+02  0.80633907317E+02  0.00000000000E+00 0.  1.
         11    1    3    3    0    0 -0.51091721813E+02  0.45448672753E+01  0.39621727324E+01  0.51446269730E+02  0.00000000000E+00 0. -1.
        -13    1    4    4    0    0  0.57508105847E+01  0.46441973803E+02  0.17460762553E+02  0.49948042825E+02  0.00000000000E+00 0. -1.
         13    1    4    4    0    0  0.31457411216E+02 -0.16187856823E+02 -0.47440853558E+02  0.59179810875E+02  0.00000000000E+00 0.  1.
         21    1    1    2  502  501  0.49581260538E+01  0.20240337608E+02 -0.34353644824E+02  0.40179935205E+02  0.00000000000E+00 0. -1.
<scales pt_clust_5="13000.00000" pt_clust_6="13000.00000" pt_clust_7="13000.00000" pt_clust_8="13000.00000" pt_clust_9="20.83877"></scales>
<clustering>
<clus scale="   20.839">  2  9  1 -1</clus>
<clus scale="   93.329">  7  8 -1 -1</clus>
<clus scale="  100.849">  5  6 -1 -1</clus>
<clus scale="  108.492">  1  7  2 -1</clus>
<clus scale="  108.492">  1  5  2 -1</clus>
</clustering>
</event>
<event>
 9    1  0.1713970E-005  0.2083678E+03  0.7546771E-02  0.1144303E+00
         -2   -1    0    0    0  501 -0.00000000000E+00  0.00000000000E+00  0.15249445549E+03  0.15249445549E+03  0.00000000000E+00 0.  1.
          2   -1    0    0  502    0  0.00000000000E+00 -0.00000000000E+00 -0.44871325497E+03  0.44871325497E+03  0.00000000000E+00 0. -1.
         23    2    1    2    0    0 -0.89836978627E+02  0.12664553138E+03 -0.38020321205E+02  0.18289141157E+03  0.88847905182E+02 0.  0.
         23    2    1    2    0    0  0.90113840874E+02 -0.17197970429E+03 -0.28913457346E+03  0.36343182139E+03  0.10385742257E+03 0.  0.
        -11    1    4    4    0    0  0.10199779300E+03 -0.12158417158E+03 -0.16501748418E+03  0.22894765917E+03  0.00000000000E+00 0.  1.
         11    1    4    4    0    0 -0.11883952123E+02 -0.50395532706E+02 -0.12411708928E+03  0.13448416221E+03  0.00000000000E+00 0. -1.
        -13    1    3    3    0    0 -0.23852001745E+02  0.10612985894E+03 -0.13703335001E+02  0.10963688401E+03  0.00000000000E+00 0.  1.
         13    1    3    3    0    0 -0.65984976882E+02  0.20515672437E+02 -0.24316986204E+02  0.73254527558E+02  0.00000000000E+00 0. -1.
         21    1    1    2  502  501 -0.27686224727E+00  0.45334172912E+02  0.30936095179E+02  0.54884477507E+02  0.00000000000E+00 0.  1.
<scales pt_clust_5="13000.00000" pt_clust_6="13000.00000" pt_clust_7="13000.00000" pt_clust_8="13000.00000" pt_clust_9="45.33502"></scales>
<clustering>
<clus scale="   45.335">  1  9  2 -1</clus>
<clus scale="   88.848">  7  8 -1 -1</clus>
<clus scale="  103.857">  5  6 -1 -1</clus>
<clus scale="  201.308">  1  7  2 -1</clus>
<clus scale="  208.368">  2  5  1 -1</clus>
</clustering>
</event>
<event>
 9    1  0.1713970E-005  0.9841544E+02  0.7546771E-02  0.1285217E+00
         -1   -1    0    0    0  501 -0.00000000000E+00  0.00000000000E+00  0.33194576477E+03  0.33194576477E+03  0.00000000000E+00 0.  1.
          1   -1    0    0  502    0  0.00000000000E+00 -0.00000000000E+00 -0.45343777972E+02  0.45343777972E+02  0.00000000000E+00 0. -1.
         23    2    1    2    0    0  0.32672800378E+02  0.32233631197E+02  0.19899396325E+03  0.22359646847E+03  0.91050889274E+02 0.  0.
         23    2    1    2    0    0 -0.16455633183E+02 -0.15771143210E+02  0.48412414448E+02  0.10819246114E+03  0.94033663937E+02 0.  0.
        -13    1    3    3    0    0 -0.20220039767E+01 -0.26394370324E+02  0.23702694611E+02  0.35532647195E+02  0.00000000000E+00 0.  1.
         13    1    3    3    0    0  0.34694804355E+02  0.58628001521E+02  0.17529126863E+03  0.18806382127E+03  0.00000000000E+00 0. -1.
        -13    1    4    4    0    0 -0.39769377959E+02 -0.21601235258E+01 -0.12353368166E+02  0.41699823285E+02  0.00000000000E+00 0.  1.
         13    1    4    4    0    0  0.23313744776E+02 -0.13611019684E+02  0.60765782615E+02  0.66492637856E+02  0.00000000000E+00 0. -1.
         21    1    1    2  502  501 -0.16217167195E+02 -0.16462487988E+02  0.39195609099E+02  0.45500613130E+02  0.00000000000E+00 0.  1.
<scales pt_clust_5="13000.00000" pt_clust_6="13000.00000" pt_clust_7="13000.00000" pt_clust_8="13000.00000" pt_clust_9="23.10866"></scales>
<clustering>
<clus scale="   23.109">  1  9  2 -1</clus>
<clus scale="   91.051">  5  6 -1 -1</clus>
<clus scale="   94.034">  7  8 -1 -1</clus>
<clus scale="   95.570">  1  5  2 -1</clus>
<clus scale="   98.415">  2  5  1 -1</clus>
</clustering>
</event>
<event>
 9    1  0.1713970E-005  0.1274757E+03  0.7546771E-02  0.1231970E+00
         -1   -1    0    0    0  501 -0.00000000000E+00  0.00000000000E+00  0.12472479332E+03  0.12472479332E+03  0.00000000000E+00 0.  1.
          1   -1    0    0  502    0  0.00000000000E+00 -0.00000000000E+00 -0.26959652141E+03  0.26959652141E+03  0.00000000000E+00 0. -1.
         23    2    1    2    0    0  0.39088821435E+02  0.76802709182E+02 -0.21161666214E+02  0.12747606625E+03  0.91519064959E+02 0.  0.
         23    2    1    2    0    0  0.37182518001E+01 -0.89274516473E+02 -0.16236321125E+03  0.20783628769E+03  0.94076274505E+02 0.  0.
        -13    1    4    4    0    0 -0.25741293134E+02 -0.44829070126E+02 -0.19334448344E+02  0.55191309038E+02  0.00000000000E+00 0.  1.
         13    1    4    4    0    0  0.29459544935E+02 -0.44445446347E+02 -0.14302876291E+03  0.15264497865E+03  0.00000000000E+00 0. -1.
        -13    1    3    3    0    0 -0.18437865437E+02  0.55631569518E+02  0.87699967458E+01  0.59259929563E+02  0.00000000000E+00 0. -1.
         13    1    3    3    0    0  0.57526686872E+02  0.21171139665E+02 -0.29931662960E+02  0.68216136688E+02  0.00000000000E+00 0.  1.
         21    1    1    2  502  501 -0.42807073235E+02  0.12471807290E+02  0.38653149375E+02  0.59008960783E+02  0.00000000000E+00 0.  1.
<scales pt_clust_5="13000.00000" pt_clust_6="13000.00000" pt_clust_7="13000.00000" pt_clust_8="13000.00000" pt_clust_9="44.58690"></scales>
<clustering>
<clus scale="   44.587">  1  9  2 -1</clus>
<clus scale="   91.519">  7  8 -1 -1</clus>
<clus scale="   94.076">  5  6 -1 -1</clus>
<clus scale="  125.600">  1  7  2 -1</clus>
<clus scale="  127.476">  2  5  1 -1</clus>
</clustering>
</event>
<event>
 9    1  0.1713970E-005  0.9226140E+02  0.7546771E-02  0.1298912E+00
         -2   -1    0    0    0  501 -0.00000000000E+00  0.00000000000E+00  0.28323652247E+03  0.28323652247E+03  0.00000000000E+00 0.  1.
          2   -1    0    0  502    0  0.00000000000E+00 -0.00000000000E+00 -0.83813026733E+02  0.83813026733E+02  0.00000000000E+00 0. -1.
         23    2    1    2    0    0  0.14502446384E+01 -0.24170781326E+02  0.24603914352E+02  0.95705670537E+02  0.89263054463E+02 0.  0.
         23    2    1    2    0    0  0.16396269627E+02 -0.37687927435E+02  0.18370880481E+02  0.10216588383E+03  0.91712382140E+02 0.  0.
        -11    1    4    4    0    0 -0.33981469103E+02 -0.14082739242E+02 -0.12113898069E+02  0.38727384541E+02  0.00000000000E+00 0.  1.
         11    1    4    4    0    0  0.50377738730E+02 -0.23605188193E+02  0.30484778550E+02  0.63438499292E+02  0.00000000000E+00 0. -1.
        -13    1    3    3    0    0  0.15385532689E+02 -0.50345799087E+02 -0.61283775343E+01  0.52999727480E+02  0.00000000000E+00 0. -1.
         13    1    3    3    0    0 -0.13935288050E+02  0.26175017760E+02  0.30732291887E+02  0.42705943057E+02  0.00000000000E+00 0.  1.
         21    1    1    2  502  501 -0.17846514265E+02  0.61858708761E+02  0.15644870091E+03  0.16917799484E+03  0.00000000000E+00 0.  1.
<scales pt_clust_5="13000.00000" pt_clust_6="13000.00000" pt_clust_7="13000.00000" pt_clust_8="13000.00000" pt_clust_9="64.38166"></scales>
<clustering>
<clus scale="   64.382">  1  9  2 -1</clus>
<clus scale="   89.263">  7  8 -1 -1</clus>
<clus scale="   89.827">  1  7  2 -1</clus>
<clus scale="   91.712">  5  6 -1 -1</clus>
<clus scale="   92.261">  2  5  1 -1</clus>
</clustering>
</event>
<event>
 9    1  0.1713970E-005  0.1256893E+03  0.7546771E-02  0.1234301E+00
         -1   -1    0    0    0  501 -0.00000000000E+00  0.00000000000E+00  0.74533549593E+02  0.74533549593E+02  0.00000000000E+00 0.  1.
          1   -1    0    0  502    0  0.00000000000E+00 -0.00000000000E+00 -0.62333355458E+03  0.62333355458E+03  0.00000000000E+00 0. -1.
         23    2    1    2    0    0  0.10094047552E+03  0.13106279345E+02 -0.31995056416E+03  0.34786059232E+03  0.90982822682E+02 0.  0.
         23    2    1    2    0    0 -0.72074996699E+02  0.12260211127E+02 -0.26952682834E+03  0.29404827241E+03  0.92057359235E+02 0.  0.
        -11    1    3    3    0    0  0.45330029012E+02  0.51752259455E+02 -0.15967425393E+03  0.17386481892E+03  0.00000000000E+00 0.  1.
         11    1    3    3    0    0  0.55610446510E+02 -0.38645980111E+02 -0.16027631023E+03  0.17399577340E+03  0.00000000000E+00 0. -1.
        -13    1    4    4    0    0 -0.29680328184E+02  0.34608987988E+02 -0.43565927487E+02  0.63061033677E+02  0.00000000000E+00 0.  1.
         13    1    4    4    0    0 -0.42394668515E+02 -0.22348776860E+02 -0.22596090085E+03  0.23098723874E+03  0.00000000000E+00 0. -1.
         21    1    1    2  502  501 -0.28865478823E+02 -0.25366490472E+02  0.40677387513E+02  0.55958239442E+02  0.00000000000E+00 0.  1.
<scales pt_clust_5="13000.00000" pt_clust_6="13000.00000" pt_clust_7="13000.00000" pt_clust_8="13000.00000" pt_clust_9="38.42753"></scales>
<clustering>
<clus scale="   38.428">  1  9  2 -1</clus>
<clus scale="   90.983">  5  6 -1 -1</clus>
<clus scale="   92.057">  7  8 -1 -1</clus>
<clus scale="  124.904">  1  5  2 -1</clus>
<clus scale="  125.689">  2  5  1 -1</clus>
</clustering>
</event>
<event>
 9    1  0.1713970E-005  0.1304034E+03  0.7546771E-02  0.1227642E+00
          1   -1    0    0  502    0  0.00000000000E+00  0.00000000000E+00  0.14915300821E+03  0.14915300821E+03  0.00000000000E+00 0. -1.
         -1   -1    0    0    0  501 -0.00000000000E+00 -0.00000000000E+00 -0.23315194038E+03  0.23315194038E+03  0.00000000000E+00 0.  1.
         23    2    1    2    0    0  0.86760094339E+01  0.92057889126E+02 -0.16617312772E+03  0.21036675241E+03  0.89948507785E+02 0.  0.
         23    2    1    2    0    0  0.10850048772E+02 -0.87419222608E+02  0.81654583321E+02  0.15186198705E+03  0.92923345257E+02 0.  0.
        -11    1    3    3    0    0  0.47324765105E+02  0.49767165914E+02 -0.11282913257E+03  0.13208640109E+03  0.00000000000E+00 0.  1.
         11    1    3    3    0    0 -0.38648755671E+02  0.42290723212E+02 -0.53343995155E+02  0.78280351326E+02  0.00000000000E+00 0. -1.
        -13    1    4    4    0    0  0.24099672270E+02  0.12401192216E+02  0.13585522159E+02  0.30317489742E+02  0.00000000000E+00 0.  1.
         13    1    4    4    0    0 -0.13249623499E+02 -0.99820414824E+02  0.68069061163E+02  0.12154449731E+03  0.00000000000E+00 0. -1.
         21    1    1    2  502  501 -0.19526058206E+02 -0.46386665179E+01  0.51961223476E+00  0.20076209129E+02  0.00000000000E+00 0.  1.
<scales pt_clust_5="13000.00000" pt_clust_6="13000.00000" pt_clust_7="13000.00000" pt_clust_8="13000.00000" pt_clust_9="20.06948"></scales>
<clustering>
<clus scale="   20.069">  1  9  2 -1</clus>
<clus scale="   89.949">  5  6 -1 -1</clus>
<clus scale="   92.923">  7  8 -1 -1</clus>
<clus scale="  128.301">  2  5  1 -1</clus>
<clus scale="   20.069">  1  5  2 -1</clus>
</clustering>
</event>
<event>
 9    1  0.1713970E-005  0.1447614E+03  0.7546771E-02  0.1207271E+00
         -1   -1    0    0    0  501 -0.00000000000E+00  0.00000000000E+00  0.72491076483E+02  0.72491076483E+02  0.00000000000E+00 0.  1.
          1   -1    0    0  502    0  0.00000000000E+00 -0.00000000000E+00 -0.43151279702E+03  0.43151279702E+03  0.00000000000E+00 0. -1.
         23    2    1    2    0    0  0.64023675875E+02  0.81213062746E+02 -0.50146288613E+02  0.14631873448E+03  0.90553460258E+02 0.  0.
         23    2    1    2    0    0 -0.85385511517E+02 -0.79463034670E+02 -0.30074529171E+03  0.33476157473E+03  0.89512691663E+02 0.  0.
        -11    1    4    4    0    0 -0.71881063483E+02 -0.59156396812E+02 -0.29549961169E+03  0.30981669917E+03  0.00000000000E+00 0. -1.
         11    1    4    4    0    0 -0.13504448033E+02 -0.20306637858E+02 -0.52456800200E+01  0.24944875559E+02  0.00000000000E+00 0.  1.
        -11    1    3    3    0    0  0.87207902104E+01 -0.19319852251E+02 -0.16149888698E+02  0.26648222790E+02  0.00000000000E+00 0. -1.
         11    1    3    3    0    0  0.55302885665E+02  0.10053291500E+03 -0.33996399915E+02  0.11967051169E+03  0.00000000000E+00 0.  1.
         21    1    1    2  502  501  0.21361835642E+02 -0.17500280759E+01 -0.81301402051E+01  0.22923564295E+02  0.00000000000E+00 0.  1.
<scales pt_clust_5="13000.00000" pt_clust_6="13000.00000" pt_clust_7="13000.00000" pt_clust_8="13000.00000" pt_clust_9="21.43340"></scales>
<clustering>
<clus scale="   21.433">  1  9  2 -1</clus>
<clus scale="   89.513">  5  6 -1 -1</clus>
<clus scale="   90.553">  7  8 -1 -1</clus>
<clus scale="  144.113">  2  5  1 -1</clus>
<clus scale="  144.113">  2  5  1 -1</clus>
</clustering>
</event>
<event>
 9    1  0.1713970E-005  0.1639869E+03  0.7546771E-02  0.1184750E+00
          2   -1    0    0  502    0  0.00000000000E+00  0.00000000000E+00  0.37594389107E+03  0.37594389107E+03  0.00000000000E+00 0. -1.
         -2   -1    0    0    0  501 -0.00000000000E+00 -0.00000000000E+00 -0.11602314683E+03  0.11602314683E+03  0.00000000000E+00 0.  1.
         23    2    1    2    0    0  0.14315979655E+03  0.14263081770E+02  0.12317329988E+02  0.17196592508E+03  0.93393789516E+02 0.  0.
         23    2    1    2    0    0 -0.11398360876E+03  0.28604071548E+02  0.20463890546E+03  0.25266025017E+03  0.90275491766E+02 0.  0.
        -11    1    4    4    0    0 -0.46582435786E+02 -0.21005635783E+02  0.13306110617E+03  0.14253567285E+03  0.00000000000E+00 0. -1.
         11    1    4    4    0    0 -0.67401172975E+02  0.49609707331E+02  0.71577799286E+02  0.11012457732E+03  0.00000000000E+00 0.  1.
        -13    1    3    3    0    0  0.11083876406E+03  0.42742071426E+02 -0.16791498920E+02  0.11997529214E+03  0.00000000000E+00 0.  1.
         13    1    3    3    0    0  0.32321032493E+02 -0.28478989656E+02  0.29108828908E+02  0.51990632941E+02  0.00000000000E+00 0. -1.
         21    1    1    2  502  501 -0.29176187790E+02 -0.42867153318E+02  0.42964508798E+02  0.67340862660E+02  0.00000000000E+00 0. -1.
<scales pt_clust_5="13000.00000" pt_clust_6="13000.00000" pt_clust_7="13000.00000" pt_clust_8="13000.00000" pt_clust_9="51.85405"></scales>
<clustering>
<clus scale="   51.854">  1  9  2 -1</clus>
<clus scale="   90.275">  5  6 -1 -1</clus>
<clus scale="   93.394">  7  8 -1 -1</clus>
<clus scale="  162.231">  1  5  2 -1</clus>
<clus scale="   51.854">  1  5  2 -1</clus>
</clustering>
</event>
<event>
 9    1  0.1713970E-005  0.1169601E+03  0.7546771E-02  0.1252287E+00
         -1   -1    0    0    0  501 -0.00000000000E+00  0.00000000000E+00  0.97289666033E+02  0.97289666033E+02  0.00000000000E+00 0.  1.
          1   -1    0    0  502    0  0.00000000000E+00 -0.00000000000E+00 -0.26133517308E+03  0.26133517308E+03  0.00000000000E+00 0. -1.
         23    2    1    2    0    0 -0.49217251072E+02  0.66205543725E+00 -0.40567078749E+02  0.12052339914E+03  0.10226155554E+03 0.  0.
         23    2    1    2    0    0  0.48803329301E+02 -0.41716543896E+02 -0.15154210869E+03  0.18837003631E+03  0.91630916656E+02 0.  0.
        -11    1    4    4    0    0  0.76542890376E+01 -0.48911977702E+02 -0.25709718189E+02  0.55784938046E+02  0.00000000000E+00 0.  1.
         11    1    4    4    0    0  0.41149040263E+02  0.71954338063E+01 -0.12583239050E+03  0.13258509826E+03  0.00000000000E+00 0. -1.
        -13    1    3    3    0    0 -0.17755199388E+02  0.44520025777E+02 -0.45800483155E+02  0.66294525096E+02  0.00000000000E+00 0.  1.
         13    1    3    3    0    0 -0.31462051684E+02 -0.43857970339E+02  0.52334044060E+01  0.54228874045E+02  0.00000000000E+00 0. -1.
         21    1    1    2  502  501  0.41392177145E+00  0.41054488458E+02  0.28063680388E+02  0.49731403668E+02  0.00000000000E+00 0.  1.
<scales pt_clust_5="13000.00000" pt_clust_6="13000.00000" pt_clust_7="13000.00000" pt_clust_8="13000.00000" pt_clust_9="41.05658"></scales>
<clustering>
<clus scale="   41.057">  1  9  2 -1</clus>
<clus scale="   91.631">  5  6 -1 -1</clus>
<clus scale="  102.262">  7  8 -1 -1</clus>
<clus scale="  107.789">  2  5  1 -1</clus>
<clus scale="  107.789">  2  5  1 -1</clus>
</clustering>
</event>
<event>
 9    1  0.1713970E-005  0.1330664E+03  0.7546771E-02  0.1229972E+00
         -3   -1    0    0    0  501 -0.00000000000E+00  0.00000000000E+00  0.23793715241E+03  0.23793715241E+03  0.00000000000E+00 0.  1.
          3   -1    0    0  502    0  0.00000000000E+00 -0.00000000000E+00 -0.11094993632E+03  0.11094993632E+03  0.00000000000E+00 0. -1.
         23    2    1    2    0    0 -0.42560839810E+02  0.21820895401E+02  0.34658818745E+02  0.10736281587E+03  0.89654692871E+02 0.  0.
         23    2    1    2    0    0  0.10855140784E+03 -0.11415749297E+02  0.68163075886E+02  0.17048213821E+03  0.11182230125E+03 0.  0.
        -13    1    3    3    0    0 -0.12563735319E+02  0.53771271716E+02  0.73026368337E+01  0.55700319675E+02  0.00000000000E+00 0.  1.
         13    1    3    3    0    0 -0.29997104491E+02 -0.31950376316E+02  0.27356181912E+02  0.51662496197E+02  0.00000000000E+00 0. -1.
        -13    1    4    4    0    0  0.70869675326E+02 -0.37206979778E+02 -0.92801639529E+01  0.80579101931E+02  0.00000000000E+00 0. -1.
         13    1    4    4    0    0  0.37681732514E+02  0.25791230482E+02  0.77443239839E+02  0.89903036277E+02  0.00000000000E+00 0.  1.
         21    1    1    2  502  501 -0.65990568030E+02 -0.10405146104E+02  0.24165321464E+02  0.71042134652E+02  0.00000000000E+00 0.  1.
<scales pt_clust_5="13000.00000" pt_clust_6="13000.00000" pt_clust_7="13000.00000" pt_clust_8="13000.00000" pt_clust_9="66.80585"></scales>
<clustering>
<clus scale="   66.806">  2  9  1 -1</clus>
<clus scale="   89.655">  5  6 -1 -1</clus>
<clus scale="  111.822">  7  8 -1 -1</clus>
<clus scale="  115.067">  1  5  2 -1</clus>
<clus scale="   66.806">  2  5  1 -1</clus>
</clustering>
</event>
<event>
 9    1  0.1713970E-005  0.2727557E+03  0.7546771E-02  0.1101608E+00
         -2   -1    0    0    0  501 -0.00000000000E+00  0.00000000000E+00  0.51231931709E+02  0.51231931709E+02  0.00000000000E+00 0.  1.
          2   -1    0    0  502    0  0.00000000000E+00 -0.00000000000E+00 -0.18558771225E+04  0.18558771225E+04  0.00000000000E+00 0. -1.
         23    2    1    2    0    0 -0.19296509773E+03 -0.84219653439E+02 -0.55312818378E+03  0.60515520220E+03  0.12622817468E+03 0.  0.
         23    2    1    2    0    0  0.22644047098E+03  0.13216245542E+03 -0.11624340567E+04  0.11953945497E+04  0.94725876994E+02 0.  0.
        -11    1    4    4    0    0  0.19392622832E+03  0.96568202907E+02 -0.10634838921E+04  0.10853251994E+04  0.00000000000E+00 0. -1.
         11    1    4    4    0    0  0.32514242658E+02  0.35594252514E+02 -0.98950164596E+02  0.11006935023E+03  0.00000000000E+00 0.  1.
        -13    1    3    3    0    0 -0.54539397807E+02  0.32188984653E+02 -0.11767511620E+03  0.13363423820E+03  0.00000000000E+00 0. -1.
         13    1    3    3    0    0 -0.13842569993E+03 -0.11640863809E+03 -0.43545306759E+03  0.47152096400E+03  0.00000000000E+00 0.  1.
         21    1    1    2  502  501 -0.33475373242E+02 -0.47942801982E+02 -0.89082950404E+02  0.10655930240E+03  0.00000000000E+00 0.  1.
<scales pt_clust_5="13000.00000" pt_clust_6="13000.00000" pt_clust_7="13000.00000" pt_clust_8="13000.00000" pt_clust_9="58.47318"></scales>
<clustering>
<clus scale="   58.473">  1  9  2 -1</clus>
<clus scale="   94.726">  5  6 -1 -1</clus>
<clus scale="  126.228">  7  8 -1 -1</clus>
<clus scale="  259.683">  2  5  1 -1</clus>
<clus scale="  259.683">  2  5  1 -1</clus>
</clustering>
</event>
<event>
 9    1  0.1713970E-005  0.1874925E+03  0.7546771E-02  0.1160957E+00
         -2   -1    0    0    0  501 -0.00000000000E+00  0.00000000000E+00  0.11012869963E+03  0.11012869963E+03  0.00000000000E+00 0.  1.
          2   -1    0    0  502    0  0.00000000000E+00 -0.00000000000E+00 -0.51644562750E+03  0.51644562750E+03  0.00000000000E+00 0. -1.
         23    2    1    2    0    0 -0.13794527787E+03 -0.73673698986E+02 -0.67106500729E+02  0.19279934064E+03  0.90617822199E+02 0.  0.
         23    2    1    2    0    0  0.13468095349E+03  0.97025539478E+02 -0.35687238884E+03  0.40431468849E+03  0.92517840804E+02 0.  0.
        -11    1    4    4    0    0  0.68668828974E+02  0.56025240117E+01 -0.19679917785E+03  0.20851070176E+03  0.00000000000E+00 0. -1.
         11    1    4    4    0    0  0.66012124517E+02  0.91423015467E+02 -0.16007321099E+03  0.19580398672E+03  0.00000000000E+00 0.  1.
        -13    1    3    3    0    0 -0.34733309094E+02  0.19387631315E+02 -0.27279735236E+02  0.48233463106E+02  0.00000000000E+00 0.  1.
         13    1    3    3    0    0 -0.10321196878E+03 -0.93061330301E+02 -0.39826765493E+02  0.14456587753E+03  0.00000000000E+00 0. -1.
         21    1    1    2  502  501  0.32643243816E+01 -0.23351840492E+02  0.17661961692E+02  0.29460298010E+02  0.00000000000E+00 0. -1.
<scales pt_clust_5="13000.00000" pt_clust_6="13000.00000" pt_clust_7="13000.00000" pt_clust_8="13000.00000" pt_clust_9="23.57889"></scales>
<clustering>
<clus scale="   23.579">  1  9  2 -1</clus>
<clus scale="   90.618">  7  8 -1 -1</clus>
<clus scale="   92.518">  5  6 -1 -1</clus>
<clus scale="  186.562">  1  7  2 -1</clus>
<clus scale="  187.493">  2  5  1 -1</clus>
</clustering>
</event>
<event>
 9    1  0.1713970E-005  0.2265801E+03  0.7546771E-02  0.1129206E+00
         -1   -1    0    0    0  501 -0.00000000000E+00  0.00000000000E+00  0.11619158585E+03  0.11619158585E+03  0.00000000000E+00 0.  1.
          1   -1    0    0  502    0  0.00000000000E+00 -0.00000000000E+00 -0.51671653486E+03  0.51671653486E+03  0.00000000000E+00 0. -1.
         23    2    1    2    0    0  0.13915582337E+03  0.17373819688E+03 -0.21706453868E+03  0.32354743350E+03  0.89535599297E+02 0.  0.
         23    2    1    2    0    0 -0.13294102973E+03 -0.13961080726E+03 -0.16709953037E+03  0.27100732002E+03  0.91423298799E+02 0.  0.
        -13    1    4    4    0    0 -0.58012775647E+02 -0.47493818523E+02 -0.12404324526E+02  0.75993501058E+02  0.00000000000E+00 0.  1.
         13    1    4    4    0    0 -0.74928254085E+02 -0.92116988737E+02 -0.15469520584E+03  0.19501381896E+03  0.00000000000E+00 0. -1.
        -13    1    3    3    0    0  0.93537744578E+02  0.16632665837E+03 -0.19312912752E+03  0.27150087816E+03  0.00000000000E+00 0. -1.
         13    1    3    3    0    0  0.45618078788E+02  0.74115385044E+01 -0.23935411166E+02  0.52046555342E+02  0.00000000000E+00 0.  1.
         21    1    1    2  502  501 -0.62147936341E+01 -0.34127389615E+02 -0.16360879965E+02  0.38353367194E+02  0.00000000000E+00 0.  1.
<scales pt_clust_5="13000.00000" pt_clust_6="13000.00000" pt_clust_7="13000.00000" pt_clust_8="13000.00000" pt_clust_9="34.68865"></scales>
<clustering>
<clus scale="   34.689">  1  9  2 -1</clus>
<clus scale="   89.536">  7  8 -1 -1</clus>
<clus scale="   91.423">  5  6 -1 -1</clus>
<clus scale="  225.825">  1  7  2 -1</clus>
<clus scale="  226.580">  2  5  1 -1</clus>
</clustering>
</event>
<event>
 9    1  0.1713970E-005  0.1902306E+03  0.7546771E-02  0.1158464E+00
         -1   -1    0    0    0  501 -0.00000000000E+00  0.00000000000E+00  0.43797363309E+02  0.43797363309E+02  0.00000000000E+00 0.  1.
          1   -1    0    0  502    0  0.00000000000E+00 -0.00000000000E+00 -0.98916146443E+03  0.98916146443E+03  0.00000000000E+00 0. -1.
         23    2    1    2    0    0  0.25407025572E+02  0.17829681221E+03 -0.42414002815E+03  0.46931854444E+03  0.89049775306E+02 0.  0.
         23    2    1    2    0    0 -0.38621181303E+02 -0.15301397565E+03 -0.48085974567E+03  0.51421241004E+03  0.91013379506E+02 0.  0.
        -11    1    4    4    0    0 -0.21934029809E+02  0.50232209989E+01 -0.76684697620E+02  0.79917940802E+02  0.00000000000E+00 0. -1.
         11    1    4    4    0    0 -0.16687151495E+02 -0.15803719665E+03 -0.40417504805E+03  0.43429446924E+03  0.00000000000E+00 0.  1.
        -13    1    3    3    0    0  0.24797365570E+02  0.85194659155E+02 -0.30766955520E+03  0.32020867334E+03  0.00000000000E+00 0. -1.
         13    1    3    3    0    0  0.60966000196E+00  0.93102153053E+02 -0.11647047295E+03  0.14910987110E+03  0.00000000000E+00 0.  1.
         21    1    1    2  502  501  0.13214155731E+02 -0.25282836559E+02 -0.40364327303E+02  0.49427873258E+02  0.00000000000E+00 0. -1.
<scales pt_clust_5="13000.00000" pt_clust_6="13000.00000" pt_clust_7="13000.00000" pt_clust_8="13000.00000" pt_clust_9="28.52781"></scales>
<clustering>
<clus scale="   28.528">  1  9  2 -1</clus>
<clus scale="   89.050">  7  8 -1 -1</clus>
<clus scale="   91.013">  5  6 -1 -1</clus>
<clus scale="  189.299">  1  7  2 -1</clus>
<clus scale="  190.231">  2  5  1 -1</clus>
</clustering>
</event>
<event>
 9    1  0.1713970E-005  0.2447547E+03  0.7546771E-02  0.1116812E+00
          1   -1    0    0  502    0  0.00000000000E+00  0.00000000000E+00  0.42173522616E+03  0.42173522616E+03  0.00000000000E+00 0. -1.
         -1   -1    0    0    0  501 -0.00000000000E+00 -0.00000000000E+00 -0.19830918196E+03  0.19830918196E+03  0.00000000000E+00 0.  1.
         23    2    1    2    0    0 -0.14878572737E+03 -0.14624976322E+03  0.53409095934E+02  0.23392529701E+03  0.91336340762E+02 0.  0.
         23    2    1    2    0    0  0.22145675815E+03  0.11100306997E+03  0.14992089822E+03  0.30288895235E+03  0.88885681957E+02 0.  0.
        -11    1    4    4    0    0  0.91509831430E+01  0.30174733388E+02  0.15753774312E+01  0.31571139377E+02  0.00000000000E+00 0.  1.
         11    1    4    4    0    0  0.21230577501E+03  0.80828336582E+02  0.14834552079E+03  0.27131781297E+03  0.00000000000E+00 0. -1.
        -11    1    3    3    0    0 -0.27454564705E+02  0.41651379930E+01 -0.11512888277E+02  0.30060740079E+02  0.00000000000E+00 0.  1.
         11    1    3    3    0    0 -0.12133116266E+03 -0.15041490121E+03  0.64921984211E+02  0.20386455693E+03  0.00000000000E+00 0. -1.
         21    1    1    2  502  501 -0.72671030785E+02  0.35246693246E+02  0.20096050044E+02  0.83230158762E+02  0.00000000000E+00 0.  1.
<scales pt_clust_5="13000.00000" pt_clust_6="13000.00000" pt_clust_7="13000.00000" pt_clust_8="13000.00000" pt_clust_9="80.76762"></scales>
<clustering>
<clus scale="   80.768">  2  9  1 -1</clus>
<clus scale="   88.886">  5  6 -1 -1</clus>
<clus scale="   91.336">  7  8 -1 -1</clus>
<clus scale="  243.851">  1  5  2 -1</clus>
<clus scale="  243.851">  1  5  2 -1</clus>
</clustering>
</event>
<event>
 9    1  0.1713970E-005  0.1098616E+03  0.7546771E-02  0.1262736E+00
         -2   -1    0    0    0  501 -0.00000000000E+00  0.00000000000E+00  0.17666967672E+03  0.17666967672E+03  0.00000000000E+00 0.  1.
          2   -1    0    0  502    0  0.00000000000E+00 -0.00000000000E+00 -0.20136071713E+03  0.20136071713E+03  0.00000000000E+00 0. -1.
         23    2    1    2    0    0  0.53772350894E+02  0.79124096652E+01  0.49783770385E+02  0.11532662913E+03  0.88700257298E+02 0.  0.
         23    2    1    2    0    0 -0.47294611596E+02 -0.36581597433E+02 -0.14715621509E+03  0.18430433893E+03  0.93478041029E+02 0.  0.
        -13    1    4    4    0    0 -0.96285892659E+01 -0.45707453730E+02 -0.19018541026E+02  0.50433976251E+02  0.00000000000E+00 0.  1.
         13    1    4    4    0    0 -0.37666022330E+02  0.91258562967E+01 -0.12813767406E+03  0.13387036268E+03  0.00000000000E+00 0. -1.
        -13    1    3    3    0    0  0.23911410323E+02 -0.32110874196E+02  0.51658089654E+02  0.65356116867E+02  0.00000000000E+00 0.  1.
         13    1    3    3    0    0  0.29860940571E+02  0.40023283861E+02 -0.18743192691E+01  0.49970512260E+02  0.00000000000E+00 0. -1.
         21    1    1    2  502  501 -0.64777392977E+01  0.28669187768E+02  0.72681404296E+02  0.78399425789E+02  0.00000000000E+00 0.  1.
<scales pt_clust_5="13000.00000" pt_clust_6="13000.00000" pt_clust_7="13000.00000" pt_clust_8="13000.00000" pt_clust_9="29.39189"></scales>
<clustering>
<clus scale="   29.392">  1  9  2 -1</clus>
<clus scale="   88.700">  7  8 -1 -1</clus>
<clus scale="   93.478">  5  6 -1 -1</clus>
<clus scale="  105.826">  1  7  2 -1</clus>
<clus scale="  109.862">  2  5  1 -1</clus>
</clustering>
</event>
<event>
 9    1  0.1713970E-005  0.1184344E+03  0.7546771E-02  0.1246438E+00
          1   -1    0    0  502    0  0.00000000000E+00  0.00000000000E+00  0.86531044034E+02  0.86531044034E+02  0.00000000000E+00 0. -1.
         -1   -1    0    0    0  501 -0.00000000000E+00 -0.00000000000E+00 -0.23288462026E+03  0.23288462026E+03  0.00000000000E+00 0.  1.
         23    2    1    2    0    0  0.90794051364E+02  0.80812686901E+01 -0.11169115638E+03  0.16960723327E+03  0.89346698295E+02 0.  0.
         23    2    1    2    0    0 -0.65796992018E+02 -0.17933724012E+02 -0.12324436044E+02  0.11486691744E+03  0.91605973505E+02 0.  0.
        -13    1    3    3    0    0  0.68516484584E+02  0.46364879824E+02 -0.80513881877E+02  0.11544130940E+03  0.00000000000E+00 0. -1.
         13    1    3    3    0    0  0.22277566780E+02 -0.38283611133E+02 -0.31177274503E+02  0.54165923868E+02  0.00000000000E+00 0.  1.
        -13    1    4    4    0    0  0.13744151648E+02 -0.30707865791E+02 -0.35517142492E+01  0.33830302985E+02  0.00000000000E+00 0. -1.
         13    1    4    4    0    0 -0.79541143666E+02  0.12774141779E+02 -0.87727217947E+01  0.81036614450E+02  0.00000000000E+00 0.  1.
         21    1    1    2  502  501 -0.24997059346E+02  0.98524553220E+01 -0.22337983806E+02  0.34941513596E+02  0.00000000000E+00 0.  1.
<scales pt_clust_5="13000.00000" pt_clust_6="13000.00000" pt_clust_7="13000.00000" pt_clust_8="13000.00000" pt_clust_9="26.86864"></scales>
<clustering>
<clus scale="   26.869">  2  9  1 -1</clus>
<clus scale="   89.347">  5  6 -1 -1</clus>
<clus scale="   91.606">  7  8 -1 -1</clus>
<clus scale="  116.696">  2  5  1 -1</clus>
<clus scale="  118.434">  1  5  2 -1</clus>
</clustering>
</event>
<event>
 9    1  0.1713970E-005  0.1447033E+03  0.7546771E-02  0.1212594E+00
         -1   -1    0    0    0  501 -0.00000000000E+00  0.00000000000E+00  0.13594945576E+03  0.13594945576E+03  0.00000000000E+00 0.  1.
          1   -1    0    0  502    0  0.00000000000E+00 -0.00000000000E+00 -0.21167118262E+03  0.21167118262E+03  0.00000000000E+00 0. -1.
         23    2    1    2    0    0  0.90085587848E+02 -0.57734568484E+02  0.28035510432E+02  0.14224545698E+03  0.89437613180E+02 0.  0.
         23    2    1    2    0    0 -0.78383701682E+02  0.38072307287E+02 -0.11282354410E+03  0.18076346519E+03  0.11114302935E+03 0.  0.
        -11    1    3    3    0    0  0.25360991192E+02  0.17969518051E+02  0.29187132033E+02  0.42637684382E+02  0.00000000000E+00 0.  1.
         11    1    3    3    0    0  0.64724596656E+02 -0.75704086534E+02 -0.11516216006E+01  0.99607772601E+02  0.00000000000E+00 0. -1.
        -13    1    4    4    0    0 -0.46087325953E+02 -0.34694781888E+02 -0.68820273486E+02  0.89799774758E+02  0.00000000000E+00 0. -1.
         13    1    4    4    0    0 -0.32296375729E+02  0.72767089175E+02 -0.44003270616E+02  0.90963690433E+02  0.00000000000E+00 0.  1.
         21    1    1    2  502  501 -0.11701886165E+02  0.19662261197E+02  0.90663068095E+01  0.24611716201E+02  0.00000000000E+00 0. -1.
<scales pt_clust_5="13000.00000" pt_clust_6="13000.00000" pt_clust_7="13000.00000" pt_clust_8="13000.00000" pt_clust_9="22.88097"></scales>
<clustering>
<clus scale="   22.881">  1  9  2 -1</clus>
<clus scale="   89.438">  5  6 -1 -1</clus>
<clus scale="  111.143">  7  8 -1 -1</clus>
<clus scale="  128.784">  1  5  2 -1</clus>
<clus scale="  144.703">  2  5  1 -1</clus>
</clustering>
</event>
<event>
 9    1  0.1713970E-005  0.1017366E+03  0.7546771E-02  0.1277001E+00
         -1   -1    0    0    0  501 -0.00000000000E+00  0.00000000000E+00  0.61568678864E+02  0.61568678864E+02  0.00000000000E+00 0.  1.
          1   -1    0    0  502    0  0.00000000000E+00 -0.00000000000E+00 -0.44204863351E+03  0.44204863351E+03  0.00000000000E+00 0. -1.
         23    2    1    2    0    0  0.17334595454E+02  0.15914401958E+01 -0.13160723923E+03  0.16159617685E+03  0.92140317308E+02 0.  0.
         23    2    1    2    0    0 -0.95894133513E+01 -0.75424315525E+02 -0.23861180421E+03  0.26707737245E+03  0.92811343856E+02 0.  0.
        -11    1    3    3    0    0  0.12455013024E+02 -0.44708880572E+02 -0.55156454087E+02  0.72084989970E+02  0.00000000000E+00 0.  1.
         11    1    3    3    0    0  0.48795824302E+01  0.46300320768E+02 -0.76450785140E+02  0.89511186878E+02  0.00000000000E+00 0. -1.
        -13    1    4    4    0    0 -0.38186772132E+02 -0.43039685255E+00 -0.58110323507E+02  0.69535778600E+02  0.00000000000E+00 0. -1.
         13    1    4    4    0    0  0.28597358781E+02 -0.74993918673E+02 -0.18050148070E+03  0.19754159385E+03  0.00000000000E+00 0.  1.
         21    1    1    2  502  501 -0.77451821026E+01  0.73832875329E+02 -0.10260911216E+02  0.74943763077E+02  0.00000000000E+00 0. -1.
<scales pt_clust_5="13000.00000" pt_clust_6="13000.00000" pt_clust_7="13000.00000" pt_clust_8="13000.00000" pt_clust_9="74.23800"></scales>
<clustering>
<clus scale="   74.238">  1  9  2 -1</clus>
<clus scale="   92.140">  5  6 -1 -1</clus>
<clus scale="   92.811">  7  8 -1 -1</clus>
<clus scale="  101.125">  1  5  2 -1</clus>
<clus scale="  101.737">  2  5  1 -1</clus>
</clustering>
</event>
<event>
 9    1  0.1713970E-005  0.1093230E+03  0.7546771E-02  0.1264134E+00
          1   -1    0    0  502    0  0.00000000000E+00  0.00000000000E+00  0.35881542364E+03  0.35881542364E+03  0.00000000000E+00 0. -1.
         -1   -1    0    0    0  501 -0.00000000000E+00 -0.00000000000E+00 -0.72511774067E+02  0.72511774067E+02  0.00000000000E+00 0.  1.
         23    2    1    2    0    0  0.74105268846E+02  0.44981179202E+02  0.92635598837E+02  0.16042662075E+03  0.98185788785E+02 0.  0.
         23    2    1    2    0    0 -0.33473783660E+02 -0.10083493080E+02  0.19340130936E+03  0.21733904938E+03  0.92790219853E+02 0.  0.
        -11    1    4    4    0    0 -0.22423940166E+02 -0.37321899451E+02  0.33979758889E+02  0.55230256973E+02  0.00000000000E+00 0. -1.
         11    1    4    4    0    0 -0.11049843495E+02  0.27238406371E+02  0.15942155047E+03  0.16210879241E+03  0.00000000000E+00 0.  1.
        -13    1    3    3    0    0  0.54832135526E+02  0.75940223299E+02  0.58238214460E+02  0.11029583049E+03  0.00000000000E+00 0. -1.
         13    1    3    3    0    0  0.19273133321E+02 -0.30959044097E+02  0.34397384378E+02  0.50130790254E+02  0.00000000000E+00 0.  1.
         21    1    1    2  502  501 -0.40631485186E+02 -0.34897686122E+02  0.26674137483E+00  0.53561527574E+02  0.00000000000E+00 0.  1.
<scales pt_clust_5="13000.00000" pt_clust_6="13000.00000" pt_clust_7="13000.00000" pt_clust_8="13000.00000" pt_clust_9="53.56086"></scales>
<clustering>
<clus scale="   53.561">  2  9  1 -1</clus>
<clus scale="   92.790">  5  6 -1 -1</clus>
<clus scale="   98.186">  7  8 -1 -1</clus>
<clus scale="  104.504">  1  5  2 -1</clus>
<clus scale="  104.504">  1  5  2 -1</clus>
</clustering>
</event>
<event>
 9    1  0.1713970E-005  0.1009233E+03  0.7546771E-02  0.1279563E+00
         -1   -1    0    0    0  501 -0.00000000000E+00  0.00000000000E+00  0.31712548189E+03  0.31712548189E+03  0.00000000000E+00 0.  1.
          1   -1    0    0  502    0  0.00000000000E+00 -0.00000000000E+00 -0.14999652171E+03  0.14999652171E+03  0.00000000000E+00 0. -1.
         23    2    1    2    0    0  0.39306280741E+02  0.32070437939E+02  0.15881419391E+03  0.19006785393E+03  0.91270719368E+02 0.  0.
         23    2    1    2    0    0  0.12283403974E+02 -0.43624833704E+02 -0.10941919487E+03  0.14799491818E+03  0.88746422300E+02 0.  0.
        -11    1    4    4    0    0  0.85502767241E+00 -0.64554826020E+02 -0.10570403512E+03  0.12386040398E+03  0.00000000000E+00 0. -1.
         11    1    4    4    0    0  0.11428376302E+02  0.20929992317E+02 -0.37151597506E+01  0.24134514191E+02  0.00000000000E+00 0.  1.
        -13    1    3    3    0    0  0.63876312547E+01 -0.28023628146E+02  0.19256826627E+02  0.34596978759E+02  0.00000000000E+00 0. -1.
         13    1    3    3    0    0  0.32918649486E+02  0.60094066084E+02  0.13955736729E+03  0.15547087517E+03  0.00000000000E+00 0.  1.
         21    1    1    2  502  501 -0.51589684715E+02  0.11554395765E+02  0.11773396113E+03  0.12905923149E+03  0.00000000000E+00 0.  1.
<scales pt_clust_5="13000.00000" pt_clust_6="13000.00000" pt_clust_7="13000.00000" pt_clust_8="13000.00000" pt_clust_9="52.86776"></scales>
<clustering>
<clus scale="   52.868">  1  9  2 -1</clus>
<clus scale="   88.746">  5  6 -1 -1</clus>
<clus scale="   91.271">  7  8 -1 -1</clus>
<clus scale="   98.646">  2  5  1 -1</clus>
<clus scale="   98.646">  2  5  1 -1</clus>
</clustering>
</event>
<event>
 9    1  0.1713970E-005  0.1027127E+03  0.7546771E-02  0.1275654E+00
          1   -1    0    0  502    0  0.00000000000E+00  0.00000000000E+00  0.60704653042E+03  0.60704653042E+03  0.00000000000E+00 0. -1.
         -1   -1    0    0    0  501 -0.00000000000E+00 -0.00000000000E+00 -0.32797780268E+02  0.32797780268E+02  0.00000000000E+00 0.  1.
         23    2    1    2    0    0 -0.44301109338E+02  0.13783430832E+02  0.27834851757E+03  0.29736962411E+03  0.93798853175E+02 0.  0.
         23    2    1    2    0    0  0.39633447831E+02  0.15254098598E+02  0.29629034669E+03  0.31306180898E+03  0.91740007580E+02 0.  0.
        -11    1    3    3    0    0 -0.24230325311E+02 -0.40046959856E+02  0.13781242398E+03  0.14554426084E+03  0.00000000000E+00 0.  1.
         11    1    3    3    0    0 -0.20070784028E+02  0.53830390687E+02  0.14053609359E+03  0.15182536328E+03  0.00000000000E+00 0. -1.
        -11    1    4    4    0    0 -0.19833724884E+02 -0.72882953119E+01  0.18499904168E+02  0.28084557066E+02  0.00000000000E+00 0.  1.
         11    1    4    4    0    0  0.59467172715E+02  0.22542393910E+02  0.27779044252E+03  0.28497725191E+03  0.00000000000E+00 0. -1.
         21    1    1    2  502  501  0.46676615074E+01 -0.29037529430E+02 -0.39011410808E+00  0.29412877594E+02  0.00000000000E+00 0.  1.
<scales pt_clust_5="13000.00000" pt_clust_6="13000.00000" pt_clust_7="13000.00000" pt_clust_8="13000.00000" pt_clust_9="29.41029"></scales>
<clustering>
<clus scale="   29.410">  2  9  1 -1</clus>
<clus scale="   91.740">  7  8 -1 -1</clus>
<clus scale="   93.799">  5  6 -1 -1</clus>
<clus scale="  100.836">  1  7  2 -1</clus>
<clus scale="  100.836">  1  5  2 -1</clus>
</clustering>
</event>
<event>
 9    1  0.1713970E-005  0.9365649E+02  0.7546771E-02  0.1297185E+00
          2   -1    0    0  502    0  0.00000000000E+00  0.00000000000E+00  0.30395617018E+03  0.30395617018E+03  0.00000000000E+00 0. -1.
         -2   -1    0    0    0  501 -0.00000000000E+00 -0.00000000000E+00 -0.13570903455E+03  0.13570903455E+03  0.00000000000E+00 0.  1.
         23    2    1    2    0    0 -0.86970452599E+01  0.21199339802E+01  0.81443471540E+02  0.12258243213E+03  0.91177195031E+02 0.  0.
         23    2    1    2    0    0  0.27447126879E+02  0.50202344757E+01  0.19080863023E+03  0.21116025116E+03  0.86035869095E+02 0.  0.
        -11    1    3    3    0    0 -0.15165323041E+02 -0.35997763200E+02  0.84253479963E+01  0.39960135975E+02  0.00000000000E+00 0.  1.
         11    1    3    3    0    0  0.64682777809E+01  0.38117697180E+02  0.73018123544E+02  0.82622296153E+02  0.00000000000E+00 0. -1.
        -11    1    4    4    0    0 -0.26568627545E+02 -0.53988025288E+01  0.11076927110E+03  0.11403889888E+03  0.00000000000E+00 0.  1.
         11    1    4    4    0    0  0.54015754423E+02  0.10419037005E+02  0.80039359133E+02  0.97121352279E+02  0.00000000000E+00 0. -1.
         21    1    1    2  502  501 -0.18750081619E+02 -0.71401684559E+01 -0.10400496615E+03  0.10592252145E+03  0.00000000000E+00 0.  1.
<scales pt_clust_5="13000.00000" pt_clust_6="13000.00000" pt_clust_7="13000.00000" pt_clust_8="13000.00000" pt_clust_9="20.06359"></scales>
<clustering>
<clus scale="   20.064">  2  9  1 -1</clus>
<clus scale="   86.036">  7  8 -1 -1</clus>
<clus scale="   88.659">  1  7  2 -1</clus>
<clus scale="   91.177">  5  6 -1 -1</clus>
<clus scale="   88.659">  1  5  2 -1</clus>
</clustering>
</event>
<event>
 9    1  0.1713970E-005  0.1186824E+03  0.7546771E-02  0.1246890E+00
          3   -1    0    0  502    0  0.00000000000E+00  0.00000000000E+00  0.13839115595E+03  0.13839115595E+03  0.00000000000E+00 0. -1.
         -3   -1    0    0    0  501 -0.00000000000E+00 -0.00000000000E+00 -0.13617297466E+03  0.13617297466E+03  0.00000000000E+00 0.  1.
         23    2    1    2    0    0 -0.34929021321E+02  0.63287834630E+02 -0.31973303934E+02  0.11700294811E+03  0.86267091979E+02 0.  0.
         23    2    1    2    0    0  0.58345498398E+02 -0.53752293217E+02  0.46392022051E+02  0.12948786692E+03  0.91221607971E+02 0.  0.
        -11    1    4    4    0    0  0.55134493375E+02 -0.21095003121E+02  0.68113904470E+02  0.90134984876E+02  0.00000000000E+00 0. -1.
         11    1    4    4    0    0  0.32110050232E+01 -0.32657290096E+02 -0.21721882418E+02  0.39352882047E+02  0.00000000000E+00 0.  1.
        -13    1    3    3    0    0 -0.38241562073E+01  0.76708765086E+02 -0.12168995850E+02  0.77762094054E+02  0.00000000000E+00 0.  1.
         13    1    3    3    0    0 -0.31104865114E+02 -0.13420930456E+02 -0.19804308084E+02  0.39240854052E+02  0.00000000000E+00 0. -1.
         21    1    1    2  502  501 -0.23416477077E+02 -0.95355414132E+01 -0.12200536833E+02  0.28073315582E+02  0.00000000000E+00 0. -1.
<scales pt_clust_5="13000.00000" pt_clust_6="13000.00000" pt_clust_7="13000.00000" pt_clust_8="13000.00000" pt_clust_9="25.28355"></scales>
<clustering>
<clus scale="   25.284">  2  9  1 -1</clus>
<clus scale="   86.267">  7  8 -1 -1</clus>
<clus scale="   91.222">  5  6 -1 -1</clus>
<clus scale="  114.918">  2  7  1 -1</clus>
<clus scale="  118.682">  1  5  2 -1</clus>
</clustering>
</event>
<event>
 9    1  0.1713970E-005  0.9511889E+02  0.7546771E-02  0.1291440E+00
          1   -1    0    0  502    0  0.00000000000E+00  0.00000000000E+00  0.12576923666E+03  0.12576923666E+03  0.00000000000E+00 0. -1.
         -1   -1    0    0    0  501 -0.00000000000E+00 -0.00000000000E+00 -0.12497269734E+03  0.12497269734E+03  0.00000000000E+00 0.  1.
         23    2    1    2    0    0 -0.43927092335E+00 -0.46283382673E+01 -0.29521237620E+02  0.95782731793E+02  0.91001174525E+02 0.  0.
         23    2    1    2    0    0 -0.20732963133E+02  0.26337184849E+02  0.58098139886E+02  0.11383395352E+03  0.91974301027E+02 0.  0.
        -11    1    3    3    0    0  0.19472747275E+00  0.41214553790E+02 -0.28157553059E+02  0.49915179626E+02  0.00000000000E+00 0.  1.
         11    1    3    3    0    0 -0.63399839611E+00 -0.45842892057E+02 -0.13636845614E+01  0.45867552166E+02  0.00000000000E+00 0. -1.
        -11    1    4    4    0    0  0.34611481812E+02  0.24171928209E+02  0.20826873687E+02  0.47074360900E+02  0.00000000000E+00 0.  1.
         11    1    4    4    0    0 -0.55344444945E+02  0.21652566399E+01  0.37271266199E+02  0.66759592619E+02  0.00000000000E+00 0. -1.
         21    1    1    2  502  501  0.21172234056E+02 -0.21708846582E+02 -0.27780362938E+02  0.41125248690E+02  0.00000000000E+00 0. -1.
<scales pt_clust_5="13000.00000" pt_clust_6="13000.00000" pt_clust_7="13000.00000" pt_clust_8="13000.00000" pt_clust_9="30.32388"></scales>
<clustering>
<clus scale="   30.324">  2  9  1 -1</clus>
<clus scale="   91.001">  5  6 -1 -1</clus>
<clus scale="   91.974">  7  8 -1 -1</clus>
<clus scale="   94.178">  2  5  1 -1</clus>
<clus scale="   95.119">  1  5  2 -1</clus>
</clustering>
</event>
<event>
 9    1  0.1713970E-005  0.1643884E+03  0.7546771E-02  0.1183923E+00
          1   -1    0    0  502    0  0.00000000000E+00  0.00000000000E+00  0.13095148936E+03  0.13095148936E+03  0.00000000000E+00 0. -1.
         -1   -1    0    0    0  501 -0.00000000000E+00 -0.00000000000E+00 -0.28132878291E+03  0.28132878291E+03  0.00000000000E+00 0.  1.
         23    2    1    2    0    0 -0.15528197864E+03  0.30756689944E+02 -0.10187110595E+03  0.20945278038E+03  0.91838325952E+02 0.  0.
         23    2    1    2    0    0  0.12402080932E+03 -0.32566611122E+01 -0.28384902393E+02  0.15658488804E+03  0.91221474953E+02 0.  0.
        -11    1    4    4    0    0  0.37573073358E+02  0.38725632666E+02 -0.27312336871E+02  0.60476228489E+02  0.00000000000E+00 0.  1.
         11    1    4    4    0    0  0.86447735962E+02 -0.41982293778E+02 -0.10725655226E+01  0.96108659550E+02  0.00000000000E+00 0. -1.
        -11    1    3    3    0    0 -0.13982462218E+03 -0.39909756981E+01 -0.58099298940E+02  0.15146742684E+03  0.00000000000E+00 0.  1.
         11    1    3    3    0    0 -0.15457356460E+02  0.34747665642E+02 -0.43771807015E+02  0.57985353544E+02  0.00000000000E+00 0. -1.
         21    1    1    2  502  501  0.31261169321E+02 -0.27500028832E+02 -0.20121285202E+02  0.46242603854E+02  0.00000000000E+00 0. -1.
<scales pt_clust_5="13000.00000" pt_clust_6="13000.00000" pt_clust_7="13000.00000" pt_clust_8="13000.00000" pt_clust_9="41.63547"></scales>
<clustering>
<clus scale="   41.635">  2  9  1 -1</clus>
<clus scale="   91.221">  5  6 -1 -1</clus>
<clus scale="   91.838">  7  8 -1 -1</clus>
<clus scale="  164.045">  1  5  2 -1</clus>
<clus scale="  164.045">  1  5  2 -1</clus>
</clustering>
</event>
<event>
 9    1  0.1713970E-005  0.1079008E+03  0.7546771E-02  0.1269338E+00
          1   -1    0    0  502    0  0.00000000000E+00  0.00000000000E+00  0.19619475267E+03  0.19619475267E+03  0.00000000000E+00 0. -1.
         -1   -1    0    0    0  501 -0.00000000000E+00 -0.00000000000E+00 -0.74456612130E+02  0.74456612130E+02  0.00000000000E+00 0.  1.
         23    2    1    2    0    0 -0.25644823031E+02  0.21542678282E+02  0.37397955910E+02  0.11038677883E+03  0.98310171896E+02 0.  0.
         23    2    1    2    0    0  0.32546093052E+02 -0.50594627917E+02  0.68992071065E+02  0.12669066908E+03  0.87587414707E+02 0.  0.
        -13    1    4    4    0    0  0.31903832064E+02  0.85679801515E+01 -0.33854770754E+01  0.33207322073E+02  0.00000000000E+00 0.  1.
         13    1    4    4    0    0  0.64226098740E+00 -0.59162608069E+02  0.72377548141E+02  0.93483347007E+02  0.00000000000E+00 0. -1.
        -13    1    3    3    0    0  0.22084964358E+02 -0.13551367008E+02 -0.16148252726E+02  0.30531152363E+02  0.00000000000E+00 0.  1.
         13    1    3    3    0    0 -0.47729787389E+02  0.35094045291E+02  0.53546208636E+02  0.79855626466E+02  0.00000000000E+00 0. -1.
         21    1    1    2  502  501 -0.69012700207E+01  0.29051949635E+02  0.15348113567E+02  0.33573916893E+02  0.00000000000E+00 0.  1.
<scales pt_clust_5="13000.00000" pt_clust_6="13000.00000" pt_clust_7="13000.00000" pt_clust_8="13000.00000" pt_clust_9="29.86040"></scales>
<clustering>
<clus scale="   29.860">  1  9  2 -1</clus>
<clus scale="   87.587">  5  6 -1 -1</clus>
<clus scale="   98.231">  1  5  2 -1</clus>
<clus scale="   98.310">  7  8 -1 -1</clus>
<clus scale="   29.860">  1  5  2 -1</clus>
</clustering>
</event>
<event>
 9    1  0.1713970E-005  0.2030725E+03  0.7546771E-02  0.1147333E+00
         -2   -1    0    0    0  501 -0.00000000000E+00  0.00000000000E+00  0.14456644818E+03  0.14456644818E+03  0.00000000000E+00 0.  1.
          2   -1    0    0  502    0  0.00000000000E+00 -0.00000000000E+00 -0.54914265237E+03  0.54914265237E+03  0.00000000000E+00 0. -1.
         23    2    1    2    0    0  0.11629271453E+03 -0.13860269264E+03 -0.20848339739E+03  0.29093704901E+03  0.91893077202E+02 0.  0.
         23    2    1    2    0    0 -0.14314905917E+03  0.11387719843E+03 -0.25923520249E+03  0.32983663185E+03  0.90164538692E+02 0.  0.
        -11    1    4    4    0    0 -0.89553721870E+02  0.65716170941E+02 -0.80669154006E+02  0.13728072200E+03  0.00000000000E+00 0. -1.
         11    1    4    4    0    0 -0.53595337302E+02  0.48161027492E+02 -0.17856604848E+03  0.19255590985E+03  0.00000000000E+00 0.  1.
        -13    1    3    3    0    0  0.63801416000E+02 -0.12349933377E+03 -0.18519236322E+03  0.23155759007E+03  0.00000000000E+00 0. -1.
         13    1    3    3    0    0  0.52491298532E+02 -0.15103358877E+02 -0.23291034166E+02  0.59379458935E+02  0.00000000000E+00 0.  1.
         21    1    1    2  502  501  0.26856344640E+02  0.24725494211E+02  0.63142395688E+02  0.72935419685E+02  0.00000000000E+00 0.  1.
<scales pt_clust_5="13000.00000" pt_clust_6="13000.00000" pt_clust_7="13000.00000" pt_clust_8="13000.00000" pt_clust_9="36.50498"></scales>
<clustering>
<clus scale="   36.505">  1  9  2 -1</clus>
<clus scale="   90.165">  5  6 -1 -1</clus>
<clus scale="   91.893">  7  8 -1 -1</clus>
<clus scale="  202.296">  2  5  1 -1</clus>
<clus scale="  202.296">  2  5  1 -1</clus>
</clustering>
</event>
<event>
 9    1  0.1754686E-005  0.9192286E+02  0.7546771E-02  0.1298518E+00
          1   -1    0    0  502    0  0.00000000000E+00  0.00000000000E+00  0.39672458056E+03  0.39672458056E+03  0.00000000000E+00 0. -1.
         -1   -1    0    0    0  501 -0.00000000000E+00 -0.00000000000E+00 -0.10070746394E+03  0.10070746394E+03  0.00000000000E+00 0.  1.
         23    2    1    2    0    0 -0.36921203214E+02 -0.92159729754E+01  0.11072384346E+02  0.99619855644E+02  0.91396983204E+02 0.  0.
         23    2    1    2    0    0 -0.11216059869E+01  0.91293501193E+01  0.32791532706E+03  0.34042111941E+03  0.90958637760E+02 0.  0.
        -13    1    3    3    0    0 -0.56930061837E+02 -0.30252825045E+02  0.22694896062E+02  0.68347082390E+02  0.00000000000E+00 0.  1.
         13    1    3    3    0    0  0.20008858623E+02  0.21036852070E+02 -0.11622511716E+02  0.31272773254E+02  0.00000000000E+00 0. -1.
        -13    1    4    4    0    0 -0.45433987557E+02  0.10219442080E+01  0.18886778655E+03  0.19425841653E+03  0.00000000000E+00 0.  1.
         13    1    4    4    0    0  0.44312381570E+02  0.81074059113E+01  0.13904754051E+03  0.14616270288E+03  0.00000000000E+00 0. -1.
         21    1    1    2  502  501  0.38042809201E+02  0.86622856082E-01 -0.42970594790E+02  0.57391069444E+02  0.00000000000E+00 0. -1.
<scales pt_clust_5="13000.00000" pt_clust_6="13000.00000" pt_clust_7="13000.00000" pt_clust_8="13000.00000" pt_clust_9="38.04291"></scales>
<clustering>
<clus scale="   38.043">  2  9  1 -1</clus>
<clus scale="   90.959">  7  8 -1 -1</clus>
<clus scale="   91.397">  5  6 -1 -1</clus>
<clus scale="   91.487">  1  7  2 -1</clus>
<clus scale="   91.487">  1  5  2 -1</clus>
</clustering>
</event>
<event>
 9    1  0.1713970E-005  0.1077057E+03  0.7546771E-02  0.1266144E+00
          1   -1    0    0  502    0  0.00000000000E+00  0.00000000000E+00  0.32625255568E+03  0.32625255568E+03  0.00000000000E+00 0. -1.
         -1   -1    0    0    0  501 -0.00000000000E+00 -0.00000000000E+00 -0.99171689149E+02  0.99171689149E+02  0.00000000000E+00 0.  1.
         23    2    1    2    0    0  0.35592311183E+02 -0.22641012436E+02  0.36186518446E+02  0.10442578163E+03  0.88407305648E+02 0.  0.
         23    2    1    2    0    0 -0.38925253692E+02  0.49149699482E+02  0.24039160371E+03  0.26475082051E+03  0.91509592355E+02 0.  0.
        -11    1    3    3    0    0  0.55472620626E+02 -0.16119113603E+02 -0.52513812945E+01  0.58005296896E+02  0.00000000000E+00 0.  1.
         11    1    3    3    0    0 -0.19880309443E+02 -0.65218988330E+01  0.41437899740E+02  0.46420484733E+02  0.00000000000E+00 0. -1.
        -13    1    4    4    0    0 -0.10630145130E+02  0.70239246450E+02  0.12162025942E+03  0.14084757445E+03  0.00000000000E+00 0.  1.
         13    1    4    4    0    0 -0.28295108563E+02 -0.21089546968E+02  0.11877134429E+03  0.12390324606E+03  0.00000000000E+00 0. -1.
         21    1    1    2  502  501  0.33329425089E+01 -0.26508687046E+02 -0.49497255620E+02  0.56247642694E+02  0.00000000000E+00 0.  1.
<scales pt_clust_5="13000.00000" pt_clust_6="13000.00000" pt_clust_7="13000.00000" pt_clust_8="13000.00000" pt_clust_9="26.71739"></scales>
<clustering>
<clus scale="   26.717">  2  9  1 -1</clus>
<clus scale="   88.407">  5  6 -1 -1</clus>
<clus scale="   91.510">  7  8 -1 -1</clus>
<clus scale="  105.083">  2  5  1 -1</clus>
<clus scale="  107.706">  1  5  2 -1</clus>
</clustering>
</event>
<event>
 9    1  0.1713970E-005  0.1141292E+03  0.7546771E-02  0.1253745E+00
          2   -1    0    0  502    0  0.00000000000E+00  0.00000000000E+00  0.56925520876E+03  0.56925520876E+03  0.00000000000E+00 0. -1.
         -2   -1    0    0    0  501 -0.00000000000E+00 -0.00000000000E+00 -0.32525067706E+02  0.32525067706E+02  0.00000000000E+00 0.  1.
         23    2    1    2    0    0 -0.10910302464E+02  0.64418644445E+02  0.22022356955E+03  0.24652822733E+03  0.89492736206E+02 0.  0.
         23    2    1    2    0    0  0.35969079729E+02 -0.63449749984E+02  0.30690971819E+03  0.32840096595E+03  0.91290601101E+02 0.  0.
        -11    1    4    4    0    0 -0.26344660313E+02 -0.44478278180E+02  0.13851510562E+03  0.14784719423E+03  0.00000000000E+00 0. -1.
         11    1    4    4    0    0  0.62313740042E+02 -0.18971471805E+02  0.16839461257E+03  0.18055377172E+03  0.00000000000E+00 0.  1.
        -11    1    3    3    0    0 -0.13642822112E+02  0.23699117713E+02  0.54140499765E+01  0.27876275086E+02  0.00000000000E+00 0.  1.
         11    1    3    3    0    0  0.27325196483E+01  0.40719526732E+02  0.21480951958E+03  0.21865195225E+03  0.00000000000E+00 0. -1.
         21    1    1    2  502  501 -0.25058777266E+02 -0.96889446041E+00  0.95968533143E+01  0.26851083182E+02  0.00000000000E+00 0. -1.
<scales pt_clust_5="13000.00000" pt_clust_6="13000.00000" pt_clust_7="13000.00000" pt_clust_8="13000.00000" pt_clust_9="25.07750"></scales>
<clustering>
<clus scale="   25.078">  2  9  1 -1</clus>
<clus scale="   89.493">  7  8 -1 -1</clus>
<clus scale="   91.291">  5  6 -1 -1</clus>
<clus scale="  112.696">  2  7  1 -1</clus>
<clus scale="  114.129">  1  5  2 -1</clus>
</clustering>
</event>
<event>
 9    1  0.1713970E-005  0.1034903E+03  0.7546771E-02  0.1274353E+00
          2   -1    0    0  502    0  0.00000000000E+00  0.00000000000E+00  0.48701804008E+02  0.48701804008E+02  0.00000000000E+00 0. -1.
         -2   -1    0    0    0  501 -0.00000000000E+00 -0.00000000000E+00 -0.45255259285E+03  0.45255259285E+03  0.00000000000E+00 0.  1.
         23    2    1    2    0    0 -0.43291214792E+02  0.16435341225E+02 -0.29858166015E+03  0.31544213311E+03  0.90600672432E+02 0.  0.
         23    2    1    2    0    0  0.25457985595E+02 -0.38467677001E+02 -0.34603463948E+02  0.10967367920E+03  0.93290111947E+02 0.  0.
        -11    1    3    3    0    0 -0.34403693255E+02 -0.31543473513E+02 -0.20090426257E+03  0.20625500612E+03  0.00000000000E+00 0.  1.
         11    1    3    3    0    0 -0.88875215365E+01  0.47978814738E+02 -0.97677397575E+02  0.10918712699E+03  0.00000000000E+00 0. -1.
        -11    1    4    4    0    0  0.56158746252E+02 -0.25270661823E+02 -0.43132650470E+02  0.75185348746E+02  0.00000000000E+00 0. -1.
         11    1    4    4    0    0 -0.30700760657E+02 -0.13197015179E+02  0.85291865223E+01  0.34488330451E+02  0.00000000000E+00 0.  1.
         21    1    1    2  502  501  0.17833229197E+02  0.22032335777E+02 -0.70665664754E+02  0.76138584558E+02  0.00000000000E+00 0.  1.
<scales pt_clust_5="13000.00000" pt_clust_6="13000.00000" pt_clust_7="13000.00000" pt_clust_8="13000.00000" pt_clust_9="28.34516"></scales>
<clustering>
<clus scale="   28.345">  2  9  1 -1</clus>
<clus scale="   90.601">  5  6 -1 -1</clus>
<clus scale="   93.290">  7  8 -1 -1</clus>
<clus scale="  101.073">  2  5  1 -1</clus>
<clus scale="  103.490">  1  5  2 -1</clus>
</clustering>
</event>
<event>
 9    1  0.1713970E-005  0.1284910E+03  0.7546771E-02  0.1230833E+00
         -1   -1    0    0    0  501 -0.00000000000E+00  0.00000000000E+00  0.11639816161E+04  0.11639816161E+04  0.00000000000E+00 0.  1.
          1   -1    0    0  502    0  0.00000000000E+00 -0.00000000000E+00 -0.28505258755E+02  0.28505258755E+02  0.00000000000E+00 0. -1.
         23    2    1    2    0    0 -0.63766528713E+02  0.10169481835E+03  0.52725078884E+03  0.54841008280E+03  0.91390471725E+02 0.  0.
         23    2    1    2    0    0  0.13829197120E+02 -0.79302972903E+02  0.20281431004E+03  0.23498826824E+03  0.87210284071E+02 0.  0.
        -11    1    3    3    0    0 -0.56936550587E+02  0.12537420961E+02  0.15587730221E+03  0.16642322873E+03  0.00000000000E+00 0. -1.
         11    1    3    3    0    0 -0.68299781264E+01  0.89157397388E+02  0.37137348663E+03  0.38198685407E+03  0.00000000000E+00 0.  1.
        -13    1    4    4    0    0 -0.10133609777E+02 -0.29885036739E+02  0.16575744934E+03  0.16873451774E+03  0.00000000000E+00 0.  1.
         13    1    4    4    0    0  0.23962806897E+02 -0.49417936164E+02  0.37056860704E+02  0.66253750492E+02  0.00000000000E+00 0. -1.
         21    1    1    2  502  501  0.49937331594E+02 -0.22391845446E+02  0.40541125846E+03  0.40908852381E+03  0.00000000000E+00 0. -1.
<scales pt_clust_5="13000.00000" pt_clust_6="13000.00000" pt_clust_7="13000.00000" pt_clust_8="13000.00000" pt_clust_9="54.72780"></scales>
<clustering>
<clus scale="   54.728">  1  9  2 -1</clus>
<clus scale="   87.210">  7  8 -1 -1</clus>
<clus scale="   91.390">  5  6 -1 -1</clus>
<clus scale="  125.552">  2  7  1 -1</clus>
<clus scale="  125.552">  2  5  1 -1</clus>
</clustering>
</event>
<event>
 9    1  0.1713970E-005  0.1019785E+03  0.7546771E-02  0.1276419E+00
          2   -1    0    0  502    0  0.00000000000E+00  0.00000000000E+00  0.59762325298E+03  0.59762325298E+03  0.00000000000E+00 0. -1.
         -2   -1    0    0    0  501 -0.00000000000E+00 -0.00000000000E+00 -0.31641721880E+02  0.31641721880E+02  0.00000000000E+00 0.  1.
         23    2    1    2    0    0 -0.35871295870E+02  0.24133577890E+02  0.15057725015E+03  0.18147423893E+03  0.91598098679E+02 0.  0.
         23    2    1    2    0    0  0.46734602200E+02 -0.48487773114E+01  0.41299567983E+03  0.42552604826E+03  0.91100782158E+02 0.  0.
        -11    1    3    3    0    0 -0.23931173101E+02 -0.23271464451E+02  0.13617227865E+02  0.36051227419E+02  0.00000000000E+00 0.  1.
         11    1    3    3    0    0 -0.11940122768E+02  0.47405042340E+02  0.13696002229E+03  0.14542301151E+03  0.00000000000E+00 0. -1.
        -11    1    4    4    0    0 -0.25974591155E+02 -0.12711644144E+02  0.13582911967E+03  0.13887337769E+03  0.00000000000E+00 0.  1.
         11    1    4    4    0    0  0.72709193355E+02  0.78628668324E+01  0.27716656016E+03  0.28665267057E+03  0.00000000000E+00 0. -1.
         21    1    1    2  502  501 -0.10863306330E+02 -0.19284800578E+02  0.24086011215E+01  0.22264687672E+02  0.00000000000E+00 0.  1.
<scales pt_clust_5="13000.00000" pt_clust_6="13000.00000" pt_clust_7="13000.00000" pt_clust_8="13000.00000" pt_clust_9="22.13402"></scales>
<clustering>
<clus scale="   22.134">  2  9  1 -1</clus>
<clus scale="   91.101">  7  8 -1 -1</clus>
<clus scale="   91.598">  5  6 -1 -1</clus>
<clus scale="  101.532">  1  7  2 -1</clus>
<clus scale="  101.532">  1  5  2 -1</clus>
</clustering>
</event>
<event>
 9    1  0.1713970E-005  0.1167676E+03  0.7546771E-02  0.1249218E+00
         -1   -1    0    0    0  501 -0.00000000000E+00  0.00000000000E+00  0.80386810279E+02  0.80386810279E+02  0.00000000000E+00 0.  1.
          1   -1    0    0  502    0  0.00000000000E+00 -0.00000000000E+00 -0.20743680718E+03  0.20743680718E+03  0.00000000000E+00 0. -1.
         23    2    1    2    0    0 -0.33773803495E+02  0.74133176788E+02 -0.70002340183E+02  0.14118647359E+03  0.91634573124E+02 0.  0.
         23    2    1    2    0    0  0.17441427849E+02 -0.55482515581E+02 -0.48266549654E+02  0.12033692525E+03  0.93641886051E+02 0.  0.
        -13    1    4    4    0    0  0.53634048746E+02 -0.15000873013E+02 -0.28396821001E+02  0.62514132954E+02  0.00000000000E+00 0. -1.
         13    1    4    4    0    0 -0.36192620897E+02 -0.40481642568E+02 -0.19869728653E+02  0.57822792298E+02  0.00000000000E+00 0.  1.
        -13    1    3    3    0    0 -0.55128981938E+02  0.15848927677E+02 -0.17741832636E+02  0.60043032763E+02  0.00000000000E+00 0.  1.
         13    1    3    3    0    0  0.21355178444E+02  0.58284249111E+02 -0.52260507547E+02  0.81143440831E+02  0.00000000000E+00 0. -1.
         21    1    1    2  502  501  0.16332375645E+02 -0.18650661207E+02 -0.87811070613E+01  0.26300218609E+02  0.00000000000E+00 0. -1.
<scales pt_clust_5="13000.00000" pt_clust_6="13000.00000" pt_clust_7="13000.00000" pt_clust_8="13000.00000" pt_clust_9="24.79100"></scales>
<clustering>
<clus scale="   24.791">  1  9  2 -1</clus>
<clus scale="   91.635">  7  8 -1 -1</clus>
<clus scale="   93.642">  5  6 -1 -1</clus>
<clus scale="  115.164">  1  7  2 -1</clus>
<clus scale="  116.768">  2  5  1 -1</clus>
</clustering>
</event>
<event>
 9    1  0.1713970E-005  0.9765855E+02  0.7546771E-02  0.1286376E+00
         -1   -1    0    0    0  501 -0.00000000000E+00  0.00000000000E+00  0.40850012840E+02  0.40850012840E+02  0.00000000000E+00 0.  1.
          1   -1    0    0  502    0  0.00000000000E+00 -0.00000000000E+00 -0.33449411220E+03  0.33449411220E+03  0.00000000000E+00 0. -1.
         23    2    1    2    0    0 -0.25737687779E+02 -0.38774167640E+01 -0.66754846079E+02  0.11546800692E+03  0.90549368939E+02 0.  0.
         23    2    1    2    0    0  0.37728294385E+02  0.23418586243E+02 -0.19737671357E+03  0.22250471258E+03  0.92622490152E+02 0.  0.
        -11    1    3    3    0    0  0.82952340570E+01  0.24034871738E+02  0.97285943546E+01  0.27223730744E+02  0.00000000000E+00 0.  1.
         11    1    3    3    0    0 -0.34032921836E+02 -0.27912288502E+02 -0.76483440433E+02  0.88244276180E+02  0.00000000000E+00 0. -1.
        -13    1    4    4    0    0  0.46569195838E+02  0.53592454945E+02 -0.14410912831E+03  0.16064956300E+03  0.00000000000E+00 0.  1.
         13    1    4    4    0    0 -0.88409014524E+01 -0.30173868701E+02 -0.53267585259E+02  0.61855149585E+02  0.00000000000E+00 0. -1.
         21    1    1    2  502  501 -0.11990606607E+02 -0.19541169479E+02 -0.29512539703E+02  0.37371405528E+02  0.00000000000E+00 0. -1.
<scales pt_clust_5="13000.00000" pt_clust_6="13000.00000" pt_clust_7="13000.00000" pt_clust_8="13000.00000" pt_clust_9="22.92666"></scales>
<clustering>
<clus scale="   22.927">  2  9  1 -1</clus>
<clus scale="   90.549">  5  6 -1 -1</clus>
<clus scale="   92.622">  7  8 -1 -1</clus>
<clus scale="   95.695">  1  5  2 -1</clus>
<clus scale="   22.927">  2  5  1 -1</clus>
</clustering>
</event>
<event>
 9    1  0.1713970E-005  0.1449216E+03  0.7546771E-02  0.1207056E+00
          1   -1    0    0  502    0  0.00000000000E+00  0.00000000000E+00  0.29285483878E+03  0.29285483878E+03  0.00000000000E+00 0. -1.
         -1   -1    0    0    0  501 -0.00000000000E+00 -0.00000000000E+00 -0.14484022791E+03  0.14484022791E+03  0.00000000000E+00 0.  1.
         23    2    1    2    0    0  0.79894016019E+02  0.55745204127E+02 -0.64212885883E+02  0.14858412866E+03  0.91996559701E+02 0.  0.
         23    2    1    2    0    0 -0.76655807275E+02 -0.85208083097E+02  0.21338632717E+03  0.25944799616E+03  0.92967778682E+02 0.  0.
        -11    1    3    3    0    0  0.98773638682E+02  0.33678307522E+02 -0.55851746039E+02  0.11836332891E+03  0.00000000000E+00 0.  1.
         11    1    3    3    0    0 -0.18879622663E+02  0.22066896605E+02 -0.83611398437E+01  0.30220799744E+02  0.00000000000E+00 0. -1.
        -11    1    4    4    0    0 -0.23315688950E+02 -0.80284814731E+02  0.17373199375E+03  0.19280061847E+03  0.00000000000E+00 0. -1.
         11    1    4    4    0    0 -0.53340118325E+02 -0.49232683662E+01  0.39654333416E+02  0.66647377690E+02  0.00000000000E+00 0.  1.
         21    1    1    2  502  501 -0.32382087437E+01  0.29462878970E+02 -0.11588304113E+01  0.29662941880E+02  0.00000000000E+00 0.  1.
<scales pt_clust_5="13000.00000" pt_clust_6="13000.00000" pt_clust_7="13000.00000" pt_clust_8="13000.00000" pt_clust_9="29.64030"></scales>
<clustering>
<clus scale="   29.640">  2  9  1 -1</clus>
<clus scale="   91.997">  5  6 -1 -1</clus>
<clus scale="   92.968">  7  8 -1 -1</clus>
<clus scale="  144.300">  2  5  1 -1</clus>
<clus scale="  144.922">  1  5  2 -1</clus>
</clustering>
</event>
<event>
 9    1  0.1713970E-005  0.1135141E+03  0.7546771E-02  0.1254519E+00
         -2   -1    0    0    0  501 -0.00000000000E+00  0.00000000000E+00  0.26987774302E+02  0.26987774302E+02  0.00000000000E+00 0.  1.
          2   -1    0    0  502    0  0.00000000000E+00 -0.00000000000E+00 -0.65262798998E+03  0.65262798998E+03  0.00000000000E+00 0. -1.
         23    2    1    2    0    0  0.10708304612E+02  0.75322850107E+02 -0.21948265713E+03  0.24971217181E+03  0.91626046683E+02 0.  0.
         23    2    1    2    0    0 -0.24901671053E+02 -0.57996205460E+02 -0.37853903639E+03  0.39434452849E+03  0.90731207464E+02 0.  0.
        -11    1    4    4    0    0  0.25271483772E+01 -0.70887937088E+02 -0.32656124799E+03  0.33417620321E+03  0.00000000000E+00 0. -1.
         11    1    4    4    0    0 -0.27428819430E+02  0.12891731628E+02 -0.51977788401E+02  0.60168325278E+02  0.00000000000E+00 0.  1.
        -11    1    3    3    0    0 -0.31126467436E+02 -0.10666678473E+01 -0.45371415756E+02  0.55032355238E+02  0.00000000000E+00 0. -1.
         11    1    3    3    0    0  0.41834772048E+02  0.76389517954E+02 -0.17411124138E+03  0.19467981657E+03  0.00000000000E+00 0.  1.
         21    1    1    2  502  501  0.14193366441E+02 -0.17326644647E+02 -0.27618522159E+02  0.35559063991E+02  0.00000000000E+00 0.  1.
<scales pt_clust_5="13000.00000" pt_clust_6="13000.00000" pt_clust_7="13000.00000" pt_clust_8="13000.00000" pt_clust_9="22.39786"></scales>
<clustering>
<clus scale="   22.398">  1  9  2 -1</clus>
<clus scale="   90.731">  5  6 -1 -1</clus>
<clus scale="   91.626">  7  8 -1 -1</clus>
<clus scale="  112.793">  2  5  1 -1</clus>
<clus scale="  112.793">  2  5  1 -1</clus>
</clustering>
</event>
<event>
 9    1  0.1713970E-005  0.1085170E+03  0.7546771E-02  0.1263562E+00
         -2   -1    0    0    0  501 -0.00000000000E+00  0.00000000000E+00  0.42570395440E+02  0.42570395440E+02  0.00000000000E+00 0.  1.
          2   -1    0    0  502    0  0.00000000000E+00 -0.00000000000E+00 -0.50600067748E+03  0.50600067748E+03  0.00000000000E+00 0. -1.
         23    2    1    2    0    0 -0.63672288779E+02 -0.96448372999E+01 -0.18082719216E+03  0.21267966361E+03  0.91580470854E+02 0.  0.
         23    2    1    2    0    0  0.54948388278E+02 -0.87549099633E+01 -0.29385830494E+03  0.31262475925E+03  0.91025067366E+02 0.  0.
        -11    1    3    3    0    0 -0.27438691396E+02  0.22709206726E+02 -0.12921984071E+02  0.37888883964E+02  0.00000000000E+00 0.  1.
         11    1    3    3    0    0 -0.36233597383E+02 -0.32354044026E+02 -0.16790520809E+03  0.17479077964E+03  0.00000000000E+00 0. -1.
        -11    1    4    4    0    0  0.37170882653E+02  0.32127598667E+02 -0.22707194743E+03  0.23232633606E+03  0.00000000000E+00 0.  1.
         11    1    4    4    0    0  0.17777505626E+02 -0.40882508630E+02 -0.66786357506E+02  0.80298423191E+02  0.00000000000E+00 0. -1.
         21    1    1    2  502  501  0.87239005009E+01  0.18399747263E+02  0.11255215060E+02  0.23266650067E+02  0.00000000000E+00 0.  1.
<scales pt_clust_5="13000.00000" pt_clust_6="13000.00000" pt_clust_7="13000.00000" pt_clust_8="13000.00000" pt_clust_9="20.36313"></scales>
<clustering>
<clus scale="   20.363">  1  9  2 -1</clus>
<clus scale="   91.025">  7  8 -1 -1</clus>
<clus scale="   91.580">  5  6 -1 -1</clus>
<clus scale="  108.049">  2  7  1 -1</clus>
<clus scale="  108.049">  2  5  1 -1</clus>
</clustering>
</event>
<event>
 9    1  0.1713970E-005  0.1047351E+03  0.7546771E-02  0.1271710E+00
         -2   -1    0    0    0  501 -0.00000000000E+00  0.00000000000E+00  0.62207588405E+02  0.62207588405E+02  0.00000000000E+00 0.  1.
          2   -1    0    0  502    0  0.00000000000E+00 -0.00000000000E+00 -0.21759545882E+03  0.21759545882E+03  0.00000000000E+00 0. -1.
         23    2    1    2    0    0 -0.29444308825E+02 -0.24164687657E+02 -0.49702496440E+02  0.11091173745E+03  0.91543300678E+02 0.  0.
         23    2    1    2    0    0  0.39786706179E+02  0.42627563318E+02 -0.87709729215E+02  0.14112502150E+03  0.93931804784E+02 0.  0.
        -13    1    3    3    0    0 -0.35015667656E+02  0.52117430161E+01  0.15906469260E+02  0.38810758959E+02  0.00000000000E+00 0.  1.
         13    1    3    3    0    0  0.55713588309E+01 -0.29376430673E+02 -0.65608965701E+02  0.72100978486E+02  0.00000000000E+00 0. -1.
        -13    1    4    4    0    0  0.60120964516E+02  0.54142114824E+02 -0.85405647907E+02  0.11764362994E+03  0.00000000000E+00 0. -1.
         13    1    4    4    0    0 -0.20334258338E+02 -0.11514551506E+02 -0.23040813087E+01  0.23481391552E+02  0.00000000000E+00 0.  1.
         21    1    1    2  502  501 -0.10342397354E+02 -0.18462875661E+02 -0.17975644764E+02  0.27766288290E+02  0.00000000000E+00 0. -1.
<scales pt_clust_5="13000.00000" pt_clust_6="13000.00000" pt_clust_7="13000.00000" pt_clust_8="13000.00000" pt_clust_9="21.16230"></scales>
<clustering>
<clus scale="   21.162">  2  9  1 -1</clus>
<clus scale="   91.543">  5  6 -1 -1</clus>
<clus scale="   93.932">  7  8 -1 -1</clus>
<clus scale="  102.598">  1  5  2 -1</clus>
<clus scale="   21.162">  2  5  1 -1</clus>
</clustering>
</event>
<event>
 9    1  0.1713970E-005  0.1005365E+03  0.7546771E-02  0.1279799E+00
          2   -1    0    0  502    0  0.00000000000E+00  0.00000000000E+00  0.20936298851E+03  0.20936298851E+03  0.00000000000E+00 0. -1.
         -2   -1    0    0    0  501 -0.00000000000E+00 -0.00000000000E+00 -0.99303826900E+02  0.99303826900E+02  0.00000000000E+00 0.  1.
         23    2    1    2    0    0  0.18961088948E+02  0.68224082016E+01 -0.17339086598E+01  0.94039219093E+02  0.91838445874E+02 0.  0.
         23    2    1    2    0    0 -0.48628752318E+02  0.11292176333E+01  0.13949633170E+03  0.17326494049E+03  0.90528903457E+02 0.  0.
        -13    1    4    4    0    0  0.26216277625E+02 -0.13446371632E+01  0.50813586652E+02  0.57193722120E+02  0.00000000000E+00 0.  1.
         13    1    4    4    0    0 -0.74845029942E+02  0.24738547965E+01  0.88682745047E+02  0.11607121837E+03  0.00000000000E+00 0. -1.
        -13    1    3    3    0    0  0.86499011641E+01  0.48734395087E+02  0.70414623756E+01  0.49994442161E+02  0.00000000000E+00 0.  1.
         13    1    3    3    0    0  0.10311187784E+02 -0.41911986885E+02 -0.87753710354E+01  0.44044776932E+02  0.00000000000E+00 0. -1.
         21    1    1    2  502  501  0.29667663370E+02 -0.79516258348E+01 -0.27703261430E+02  0.41362655828E+02  0.00000000000E+00 0. -1.
<scales pt_clust_5="13000.00000" pt_clust_6="13000.00000" pt_clust_7="13000.00000" pt_clust_8="13000.00000" pt_clust_9="30.71479"></scales>
<clustering>
<clus scale="   30.715">  2  9  1 -1</clus>
<clus scale="   90.529">  5  6 -1 -1</clus>
<clus scale="   91.838">  7  8 -1 -1</clus>
<clus scale="   99.342">  1  5  2 -1</clus>
<clus scale="   99.342">  1  5  2 -1</clus>
</clustering>
</event>
<event>
 9    1  0.1713970E-005  0.1164428E+03  0.7546771E-02  0.1253117E+00
         -2   -1    0    0    0  501 -0.00000000000E+00  0.00000000000E+00  0.70009238663E+02  0.70009238663E+02  0.00000000000E+00 0.  1.
          2   -1    0    0  502    0  0.00000000000E+00 -0.00000000000E+00 -0.44461833599E+03  0.44461833599E+03  0.00000000000E+00 0. -1.
         23    2    1    2    0    0  0.53341736026E+02  0.11221027380E+02 -0.27309938158E+02  0.11748732021E+03  0.10043000264E+03 0.  0.
         23    2    1    2    0    0 -0.59121384946E+02  0.12575665039E+02 -0.35525596277E+03  0.37139151398E+03  0.89840815105E+02 0.  0.
        -13    1    4    4    0    0 -0.31907381946E+02 -0.36691564745E+02 -0.11958265604E+03  0.12909052472E+03  0.00000000000E+00 0.  1.
         13    1    4    4    0    0 -0.27214003000E+02  0.49267229784E+02 -0.23567330673E+03  0.24230098926E+03  0.00000000000E+00 0. -1.
        -13    1    3    3    0    0  0.38171935620E+02 -0.41066222963E+02  0.10983359836E+01  0.56077960727E+02  0.00000000000E+00 0.  1.
         13    1    3    3    0    0  0.15169800406E+02  0.52287250343E+02 -0.28408274141E+02  0.61409359486E+02  0.00000000000E+00 0. -1.
         21    1    1    2  502  501  0.57796489199E+01 -0.23796692419E+02  0.79568036057E+01  0.25748740461E+02  0.00000000000E+00 0. -1.
<scales pt_clust_5="13000.00000" pt_clust_6="13000.00000" pt_clust_7="13000.00000" pt_clust_8="13000.00000" pt_clust_9="24.48851"></scales>
<clustering>
<clus scale="   24.489">  1  9  2 -1</clus>
<clus scale="   89.841">  5  6 -1 -1</clus>
<clus scale="  100.430">  7  8 -1 -1</clus>
<clus scale="  107.444">  2  5  1 -1</clus>
<clus scale="  107.444">  2  5  1 -1</clus>
</clustering>
</event>
<event>
 9    1  0.1713970E-005  0.1155267E+03  0.7546771E-02  0.1250737E+00
         -1   -1    0    0    0  501 -0.00000000000E+00  0.00000000000E+00  0.97278809932E+02  0.97278809932E+02  0.00000000000E+00 0.  1.
          1   -1    0    0  502    0  0.00000000000E+00 -0.00000000000E+00 -0.26838895976E+03  0.26838895976E+03  0.00000000000E+00 0. -1.
         23    2    1    2    0    0 -0.57719830897E+02 -0.62463892530E+02 -0.25170685014E+02  0.12674297498E+03  0.90536741574E+02 0.  0.
         23    2    1    2    0    0  0.96361071525E+01  0.70126453327E+02 -0.15134882473E+03  0.18993479060E+03  0.90322665573E+02 0.  0.
        -11    1    4    4    0    0  0.27599157190E+02 -0.11338391065E+02 -0.54315113194E+02  0.61970994108E+02  0.00000000000E+00 0. -1.
         11    1    4    4    0    0 -0.17963050037E+02  0.81464844392E+02 -0.97033711539E+02  0.12796379649E+03  0.00000000000E+00 0.  1.
        -13    1    3    3    0    0 -0.55550244596E+02 -0.29959972933E+01 -0.35993097105E+02  0.66259404718E+02  0.00000000000E+00 0.  1.
         13    1    3    3    0    0 -0.21695863013E+01 -0.59467895236E+02  0.10822412091E+02  0.60483570265E+02  0.00000000000E+00 0. -1.
         21    1    1    2  502  501  0.48083723745E+02 -0.76625607974E+01  0.54093599214E+01  0.48990004102E+02  0.00000000000E+00 0. -1.
<scales pt_clust_5="13000.00000" pt_clust_6="13000.00000" pt_clust_7="13000.00000" pt_clust_8="13000.00000" pt_clust_9="48.69044"></scales>
<clustering>
<clus scale="   48.690">  1  9  2 -1</clus>
<clus scale="   90.323">  5  6 -1 -1</clus>
<clus scale="   90.537">  7  8 -1 -1</clus>
<clus scale="  115.359">  2  5  1 -1</clus>
<clus scale="  115.359">  2  5  1 -1</clus>
</clustering>
</event>
<event>
 9    1  0.1713970E-005  0.9968865E+02  0.7546771E-02  0.1281294E+00
         -1   -1    0    0    0  501 -0.00000000000E+00  0.00000000000E+00  0.41776002056E+03  0.41776002056E+03  0.00000000000E+00 0.  1.
          1   -1    0    0  502    0  0.00000000000E+00 -0.00000000000E+00 -0.30591001979E+03  0.30591001979E+03  0.00000000000E+00 0. -1.
         23    2    1    2    0    0  0.32919618668E+02  0.10953863856E+03  0.12846411575E+03  0.19432967947E+03  0.90435505514E+02 0.  0.
         23    2    1    2    0    0  0.57496736748E+01 -0.36318498302E+02 -0.25696914533E+03  0.27512186484E+03  0.91141685283E+02 0.  0.
        -11    1    4    4    0    0  0.42916758601E+02 -0.36898848829E+02 -0.19309573576E+03  0.20121962226E+03  0.00000000000E+00 0. -1.
         11    1    4    4    0    0 -0.37167084926E+02  0.58035052694E+00 -0.63873409572E+02  0.73902242584E+02  0.00000000000E+00 0.  1.
        -13    1    3    3    0    0  0.16260829193E+02  0.36096037035E+02 -0.61672633595E+01  0.40067113610E+02  0.00000000000E+00 0. -1.
         13    1    3    3    0    0  0.16658789474E+02  0.73442601527E+02  0.13463137911E+03  0.15426256586E+03  0.00000000000E+00 0.  1.
         21    1    1    2  502  501 -0.38669292342E+02 -0.73220140260E+02  0.24035503035E+03  0.25421849604E+03  0.00000000000E+00 0.  1.
<scales pt_clust_5="13000.00000" pt_clust_6="13000.00000" pt_clust_7="13000.00000" pt_clust_8="13000.00000" pt_clust_9="82.80400"></scales>
<clustering>
<clus scale="   82.804">  1  9  2 -1</clus>
<clus scale="   90.436">  7  8 -1 -1</clus>
<clus scale="   91.142">  5  6 -1 -1</clus>
<clus scale="   99.043">  1  7  2 -1</clus>
<clus scale="   99.689">  2  5  1 -1</clus>
</clustering>
</event>
<event>
 9    1  0.1713970E-005  0.1711505E+03  0.7546771E-02  0.1180665E+00
          1   -1    0    0  502    0  0.00000000000E+00  0.00000000000E+00  0.55685830653E+03  0.55685830653E+03  0.00000000000E+00 0. -1.
         -1   -1    0    0    0  501 -0.00000000000E+00 -0.00000000000E+00 -0.23698460278E+03  0.23698460278E+03  0.00000000000E+00 0.  1.
         23    2    1    2    0    0  0.53919113726E+02 -0.94614657279E+02  0.52549717424E+02  0.16612718207E+03  0.11391911000E+03 0.  0.
         23    2    1    2    0    0 -0.75320094488E+02  0.10911721526E+03  0.43211524084E+03  0.46090900156E+03  0.90187820944E+02 0.  0.
        -11    1    4    4    0    0 -0.42243512058E+02  0.11515913489E+03  0.37587948081E+03  0.39538781564E+03  0.00000000000E+00 0. -1.
         11    1    4    4    0    0 -0.33076582430E+02 -0.60419196247E+01  0.56235760033E+02  0.65521185921E+02  0.00000000000E+00 0.  1.
        -13    1    3    3    0    0  0.30306863720E+02 -0.99000866154E+02  0.79124143765E+02  0.13030850937E+03  0.00000000000E+00 0.  1.
         13    1    3    3    0    0  0.23612250006E+02  0.43862088756E+01 -0.26574426341E+02  0.35818672700E+02  0.00000000000E+00 0. -1.
         21    1    1    2  502  501  0.21400980762E+02 -0.14502557983E+02 -0.16479125452E+03  0.16680672568E+03  0.00000000000E+00 0.  1.
<scales pt_clust_5="13000.00000" pt_clust_6="13000.00000" pt_clust_7="13000.00000" pt_clust_8="13000.00000" pt_clust_9="25.85201"></scales>
<clustering>
<clus scale="   25.852">  2  9  1 -1</clus>
<clus scale="   90.188">  5  6 -1 -1</clus>
<clus scale="  113.919">  7  8 -1 -1</clus>
<clus scale="  156.361">  1  5  2 -1</clus>
<clus scale="  156.361">  1  5  2 -1</clus>
</clustering>
</event>
<event>
 9    1  0.1713970E-005  0.1014441E+03  0.7546771E-02  0.1278444E+00
          1   -1    0    0  502    0  0.00000000000E+00  0.00000000000E+00  0.78265246734E+02  0.78265246734E+02  0.00000000000E+00 0. -1.
         -1   -1    0    0    0  501 -0.00000000000E+00 -0.00000000000E+00 -0.19786699040E+03  0.19786699040E+03  0.00000000000E+00 0.  1.
         23    2    1    2    0    0 -0.22083110924E+02 -0.47042876233E+02 -0.61160918822E+02  0.12128513762E+03  0.90932560860E+02 0.  0.
         23    2    1    2    0    0  0.28038811822E+02  0.19948410118E+02 -0.11266178434E+02  0.10012025298E+03  0.93343581707E+02 0.  0.
        -11    1    3    3    0    0 -0.20694453421E+02  0.13920660887E+02  0.10612640402E+02  0.27104858203E+02  0.00000000000E+00 0.  1.
         11    1    3    3    0    0 -0.13886575036E+01 -0.60963537120E+02 -0.71773559224E+02  0.94180279420E+02  0.00000000000E+00 0. -1.
        -13    1    4    4    0    0 -0.19180897973E+02  0.36880921493E+02 -0.24483051989E+02  0.48244471723E+02  0.00000000000E+00 0.  1.
         13    1    4    4    0    0  0.47219709795E+02 -0.16932511374E+02  0.13216873555E+02  0.51875781258E+02  0.00000000000E+00 0. -1.
         21    1    1    2  502  501 -0.59557008980E+01  0.27094466114E+02 -0.47174646405E+02  0.54726846526E+02  0.00000000000E+00 0. -1.
<scales pt_clust_5="13000.00000" pt_clust_6="13000.00000" pt_clust_7="13000.00000" pt_clust_8="13000.00000" pt_clust_9="27.74131"></scales>
<clustering>
<clus scale="   27.741">  2  9  1 -1</clus>
<clus scale="   90.933">  5  6 -1 -1</clus>
<clus scale="   93.344">  7  8 -1 -1</clus>
<clus scale="   99.230">  2  5  1 -1</clus>
<clus scale="  101.444">  1  5  2 -1</clus>
</clustering>
</event>
<event>
 9    1  0.1713970E-005  0.1100433E+03  0.7546771E-02  0.1261831E+00
         -2   -1    0    0    0  501 -0.00000000000E+00  0.00000000000E+00  0.59835307206E+02  0.59835307206E+02  0.00000000000E+00 0.  1.
          2   -1    0    0  502    0  0.00000000000E+00 -0.00000000000E+00 -0.65337754000E+03  0.65337754000E+03  0.00000000000E+00 0. -1.
         23    2    1    2    0    0 -0.34372924902E+02  0.25921096423E+01 -0.27117346363E+02  0.10181863323E+03  0.91888337675E+02 0.  0.
         23    2    1    2    0    0  0.56567364477E+02 -0.13789325457E+02 -0.57451375844E+03  0.58525228137E+03  0.95205892623E+02 0.  0.
        -13    1    4    4    0    0 -0.12356963279E+01  0.35402232739E+02 -0.20239181796E+03  0.20546847204E+03  0.00000000000E+00 0.  1.
         13    1    4    4    0    0  0.57803060805E+02 -0.49191558196E+02 -0.37212194049E+03  0.37978380933E+03  0.00000000000E+00 0. -1.
        -13    1    3    3    0    0  0.20689247229E+02  0.29967145316E+02 -0.67050776997E+01  0.37027460300E+02  0.00000000000E+00 0. -1.
         13    1    3    3    0    0 -0.55062172130E+02 -0.27375035674E+02 -0.20412268663E+02  0.64791172932E+02  0.00000000000E+00 0.  1.
         21    1    1    2  502  501 -0.22194439575E+02  0.11197215815E+02  0.80888720073E+01  0.26141932607E+02  0.00000000000E+00 0. -1.
<scales pt_clust_5="13000.00000" pt_clust_6="13000.00000" pt_clust_7="13000.00000" pt_clust_8="13000.00000" pt_clust_9="24.85902"></scales>
<clustering>
<clus scale="   24.859">  1  9  2 -1</clus>
<clus scale="   91.888">  7  8 -1 -1</clus>
<clus scale="   95.206">  5  6 -1 -1</clus>
<clus scale="  107.186">  1  7  2 -1</clus>
<clus scale="  110.043">  2  5  1 -1</clus>
</clustering>
</event>
<event>
 9    1  0.1713970E-005  0.1348409E+03  0.7546771E-02  0.1221034E+00
          1   -1    0    0  502    0  0.00000000000E+00  0.00000000000E+00  0.53493946652E+03  0.53493946652E+03  0.00000000000E+00 0. -1.
         -1   -1    0    0    0  501 -0.00000000000E+00 -0.00000000000E+00 -0.19990766123E+03  0.19990766123E+03  0.00000000000E+00 0.  1.
         23    2    1    2    0    0 -0.19718643926E+02 -0.30979316335E+02 -0.90580578106E+02  0.13405181355E+03  0.91741509844E+02 0.  0.
         23    2    1    2    0    0 -0.38183561866E+02  0.98356789561E+02  0.47805273570E+03  0.49763340318E+03  0.89289100110E+02 0.  0.
        -11    1    4    4    0    0  0.16183654208E+02  0.66563823943E+02  0.17144618611E+03  0.18462515553E+03  0.00000000000E+00 0.  1.
         11    1    4    4    0    0 -0.54367216074E+02  0.31792965618E+02  0.30660654959E+03  0.31300824765E+03  0.00000000000E+00 0. -1.
        -11    1    3    3    0    0 -0.24356557856E+02 -0.60055275175E+02 -0.79558110166E+02  0.10261272280E+03  0.00000000000E+00 0.  1.
         11    1    3    3    0    0  0.46379139298E+01  0.29075958840E+02 -0.11022467940E+02  0.31439090756E+02  0.00000000000E+00 0. -1.
         21    1    1    2  502  501  0.57902205793E+02 -0.67377473226E+02 -0.52440352308E+02  0.10316191101E+03  0.00000000000E+00 0.  1.
<scales pt_clust_5="13000.00000" pt_clust_6="13000.00000" pt_clust_7="13000.00000" pt_clust_8="13000.00000" pt_clust_9="88.83912"></scales>
<clustering>
<clus scale="   88.839">  2  9  1 -1</clus>
<clus scale="   89.289">  5  6 -1 -1</clus>
<clus scale="   91.742">  7  8 -1 -1</clus>
<clus scale="  133.184">  1  5  2 -1</clus>
<clus scale="  133.184">  1  5  2 -1</clus>
</clustering>
</event>
<event>
 9    1  0.1713970E-005  0.1172858E+03  0.7546771E-02  0.1247782E+00
         -1   -1    0    0    0  501 -0.00000000000E+00  0.00000000000E+00  0.30320057562E+03  0.30320057562E+03  0.00000000000E+00 0.  1.
          1   -1    0    0  502    0  0.00000000000E+00 -0.00000000000E+00 -0.62042619601E+03  0.62042619601E+03  0.00000000000E+00 0. -1.
         23    2    1    2    0    0  0.96257014724E+02 -0.86640123937E+02  0.24159982895E+03  0.28861936198E+03  0.90325715072E+02 0.  0.
         23    2    1    2    0    0 -0.56613513560E+02  0.47031769668E+02 -0.56663684534E+03  0.57842608040E+03  0.89901828163E+02 0.  0.
        -13    1    4    4    0    0 -0.65386182229E+02 -0.11042245818E+01 -0.37388596137E+03  0.37956196365E+03  0.00000000000E+00 0. -1.
         13    1    4    4    0    0  0.87726686688E+01  0.48135994250E+02 -0.19275088397E+03  0.19886411675E+03  0.00000000000E+00 0.  1.
        -13    1    3    3    0    0  0.63003729220E+02 -0.93549628987E+02  0.13070776610E+03  0.17264276150E+03  0.00000000000E+00 0. -1.
         13    1    3    3    0    0  0.33253285504E+02  0.69095050505E+01  0.11089206284E+03  0.11597660048E+03  0.00000000000E+00 0.  1.
         21    1    1    2  502  501 -0.39643501163E+02  0.39608354268E+02  0.78113960128E+01  0.56581329253E+02  0.00000000000E+00 0. -1.
<scales pt_clust_5="13000.00000" pt_clust_6="13000.00000" pt_clust_7="13000.00000" pt_clust_8="13000.00000" pt_clust_9="56.03953"></scales>
<clustering>
<clus scale="   56.040">  1  9  2 -1</clus>
<clus scale="   89.902">  5  6 -1 -1</clus>
<clus scale="   90.326">  7  8 -1 -1</clus>
<clus scale="  116.960">  2  5  1 -1</clus>
<clus scale="  116.960">  2  5  1 -1</clus>
</clustering>
</event>
<event>
 9    1  0.1713970E-005  0.1010218E+03  0.7546771E-02  0.1278194E+00
         -2   -1    0    0    0  501 -0.00000000000E+00  0.00000000000E+00  0.66273311662E+02  0.66273311662E+02  0.00000000000E+00 0.  1.
          2   -1    0    0  502    0  0.00000000000E+00 -0.00000000000E+00 -0.45912401251E+03  0.45912401251E+03  0.00000000000E+00 0. -1.
         23    2    1    2    0    0 -0.23053965722E+02  0.55266506459E+02 -0.38895670686E+01  0.10896093714E+03  0.90947704857E+02 0.  0.
         23    2    1    2    0    0 -0.43817157607E+01 -0.42490963980E+02 -0.36277208150E+03  0.37641392379E+03  0.90880016837E+02 0.  0.
        -11    1    3    3    0    0  0.68831569766E+01  0.40936020447E+02  0.37476811183E+02  0.55925369882E+02  0.00000000000E+00 0.  1.
         11    1    3    3    0    0 -0.29937122698E+02  0.14330486013E+02 -0.41366378251E+02  0.53035567259E+02  0.00000000000E+00 0. -1.
        -13    1    4    4    0    0 -0.40714556733E+02 -0.41750276081E+02 -0.28011601518E+03  0.28612190172E+03  0.00000000000E+00 0. -1.
         13    1    4    4    0    0  0.36332840972E+02 -0.74068789846E+00 -0.82656066317E+02  0.90292022076E+02  0.00000000000E+00 0.  1.
         21    1    1    2  502  501  0.27435681482E+02 -0.12775542480E+02 -0.26189052282E+02  0.40022463236E+02  0.00000000000E+00 0. -1.
<scales pt_clust_5="13000.00000" pt_clust_6="13000.00000" pt_clust_7="13000.00000" pt_clust_8="13000.00000" pt_clust_9="30.26435"></scales>
<clustering>
<clus scale="   30.264">  1  9  2 -1</clus>
<clus scale="   90.880">  7  8 -1 -1</clus>
<clus scale="   90.948">  5  6 -1 -1</clus>
<clus scale="  100.961">  2  7  1 -1</clus>
<clus scale="  100.961">  2  5  1 -1</clus>
</clustering>
</event>
<event>
 9    1  0.1713970E-005  0.1202137E+03  0.7546771E-02  0.1242884E+00
          4   -1    0    0  502    0  0.00000000000E+00  0.00000000000E+00  0.10163745856E+03  0.10163745856E+03  0.00000000000E+00 0. -1.
         -4   -1    0    0    0  501 -0.00000000000E+00 -0.00000000000E+00 -0.27709251351E+03  0.27709251351E+03  0.00000000000E+00 0.  1.
         23    2    1    2    0    0  0.68302832438E+02 -0.51053190217E+02 -0.49337271712E+02  0.13504441175E+03  0.92364071010E+02 0.  0.
         23    2    1    2    0    0 -0.39250962244E+02  0.61042870664E+02 -0.41230412082E+01  0.11788205496E+03  0.92802528611E+02 0.  0.
        -11    1    4    4    0    0 -0.12178873124E+02 -0.20891040722E+02 -0.18441828726E+02  0.30411536952E+02  0.00000000000E+00 0.  1.
         11    1    4    4    0    0 -0.27072089120E+02  0.81933911387E+02  0.14318787518E+02  0.87470518007E+02  0.00000000000E+00 0. -1.
        -13    1    3    3    0    0 -0.20730319748E+01 -0.49323095903E+02 -0.50613106676E+00  0.49369235559E+02  0.00000000000E+00 0.  1.
         13    1    3    3    0    0  0.70375864413E+02 -0.17300943148E+01 -0.48831140645E+02  0.85675176188E+02  0.00000000000E+00 0. -1.
         21    1    1    2  502  501 -0.29051870194E+02 -0.99896804472E+01 -0.12199474204E+03  0.12580350536E+03  0.00000000000E+00 0.  1.
<scales pt_clust_5="13000.00000" pt_clust_6="13000.00000" pt_clust_7="13000.00000" pt_clust_8="13000.00000" pt_clust_9="30.72141"></scales>
<clustering>
<clus scale="   30.721">  2  9  1 -1</clus>
<clus scale="   92.364">  7  8 -1 -1</clus>
<clus scale="   92.803">  5  6 -1 -1</clus>
<clus scale="  119.876">  2  7  1 -1</clus>
<clus scale="  120.214">  1  5  2 -1</clus>
</clustering>
</event>
<event>
 9    1  0.1713970E-005  0.9983466E+02  0.7546771E-02  0.1283192E+00
          3   -1    0    0  502    0  0.00000000000E+00  0.00000000000E+00  0.17028026335E+03  0.17028026335E+03  0.00000000000E+00 0. -1.
         -3   -1    0    0    0  501 -0.00000000000E+00 -0.00000000000E+00 -0.14950577892E+03  0.14950577892E+03  0.00000000000E+00 0.  1.
         23    2    1    2    0    0 -0.45243475898E+01 -0.85654684990E+01 -0.81857404103E+02  0.12656865825E+03  0.96047663550E+02 0.  0.
         23    2    1    2    0    0 -0.24027605353E+02  0.19940598335E+02  0.12308027039E+03  0.15630202249E+03  0.91140638543E+02 0.  0.
        -11    1    3    3    0    0  0.21603286414E+02 -0.20684413059E+02 -0.91446132193E+02  0.96213003386E+02  0.00000000000E+00 0. -1.
         11    1    3    3    0    0 -0.26127634004E+02  0.12118944560E+02  0.95887280906E+01  0.30355654865E+02  0.00000000000E+00 0.  1.
        -13    1    4    4    0    0 -0.22334157827E+02  0.49923766647E+02  0.11135915525E+03  0.12406473528E+03  0.00000000000E+00 0.  1.
         13    1    4    4    0    0 -0.16934475253E+01 -0.29983168312E+02  0.11721115142E+02  0.32237287211E+02  0.00000000000E+00 0. -1.
         21    1    1    2  502  501  0.28551952943E+02 -0.11375129836E+02 -0.20448381858E+02  0.36915361521E+02  0.00000000000E+00 0. -1.
<scales pt_clust_5="13000.00000" pt_clust_6="13000.00000" pt_clust_7="13000.00000" pt_clust_8="13000.00000" pt_clust_9="30.73447"></scales>
<clustering>
<clus scale="   30.734">  2  9  1 -1</clus>
<clus scale="   91.141">  7  8 -1 -1</clus>
<clus scale="   95.123">  1  7  2 -1</clus>
<clus scale="   96.048">  5  6 -1 -1</clus>
<clus scale="   95.123">  1  5  2 -1</clus>
</clustering>
</event>
<event>
 9    1  0.1713970E-005  0.1428054E+03  0.7546771E-02  0.1212720E+00
          1   -1    0    0  502    0  0.00000000000E+00  0.00000000000E+00  0.61650179679E+03  0.61650179679E+03  0.00000000000E+00 0. -1.
         -1   -1    0    0    0  501 -0.00000000000E+00 -0.00000000000E+00 -0.10903325644E+03  0.10903325644E+03  0.00000000000E+00 0.  1.
         23    2    1    2    0    0 -0.34754601717E+02 -0.91465481794E+02  0.11462646269E+02  0.13542422754E+03  0.92922077278E+02 0.  0.
         23    2    1    2    0    0 -0.95466291178E+02 -0.27400621779E+02  0.14420100485E+03  0.19659677053E+03  0.89396608206E+02 0.  0.
        -11    1    4    4    0    0 -0.95448120360E+02  0.96852848653E+01  0.95333479132E+02  0.13525021503E+03  0.00000000000E+00 0. -1.
         11    1    4    4    0    0 -0.18170818613E-01 -0.37085906644E+02  0.48867525718E+02  0.61346555499E+02  0.00000000000E+00 0.  1.
        -13    1    3    3    0    0 -0.62007285043E+02 -0.55071086492E+02  0.27249854374E+02  0.87294229645E+02  0.00000000000E+00 0. -1.
         13    1    3    3    0    0  0.27252683326E+02 -0.36394395301E+02 -0.15787208105E+02  0.48129997897E+02  0.00000000000E+00 0.  1.
         21    1    1    2  502  501  0.13022089290E+03  0.11886610357E+03  0.35180488922E+03  0.39351405516E+03  0.00000000000E+00 0. -1.
<scales pt_clust_5="13000.00000" pt_clust_6="13000.00000" pt_clust_7="13000.00000" pt_clust_8="13000.00000" pt_clust_9="108.43834"></scales>
<clustering>
<clus scale="   89.397">  5  6 -1 -1</clus>
<clus scale="   92.922">  7  8 -1 -1</clus>
<clus scale="  133.628">  1  5  2 -1</clus>
<clus scale="  108.438">  1  9  2 -1</clus>
<clus scale="  133.628">  1  5  2 -1</clus>
</clustering>
</event>
<event>
 9    1  0.1713970E-005  0.9388239E+02  0.7546771E-02  0.1294965E+00
          1   -1    0    0  502    0  0.00000000000E+00  0.00000000000E+00  0.42212660364E+02  0.42212660364E+02  0.00000000000E+00 0. -1.
         -1   -1    0    0    0  501 -0.00000000000E+00 -0.00000000000E+00 -0.48751037071E+03  0.48751037071E+03  0.00000000000E+00 0.  1.
         23    2    1    2    0    0 -0.19508462755E+02 -0.14524820780E+02 -0.24400406525E+03  0.26249309983E+03  0.93664790916E+02 0.  0.
         23    2    1    2    0    0 -0.84128213381E+01  0.35516768381E+01 -0.35219356873E+02  0.98467739984E+02  0.91499195340E+02 0.  0.
        -11    1    4    4    0    0 -0.14790406891E+02  0.30296084834E+02  0.18255370179E+02  0.38338850174E+02  0.00000000000E+00 0. -1.
         11    1    4    4    0    0  0.63775855532E+01 -0.26744407996E+02 -0.53474727051E+02  0.60128889810E+02  0.00000000000E+00 0.  1.
        -11    1    3    3    0    0  0.32627588862E+02 -0.17745758533E+02 -0.54724364902E+02  0.66137943836E+02  0.00000000000E+00 0.  1.
         11    1    3    3    0    0 -0.52136051617E+02  0.32209377534E+01 -0.18927970035E+03  0.19635515599E+03  0.00000000000E+00 0. -1.
         21    1    1    2  502  501  0.27921284093E+02  0.10973143941E+02 -0.16607428822E+03  0.16876219127E+03  0.00000000000E+00 0. -1.
<scales pt_clust_5="13000.00000" pt_clust_6="13000.00000" pt_clust_7="13000.00000" pt_clust_8="13000.00000" pt_clust_9="30.00013"></scales>
<clustering>
<clus scale="   30.000">  2  9  1 -1</clus>
<clus scale="   91.499">  5  6 -1 -1</clus>
<clus scale="   91.722">  1  5  2 -1</clus>
<clus scale="   93.665">  7  8 -1 -1</clus>
<clus scale="   91.722">  1  5  2 -1</clus>
</clustering>
</event>
<event>
 9    1  0.1713970E-005  0.9419011E+02  0.7546771E-02  0.1293747E+00
         -1   -1    0    0    0  501 -0.00000000000E+00  0.00000000000E+00  0.37622647630E+03  0.37622647630E+03  0.00000000000E+00 0.  1.
          1   -1    0    0  502    0  0.00000000000E+00 -0.00000000000E+00 -0.47607503390E+02  0.47607503390E+02  0.00000000000E+00 0. -1.
         23    2    1    2    0    0 -0.24066839648E+01  0.23700875208E+01  0.24204256998E+03  0.25828606188E+03  0.90087039237E+02 0.  0.
         23    2    1    2    0    0 -0.29251530331E+02  0.15147571310E+01  0.29943067322E+02  0.10055046207E+03  0.91410402173E+02 0.  0.
        -11    1    4    4    0    0 -0.34084342079E+02 -0.39051622350E+02  0.36394212167E+01  0.51961687520E+02  0.00000000000E+00 0.  1.
         11    1    4    4    0    0  0.48328117476E+01  0.40566379481E+02  0.26303646106E+02  0.48588774548E+02  0.00000000000E+00 0. -1.
        -13    1    3    3    0    0 -0.16931387387E+01 -0.43628759774E+02  0.13125772284E+03  0.13832904685E+03  0.00000000000E+00 0.  1.
         13    1    3    3    0    0 -0.71354522607E+00  0.45998847295E+02  0.11078484714E+03  0.11995701503E+03  0.00000000000E+00 0. -1.
         21    1    1    2  502  501  0.31658214296E+02 -0.38848446518E+01  0.56633335609E+02  0.64997455740E+02  0.00000000000E+00 0. -1.
<scales pt_clust_5="13000.00000" pt_clust_6="13000.00000" pt_clust_7="13000.00000" pt_clust_8="13000.00000" pt_clust_9="31.89568"></scales>
<clustering>
<clus scale="   31.896">  1  9  2 -1</clus>
<clus scale="   90.087">  7  8 -1 -1</clus>
<clus scale="   91.410">  5  6 -1 -1</clus>
<clus scale="   92.906">  1  7  2 -1</clus>
<clus scale="   94.190">  2  5  1 -1</clus>
</clustering>
</event>
<event>
 9    1  0.1713970E-005  0.1284135E+03  0.7546771E-02  0.1244285E+00
         -3   -1    0    0    0  501 -0.00000000000E+00  0.00000000000E+00  0.75913520780E+02  0.75913520780E+02  0.00000000000E+00 0.  1.
          3   -1    0    0  502    0  0.00000000000E+00 -0.00000000000E+00 -0.43214564388E+03  0.43214564388E+03  0.00000000000E+00 0. -1.
         23    2    1    2    0    0 -0.63264363461E+02  0.12141762006E+01 -0.28059779417E+02  0.14254118049E+03  0.12460651270E+03 0.  0.
         23    2    1    2    0    0  0.18291654650E+02  0.22916855869E+02 -0.27858700677E+03  0.29435931018E+03  0.90426302805E+02 0.  0.
        -11    1    3    3    0    0 -0.22407224714E+02 -0.25799148090E+02  0.43814650218E+02  0.55564407090E+02  0.00000000000E+00 0.  1.
         11    1    3    3    0    0 -0.40857138748E+02  0.27013324290E+02 -0.71874429635E+02  0.86976773401E+02  0.00000000000E+00 0. -1.
        -11    1    4    4    0    0 -0.24396983936E+02 -0.22100887504E+02 -0.90155112017E+02  0.95977113295E+02  0.00000000000E+00 0.  1.
         11    1    4    4    0    0  0.42688638586E+02  0.45017743374E+02 -0.18843189475E+03  0.19838219689E+03  0.00000000000E+00 0. -1.
         21    1    1    2  502  501  0.44972708811E+02 -0.24131032070E+02 -0.49585336916E+02  0.71158673988E+02  0.00000000000E+00 0. -1.
<scales pt_clust_5="13000.00000" pt_clust_6="13000.00000" pt_clust_7="13000.00000" pt_clust_8="13000.00000" pt_clust_9="51.03774"></scales>
<clustering>
<clus scale="   51.038">  1  9  2 -1</clus>
<clus scale="   90.426">  7  8 -1 -1</clus>
<clus scale="   95.604">  2  7  1 -1</clus>
<clus scale="  124.607">  5  6 -1 -1</clus>
<clus scale="   95.604">  2  5  1 -1</clus>
</clustering>
</event>
<event>
 9    1  0.1713970E-005  0.3074055E+03  0.7546771E-02  0.1081630E+00
         -2   -1    0    0    0  501 -0.00000000000E+00  0.00000000000E+00  0.23479190121E+03  0.23479190121E+03  0.00000000000E+00 0.  1.
          2   -1    0    0  502    0  0.00000000000E+00 -0.00000000000E+00 -0.73121683147E+03  0.73121683147E+03  0.00000000000E+00 0. -1.
         23    2    1    2    0    0 -0.21318471733E+03  0.15016196685E+03 -0.44824511416E+01  0.27589106198E+03  0.89996920615E+02 0.  0.
         23    2    1    2    0    0  0.27245173780E+03 -0.13720398027E+03 -0.53018486314E+03  0.61840317379E+03  0.90948417391E+02 0.  0.
        -11    1    3    3    0    0 -0.19285607907E+03  0.12202663083E+03  0.26000152428E+02  0.22969539349E+03  0.00000000000E+00 0.  1.
         11    1    3    3    0    0 -0.20328638261E+02  0.28135336017E+02 -0.30482603569E+02  0.46195668484E+02  0.00000000000E+00 0. -1.
        -13    1    4    4    0    0  0.15280546848E+03 -0.26164945720E+02 -0.26406918060E+03  0.30621340227E+03  0.00000000000E+00 0. -1.
         13    1    4    4    0    0  0.11964626931E+03 -0.11103903455E+03 -0.26611568253E+03  0.31218977152E+03  0.00000000000E+00 0.  1.
         21    1    1    2  502  501 -0.59267020468E+02 -0.12957986577E+02  0.38242384016E+02  0.71714496906E+02  0.00000000000E+00 0. -1.
<scales pt_clust_5="13000.00000" pt_clust_6="13000.00000" pt_clust_7="13000.00000" pt_clust_8="13000.00000" pt_clust_9="60.66703"></scales>
<clustering>
<clus scale="   60.667">  1  9  2 -1</clus>
<clus scale="   89.997">  5  6 -1 -1</clus>
<clus scale="   90.948">  7  8 -1 -1</clus>
<clus scale="  307.125">  1  5  2 -1</clus>
<clus scale="  307.405">  2  5  1 -1</clus>
</clustering>
</event>
<event>
 9    1  0.1713970E-005  0.1051346E+03  0.7546771E-02  0.1271679E+00
          1   -1    0    0  502    0  0.00000000000E+00  0.00000000000E+00  0.24851670194E+03  0.24851670194E+03  0.00000000000E+00 0. -1.
         -1   -1    0    0    0  501 -0.00000000000E+00 -0.00000000000E+00 -0.78023521379E+02  0.78023521379E+02  0.00000000000E+00 0.  1.
         23    2    1    2    0    0 -0.35088009544E+02 -0.29112420389E+02 -0.88041160284E+01  0.10811508386E+03  0.97635328972E+02 0.  0.
         23    2    1    2    0    0  0.12894948463E+02  0.11492754908E+02  0.14968635367E+03  0.17743986757E+03  0.93704530392E+02 0.  0.
        -13    1    3    3    0    0  0.31220354184E+02 -0.22564653055E+02  0.81218888310E+01  0.39367996661E+02  0.00000000000E+00 0. -1.
         13    1    3    3    0    0 -0.66308363728E+02 -0.65477673334E+01 -0.16926004859E+02  0.68747087196E+02  0.00000000000E+00 0.  1.
        -13    1    4    4    0    0  0.10048367546E+02 -0.40100548557E+02  0.86063160093E+02  0.95477176383E+02  0.00000000000E+00 0.  1.
         13    1    4    4    0    0  0.28465809172E+01  0.51593303464E+02  0.63623193582E+02  0.81962691188E+02  0.00000000000E+00 0. -1.
         21    1    1    2  502  501  0.22193061081E+02  0.17619665481E+02  0.29610942919E+02  0.40985271896E+02  0.00000000000E+00 0. -1.
<scales pt_clust_5="13000.00000" pt_clust_6="13000.00000" pt_clust_7="13000.00000" pt_clust_8="13000.00000" pt_clust_9="28.33698"></scales>
<clustering>
<clus scale="   28.337">  1  9  2 -1</clus>
<clus scale="   93.705">  7  8 -1 -1</clus>
<clus scale="   97.635">  5  6 -1 -1</clus>
<clus scale="  101.495">  1  7  2 -1</clus>
<clus scale="   28.337">  1  5  2 -1</clus>
</clustering>
</event>
<event>
 9    1  0.1713970E-005  0.9700759E+02  0.7546771E-02  0.1288297E+00
         -2   -1    0    0    0  501 -0.00000000000E+00  0.00000000000E+00  0.97961894597E+02  0.97961894597E+02  0.00000000000E+00 0.  1.
          2   -1    0    0  502    0  0.00000000000E+00 -0.00000000000E+00 -0.15455278389E+03  0.15455278389E+03  0.00000000000E+00 0. -1.
         23    2    1    2    0    0  0.19751750942E+02 -0.32504943599E+02  0.51896283472E+01  0.97626548902E+02  0.89762507678E+02 0.  0.
         23    2    1    2    0    0 -0.23797259091E+02  0.10731139939E+02 -0.80766906999E+02  0.12571712270E+03  0.92736372412E+02 0.  0.
        -11    1    3    3    0    0 -0.24434867421E+01 -0.38673215363E+02  0.40123698354E+02  0.55780815552E+02  0.00000000000E+00 0.  1.
         11    1    3    3    0    0  0.22195237684E+02  0.61682717640E+01 -0.34934070007E+02  0.41845733351E+02  0.00000000000E+00 0. -1.
        -13    1    4    4    0    0  0.32244317816E+02  0.12701709053E+02 -0.11322268374E+02  0.36458513483E+02  0.00000000000E+00 0.  1.
         13    1    4    4    0    0 -0.56041576907E+02 -0.19705691142E+01 -0.69444638625E+02  0.89258609213E+02  0.00000000000E+00 0. -1.
         21    1    1    2  502  501  0.40455081487E+01  0.21773803660E+02  0.18986389359E+02  0.29171006888E+02  0.00000000000E+00 0. -1.
<scales pt_clust_5="13000.00000" pt_clust_6="13000.00000" pt_clust_7="13000.00000" pt_clust_8="13000.00000" pt_clust_9="22.14644"></scales>
<clustering>
<clus scale="   22.146">  1  9  2 -1</clus>
<clus scale="   89.763">  5  6 -1 -1</clus>
<clus scale="   92.736">  7  8 -1 -1</clus>
<clus scale="   94.169">  1  5  2 -1</clus>
<clus scale="   97.008">  2  5  1 -1</clus>
</clustering>
</event>
<event>
 9    1  0.1713970E-005  0.1029466E+03  0.7546771E-02  0.1274483E+00
         -1   -1    0    0    0  501 -0.00000000000E+00  0.00000000000E+00  0.14079481102E+03  0.14079481102E+03  0.00000000000E+00 0.  1.
          1   -1    0    0  502    0  0.00000000000E+00 -0.00000000000E+00 -0.18235389910E+03  0.18235389910E+03  0.00000000000E+00 0. -1.
         23    2    1    2    0    0 -0.15378548292E+02 -0.12551202637E+02  0.25572230715E+02  0.96871168506E+02  0.91301981736E+02 0.  0.
         23    2    1    2    0    0  0.34075160831E+02  0.43706260967E+02 -0.12072939779E+03  0.16152451039E+03  0.91887029184E+02 0.  0.
        -13    1    3    3    0    0 -0.21994410915E+02  0.34304156835E+02  0.28075336690E+02  0.49484884742E+02  0.00000000000E+00 0. -1.
         13    1    3    3    0    0  0.66158626231E+01 -0.46855359472E+02 -0.25031059754E+01  0.47386283765E+02  0.00000000000E+00 0.  1.
        -13    1    4    4    0    0  0.33254850784E+02  0.71725637646E+02 -0.93506474781E+02  0.12244963464E+03  0.00000000000E+00 0. -1.
         13    1    4    4    0    0  0.82031004732E+00 -0.28019376678E+02 -0.27222923009E+02  0.39074875754E+02  0.00000000000E+00 0.  1.
         21    1    1    2  502  501 -0.18696612540E+02 -0.31155058330E+02  0.53598078997E+02  0.64753031220E+02  0.00000000000E+00 0.  1.
<scales pt_clust_5="13000.00000" pt_clust_6="13000.00000" pt_clust_7="13000.00000" pt_clust_8="13000.00000" pt_clust_9="36.33457"></scales>
<clustering>
<clus scale="   36.335">  1  9  2 -1</clus>
<clus scale="   91.302">  5  6 -1 -1</clus>
<clus scale="   91.887">  7  8 -1 -1</clus>
<clus scale="  102.425">  1  5  2 -1</clus>
<clus scale="  102.947">  2  5  1 -1</clus>
</clustering>
</event>
<event>
 9    1  0.1713970E-005  0.1697955E+03  0.7546771E-02  0.1180900E+00
          2   -1    0    0  502    0  0.00000000000E+00  0.00000000000E+00  0.74814257737E+03  0.74814257737E+03  0.00000000000E+00 0. -1.
         -2   -1    0    0    0  501 -0.00000000000E+00 -0.00000000000E+00 -0.11282168908E+03  0.11282168908E+03  0.00000000000E+00 0.  1.
         23    2    1    2    0    0  0.71199725805E+02 -0.10860209834E+03 -0.27487593270E+02  0.16082159426E+03  0.90797580787E+02 0.  0.
         23    2    1    2    0    0 -0.10353108536E+03  0.99758413752E+02  0.62109722550E+03  0.64663233254E+03  0.10817200752E+03 0.  0.
        -11    1    4    4    0    0 -0.40756804252E+02  0.95296026498E+02  0.49462488732E+03  0.50536741972E+03  0.00000000000E+00 0. -1.
         11    1    4    4    0    0 -0.62774281111E+02  0.44623872544E+01  0.12647233818E+03  0.14126491282E+03  0.00000000000E+00 0.  1.
        -11    1    3    3    0    0  0.54424807257E+02 -0.29665136008E+02 -0.47009238695E+02  0.77794270111E+02  0.00000000000E+00 0.  1.
         11    1    3    3    0    0  0.16774918548E+02 -0.78936962337E+02  0.19521645425E+02  0.83027324149E+02  0.00000000000E+00 0. -1.
         21    1    1    2  502  501  0.32331359557E+02  0.88436845925E+01  0.41711256060E+02  0.53510339656E+02  0.00000000000E+00 0.  1.
<scales pt_clust_5="13000.00000" pt_clust_6="13000.00000" pt_clust_7="13000.00000" pt_clust_8="13000.00000" pt_clust_9="33.51906"></scales>
<clustering>
<clus scale="   33.519">  1  9  2 -1</clus>
<clus scale="   90.798">  7  8 -1 -1</clus>
<clus scale="  108.172">  5  6 -1 -1</clus>
<clus scale="  159.291">  2  7  1 -1</clus>
<clus scale="   33.519">  1  5  2 -1</clus>
</clustering>
</event>
<event>
 9    1  0.1713970E-005  0.1014406E+03  0.7546771E-02  0.1277480E+00
          1   -1    0    0  502    0  0.00000000000E+00  0.00000000000E+00  0.48091743238E+03  0.48091743238E+03  0.00000000000E+00 0. -1.
         -1   -1    0    0    0  501 -0.00000000000E+00 -0.00000000000E+00 -0.35153132905E+02  0.35153132905E+02  0.00000000000E+00 0.  1.
         23    2    1    2    0    0 -0.24670672253E+02 -0.39403123631E+02  0.10518916302E+03  0.14624850880E+03  0.90347208519E+02 0.  0.
         23    2    1    2    0    0 -0.44544904028E+01  0.47479306174E+02  0.31129801578E+03  0.32774296882E+03  0.90746195405E+02 0.  0.
        -11    1    4    4    0    0  0.20148610886E+02 -0.18104819892E+02  0.46283802972E+02  0.53627804742E+02  0.00000000000E+00 0.  1.
         11    1    4    4    0    0 -0.24603101289E+02  0.65584126066E+02  0.26501421281E+03  0.27411516407E+03  0.00000000000E+00 0. -1.
        -11    1    3    3    0    0 -0.12092469202E+02 -0.62704870503E+02  0.10091857439E+03  0.11942649309E+03  0.00000000000E+00 0. -1.
         11    1    3    3    0    0 -0.12578203052E+02  0.23301746872E+02  0.42705886383E+01  0.26822015708E+02  0.00000000000E+00 0.  1.
         21    1    1    2  502  501  0.29125162656E+02 -0.80761825431E+01  0.29277120667E+02  0.42079087665E+02  0.00000000000E+00 0.  1.
<scales pt_clust_5="13000.00000" pt_clust_6="13000.00000" pt_clust_7="13000.00000" pt_clust_8="13000.00000" pt_clust_9="30.22416"></scales>
<clustering>
<clus scale="   30.224">  2  9  1 -1</clus>
<clus scale="   90.347">  7  8 -1 -1</clus>
<clus scale="   90.746">  5  6 -1 -1</clus>
<clus scale="  101.084">  2  7  1 -1</clus>
<clus scale="  101.441">  1  5  2 -1</clus>
</clustering>
</event>
<event>
 9    1  0.1713970E-005  0.1921589E+03  0.7546771E-02  0.1156559E+00
         -2   -1    0    0    0  501 -0.00000000000E+00  0.00000000000E+00  0.57127678323E+02  0.57127678323E+02  0.00000000000E+00 0.  1.
          2   -1    0    0  502    0  0.00000000000E+00 -0.00000000000E+00 -0.78502193413E+03  0.78502193413E+03  0.00000000000E+00 0. -1.
         23    2    1    2    0    0  0.15562977569E+03  0.44457907312E+02 -0.24041116114E+03  0.30373748637E+03  0.90894453189E+02 0.  0.
         23    2    1    2    0    0 -0.17147181872E+03 -0.29667926413E+02 -0.47344939757E+03  0.51259239494E+03  0.91180375151E+02 0.  0.
        -11    1    4    4    0    0 -0.57479621703E+02 -0.25454113936E+02 -0.73611507958E+02  0.96801203150E+02  0.00000000000E+00 0. -1.
         11    1    4    4    0    0 -0.11399219702E+03 -0.42138124763E+01 -0.39983788961E+03  0.41579119179E+03  0.00000000000E+00 0.  1.
        -11    1    3    3    0    0  0.10464572591E+03  0.39125826361E+02 -0.22331080429E+03  0.24969836514E+03  0.00000000000E+00 0. -1.
         11    1    3    3    0    0  0.50984049780E+02  0.53320809508E+01 -0.17100356855E+02  0.54039121235E+02  0.00000000000E+00 0.  1.
         21    1    1    2  502  501  0.15842043030E+02 -0.14789980899E+02 -0.14033697092E+02  0.25819731146E+02  0.00000000000E+00 0. -1.
<scales pt_clust_5="13000.00000" pt_clust_6="13000.00000" pt_clust_7="13000.00000" pt_clust_8="13000.00000" pt_clust_9="21.67288"></scales>
<clustering>
<clus scale="   21.673">  1  9  2 -1</clus>
<clus scale="   90.894">  7  8 -1 -1</clus>
<clus scale="   91.180">  5  6 -1 -1</clus>
<clus scale="  192.023">  1  7  2 -1</clus>
<clus scale="  192.159">  2  5  1 -1</clus>
</clustering>
</event>
<event>
 9    1  0.1713970E-005  0.1096205E+03  0.7546771E-02  0.1263018E+00
         -1   -1    0    0    0  501 -0.00000000000E+00  0.00000000000E+00  0.10878460512E+03  0.10878460512E+03  0.00000000000E+00 0.  1.
          1   -1    0    0  502    0  0.00000000000E+00 -0.00000000000E+00 -0.46299658210E+03  0.46299658210E+03  0.00000000000E+00 0. -1.
         23    2    1    2    0    0  0.76189342949E+02  0.46659341529E+02 -0.16959598104E+03  0.21316545961E+03  0.93245944968E+02 0.  0.
         23    2    1    2    0    0 -0.47087397380E+02  0.12699216668E+01 -0.25177304823E+03  0.27112740165E+03  0.88890744285E+02 0.  0.
        -11    1    3    3    0    0  0.94680385984E+02  0.35570592667E+02 -0.16061803143E+03  0.18980989061E+03  0.00000000000E+00 0. -1.
         11    1    3    3    0    0 -0.18491043035E+02  0.11088748862E+02 -0.89779496077E+01  0.23355568994E+02  0.00000000000E+00 0.  1.
        -13    1    4    4    0    0 -0.30908866774E+02  0.36085355277E+02 -0.20589239108E+03  0.21130354378E+03  0.00000000000E+00 0.  1.
         13    1    4    4    0    0 -0.16178530606E+02 -0.34815433610E+02 -0.45880657151E+02  0.59823857872E+02  0.00000000000E+00 0. -1.
         21    1    1    2  502  501 -0.29101945569E+02 -0.47929263196E+02  0.67157052294E+02  0.87488325960E+02  0.00000000000E+00 0.  1.
<scales pt_clust_5="13000.00000" pt_clust_6="13000.00000" pt_clust_7="13000.00000" pt_clust_8="13000.00000" pt_clust_9="56.07261"></scales>
<clustering>
<clus scale="   56.073">  1  9  2 -1</clus>
<clus scale="   88.891">  7  8 -1 -1</clus>
<clus scale="   93.246">  5  6 -1 -1</clus>
<clus scale="  105.941">  2  7  1 -1</clus>
<clus scale="  105.941">  2  5  1 -1</clus>
</clustering>
</event>
<event>
 9    1  0.1713970E-005  0.9099780E+02  0.7546771E-02  0.1300498E+00
          1   -1    0    0  502    0  0.00000000000E+00  0.00000000000E+00  0.20084353636E+03  0.20084353636E+03  0.00000000000E+00 0. -1.
         -1   -1    0    0    0  501 -0.00000000000E+00 -0.00000000000E+00 -0.63559916698E+02  0.63559916698E+02  0.00000000000E+00 0.  1.
         23    2    1    2    0    0 -0.76083969294E+01 -0.15520470752E+02  0.65701846211E+02  0.11251722818E+03  0.89691813032E+02 0.  0.
         23    2    1    2    0    0 -0.21382306898E+02  0.10479420848E+02  0.78562038025E+02  0.12164391700E+03  0.89767630108E+02 0.  0.
        -13    1    4    4    0    0 -0.49996992813E+02  0.63904097884E-01  0.16732959526E+02  0.52722815826E+02  0.00000000000E+00 0. -1.
         13    1    4    4    0    0  0.28614685916E+02  0.10415516750E+02  0.61829078499E+02  0.68921101175E+02  0.00000000000E+00 0.  1.
        -13    1    3    3    0    0  0.93683364305E+01 -0.41460524510E+02  0.30503170218E+01  0.42615082472E+02  0.00000000000E+00 0.  1.
         13    1    3    3    0    0 -0.16976733360E+02  0.25940053758E+02  0.62651529189E+02  0.69902145706E+02  0.00000000000E+00 0. -1.
         21    1    1    2  502  501  0.28990703827E+02  0.50410499040E+01 -0.69802645715E+01  0.30242307882E+02  0.00000000000E+00 0.  1.
<scales pt_clust_5="13000.00000" pt_clust_6="13000.00000" pt_clust_7="13000.00000" pt_clust_8="13000.00000" pt_clust_9="29.42572"></scales>
<clustering>
<clus scale="   29.426">  2  9  1 -1</clus>
<clus scale="   89.692">  7  8 -1 -1</clus>
<clus scale="   89.768">  5  6 -1 -1</clus>
<clus scale="   90.923">  2  7  1 -1</clus>
<clus scale="   90.998">  1  5  2 -1</clus>
</clustering>
</event>
<event>
 9    1  0.1713970E-005  0.9370948E+02  0.7546771E-02  0.1294233E+00
         -1   -1    0    0    0  501 -0.00000000000E+00  0.00000000000E+00  0.17126055282E+03  0.17126055282E+03  0.00000000000E+00 0.  1.
          1   -1    0    0  502    0  0.00000000000E+00 -0.00000000000E+00 -0.24647212375E+03  0.24647212375E+03  0.00000000000E+00 0. -1.
         23    2    1    2    0    0 -0.31190485574E+01 -0.44502670714E+02 -0.94949599727E+02  0.13886680878E+03  0.90985427014E+02 0.  0.
         23    2    1    2    0    0 -0.39855339902E+01  0.59508443581E+01 -0.11031467172E+03  0.14303353245E+03  0.90763250158E+02 0.  0.
        -11    1    4    4    0    0 -0.44977247755E+02  0.71151702383E+01 -0.35585348087E+02  0.57791828675E+02  0.00000000000E+00 0.  1.
         11    1    4    4    0    0  0.40991713765E+02 -0.11643258802E+01 -0.74729323633E+02  0.85241703777E+02  0.00000000000E+00 0. -1.
        -13    1    3    3    0    0 -0.15857117620E+02 -0.67596365474E+02 -0.46069190950E+02  0.83325189224E+02  0.00000000000E+00 0. -1.
         13    1    3    3    0    0  0.12738069063E+02  0.23093694759E+02 -0.48880408777E+02  0.55541619559E+02  0.00000000000E+00 0.  1.
         21    1    1    2  502  501  0.71045825476E+01  0.38551826356E+02  0.13005270052E+03  0.13583233533E+03  0.00000000000E+00 0.  1.
<scales pt_clust_5="13000.00000" pt_clust_6="13000.00000" pt_clust_7="13000.00000" pt_clust_8="13000.00000" pt_clust_9="39.20100"></scales>
<clustering>
<clus scale="   39.201">  1  9  2 -1</clus>
<clus scale="   90.763">  5  6 -1 -1</clus>
<clus scale="   90.985">  7  8 -1 -1</clus>
<clus scale="   93.494">  2  5  1 -1</clus>
<clus scale="   93.494">  2  5  1 -1</clus>
</clustering>
</event>
<event>
 9    1  0.1713970E-005  0.1180366E+03  0.7546771E-02  0.1246374E+00
         -1   -1    0    0    0  501 -0.00000000000E+00  0.00000000000E+00  0.42393400374E+03  0.42393400374E+03  0.00000000000E+00 0.  1.
          1   -1    0    0  502    0  0.00000000000E+00 -0.00000000000E+00 -0.42096739148E+02  0.42096739148E+02  0.00000000000E+00 0. -1.
         23    2    1    2    0    0 -0.36685463529E+02  0.77255227479E+02  0.15727640103E+03  0.20087515319E+03  0.91108547578E+02 0.  0.
         23    2    1    2    0    0  0.27040785298E+02 -0.59503360894E+02  0.14630844840E+03  0.18433734259E+03  0.91116627323E+02 0.  0.
        -13    1    4    4    0    0  0.30271629458E+02 -0.16269724232E+02  0.13531509645E+03  0.13961106978E+03  0.00000000000E+00 0.  1.
         13    1    4    4    0    0 -0.32308441603E+01 -0.43233636662E+02  0.10993351945E+02  0.44726272816E+02  0.00000000000E+00 0. -1.
        -13    1    3    3    0    0 -0.57369264452E+02  0.80272300604E+02  0.14830838946E+03  0.17812987715E+03  0.00000000000E+00 0. -1.
         13    1    3    3    0    0  0.20683800923E+02 -0.30170731249E+01  0.89680115698E+01  0.22745276045E+02  0.00000000000E+00 0.  1.
         21    1    1    2  502  501  0.96446782309E+01 -0.17751866584E+02  0.78252415167E+02  0.80818247103E+02  0.00000000000E+00 0.  1.
<scales pt_clust_5="13000.00000" pt_clust_6="13000.00000" pt_clust_7="13000.00000" pt_clust_8="13000.00000" pt_clust_9="20.20269"></scales>
<clustering>
<clus scale="   20.203">  1  9  2 -1</clus>
<clus scale="   91.109">  7  8 -1 -1</clus>
<clus scale="   91.117">  5  6 -1 -1</clus>
<clus scale="  118.030">  1  7  2 -1</clus>
<clus scale="  118.037">  2  5  1 -1</clus>
</clustering>
</event>
<event>
 9    1  0.1713970E-005  0.9760518E+02  0.7546771E-02  0.1288264E+00
          1   -1    0    0  502    0  0.00000000000E+00  0.00000000000E+00  0.12488780866E+03  0.12488780866E+03  0.00000000000E+00 0. -1.
         -1   -1    0    0    0  501 -0.00000000000E+00 -0.00000000000E+00 -0.13653665096E+03  0.13653665096E+03  0.00000000000E+00 0.  1.
         23    2    1    2    0    0  0.12604852800E+02 -0.24456196216E+02 -0.23730129830E+02  0.97332376181E+02  0.90296647468E+02 0.  0.
         23    2    1    2    0    0  0.12601728456E+02  0.17292622204E+02  0.56134328320E+02  0.11283431395E+03  0.95512728182E+02 0.  0.
        -11    1    4    4    0    0  0.52190836242E+02  0.18368819332E+01  0.44910088603E+02  0.68877961505E+02  0.00000000000E+00 0.  1.
         11    1    4    4    0    0 -0.39589107786E+02  0.15455740271E+02  0.11224239717E+02  0.43956352440E+02  0.00000000000E+00 0. -1.
        -11    1    3    3    0    0  0.14232674993E+02 -0.58203461346E+02 -0.20771352848E+02  0.63416567625E+02  0.00000000000E+00 0.  1.
         11    1    3    3    0    0 -0.16278221929E+01  0.33747265130E+02 -0.29587769821E+01  0.33915808557E+02  0.00000000000E+00 0. -1.
         21    1    1    2  502  501 -0.25206581256E+02  0.71635740124E+01 -0.44053040787E+02  0.51257769498E+02  0.00000000000E+00 0.  1.
<scales pt_clust_5="13000.00000" pt_clust_6="13000.00000" pt_clust_7="13000.00000" pt_clust_8="13000.00000" pt_clust_9="26.20474"></scales>
<clustering>
<clus scale="   26.205">  2  9  1 -1</clus>
<clus scale="   90.297">  7  8 -1 -1</clus>
<clus scale="   92.507">  2  7  1 -1</clus>
<clus scale="   95.513">  5  6 -1 -1</clus>
<clus scale="   97.605">  1  5  2 -1</clus>
</clustering>
</event>
<event>
 9    1  0.1713970E-005  0.3052899E+03  0.7546771E-02  0.1082657E+00
          1   -1    0    0  502    0  0.00000000000E+00  0.00000000000E+00  0.81323216334E+03  0.81323216334E+03  0.00000000000E+00 0. -1.
         -1   -1    0    0    0  501 -0.00000000000E+00 -0.00000000000E+00 -0.13641068906E+03  0.13641068906E+03  0.00000000000E+00 0.  1.
         23    2    1    2    0    0 -0.25505572823E+03  0.88407662472E+02  0.24316232716E+03  0.37466130766E+03  0.91508681685E+02 0.  0.
         23    2    1    2    0    0  0.29840540897E+03 -0.81406843977E+02  0.41911303785E+03  0.52872362027E+03  0.90664578477E+02 0.  0.
        -11    1    3    3    0    0 -0.22725378190E+03  0.92514956627E+02  0.17630380673E+03  0.30213627862E+03  0.00000000000E+00 0.  1.
         11    1    3    3    0    0 -0.27801946333E+02 -0.41072941542E+01  0.66858520422E+02  0.72525029047E+02  0.00000000000E+00 0. -1.
        -11    1    4    4    0    0  0.39142976140E+02  0.96168531700E+00  0.15754010975E+02  0.42205287365E+02  0.00000000000E+00 0.  1.
         11    1    4    4    0    0  0.25926243283E+03 -0.82368529294E+02  0.40335902687E+03  0.48651833291E+03  0.00000000000E+00 0. -1.
         21    1    1    2  502  501 -0.43349680741E+02 -0.70008184955E+01  0.14546109276E+02  0.46257924456E+02  0.00000000000E+00 0. -1.
<scales pt_clust_5="13000.00000" pt_clust_6="13000.00000" pt_clust_7="13000.00000" pt_clust_8="13000.00000" pt_clust_9="43.91135"></scales>
<clustering>
<clus scale="   43.911">  2  9  1 -1</clus>
<clus scale="   90.665">  7  8 -1 -1</clus>
<clus scale="   91.509">  5  6 -1 -1</clus>
<clus scale="  305.038">  1  7  2 -1</clus>
<clus scale="  305.038">  1  5  2 -1</clus>
</clustering>
</event>
<event>
 9    1  0.1713970E-005  0.9881882E+02  0.7546771E-02  0.1284824E+00
         -1   -1    0    0    0  501 -0.00000000000E+00  0.00000000000E+00  0.28026493125E+02  0.28026493125E+02  0.00000000000E+00 0.  1.
          1   -1    0    0  502    0  0.00000000000E+00 -0.00000000000E+00 -0.66705458431E+03  0.66705458431E+03  0.00000000000E+00 0. -1.
         23    2    1    2    0    0  0.59643424456E+02 -0.11747425185E+02 -0.29106808820E+03  0.31211164721E+03  0.94856250576E+02 0.  0.
         23    2    1    2    0    0 -0.49153608300E+01 -0.93205887906E+01 -0.27199567436E+03  0.28700276214E+03  0.90982989927E+02 0.  0.
        -11    1    4    4    0    0 -0.49694178454E+01  0.38293247729E+02 -0.75268529249E+02  0.84595622999E+02  0.00000000000E+00 0.  1.
         11    1    4    4    0    0  0.54057015387E-01 -0.47613836519E+02 -0.19672714512E+03  0.20240713914E+03  0.00000000000E+00 0. -1.
        -11    1    3    3    0    0  0.85580476886E+02 -0.45199205887E+01 -0.22490897693E+03  0.24068339288E+03  0.00000000000E+00 0.  1.
         11    1    3    3    0    0 -0.25937052429E+02 -0.72275045967E+01 -0.66159111276E+02  0.71428254327E+02  0.00000000000E+00 0. -1.
         21    1    1    2  502  501 -0.54728063626E+02  0.21068013976E+02 -0.75964328614E+02  0.95966668083E+02  0.00000000000E+00 0.  1.
<scales pt_clust_5="13000.00000" pt_clust_6="13000.00000" pt_clust_7="13000.00000" pt_clust_8="13000.00000" pt_clust_9="58.64318"></scales>
<clustering>
<clus scale="   58.643">  1  9  2 -1</clus>
<clus scale="   90.983">  5  6 -1 -1</clus>
<clus scale="   94.856">  7  8 -1 -1</clus>
<clus scale="   95.107">  2  5  1 -1</clus>
<clus scale="   95.107">  2  5  1 -1</clus>
</clustering>
</event>
<event>
 9    1  0.1713970E-005  0.1070232E+03  0.7546771E-02  0.1266582E+00
          1   -1    0    0  502    0  0.00000000000E+00  0.00000000000E+00  0.18886082232E+03  0.18886082232E+03  0.00000000000E+00 0. -1.
         -1   -1    0    0    0  501 -0.00000000000E+00 -0.00000000000E+00 -0.14079397641E+03  0.14079397641E+03  0.00000000000E+00 0.  1.
         23    2    1    2    0    0 -0.18779631796E+02  0.88173244960E+02 -0.68730828623E+02  0.14114944760E+03  0.84095446123E+02 0.  0.
         23    2    1    2    0    0  0.10222927771E+02 -0.61004768777E+02  0.12149716119E+03  0.15963619013E+03  0.83042537024E+02 0.  0.
        -11    1    3    3    0    0 -0.45415282785E+02  0.77049885051E+02 -0.67864965287E+02  0.11227148440E+03  0.00000000000E+00 0.  1.
         11    1    3    3    0    0  0.26635650989E+02  0.11123359909E+02 -0.86586333601E+00  0.28877963200E+02  0.00000000000E+00 0. -1.
        -13    1    4    4    0    0 -0.12211873583E+02  0.16875876903E+02  0.37603292311E+02  0.42987587398E+02  0.00000000000E+00 0.  1.
         13    1    4    4    0    0  0.22434801354E+02 -0.77880645680E+02  0.83893868883E+02  0.11664860273E+03  0.00000000000E+00 0. -1.
         21    1    1    2  502  501  0.85567040250E+01 -0.27168476183E+02 -0.46994866553E+01  0.28869160997E+02  0.00000000000E+00 0. -1.
<scales pt_clust_5="13000.00000" pt_clust_6="13000.00000" pt_clust_7="13000.00000" pt_clust_8="13000.00000" pt_clust_9="28.48409"></scales>
<clustering>
<clus scale="   28.484">  2  9  1 -1</clus>
<clus scale="   83.043">  7  8 -1 -1</clus>
<clus scale="   84.095">  5  6 -1 -1</clus>
<clus scale="  106.198">  1  7  2 -1</clus>
<clus scale="  106.198">  1  5  2 -1</clus>
</clustering>
</event>
<event>
 9    1  0.1713970E-005  0.1194999E+03  0.7546771E-02  0.1246048E+00
         -2   -1    0    0    0  501 -0.00000000000E+00  0.00000000000E+00  0.88015578657E+02  0.88015578657E+02  0.00000000000E+00 0. -1.
          2   -1    0    0  502    0  0.00000000000E+00 -0.00000000000E+00 -0.53049201778E+03  0.53049201778E+03  0.00000000000E+00 0.  1.
         23    2    1    2    0    0 -0.36821085159E+02  0.11185897187E+03 -0.24477420201E+02  0.15251316035E+03  0.93770454182E+02 0.  0.
         23    2    1    2    0    0  0.49145104789E+02 -0.49517078640E+02 -0.36956700668E+03  0.38609416750E+03  0.87302642259E+02 0.  0.
        -13    1    3    3    0    0 -0.58854115304E+02  0.67054343134E+02  0.12895067354E+02  0.90146406381E+02  0.00000000000E+00 0. -1.
         13    1    3    3    0    0  0.22033030145E+02  0.44804628740E+02 -0.37372487555E+02  0.62366753964E+02  0.00000000000E+00 0.  1.
        -13    1    4    4    0    0  0.34542207980E+02  0.20248879595E+02 -0.14969566776E+03  0.15495797560E+03  0.00000000000E+00 0.  1.
         13    1    4    4    0    0  0.14602896809E+02 -0.69765958235E+02 -0.21987133892E+03  0.23113619190E+03  0.00000000000E+00 0. -1.
         21    1    1    2  502  501 -0.12324019630E+02 -0.62341893235E+02 -0.48432012238E+02  0.79900268594E+02  0.00000000000E+00 0.  1.
<scales pt_clust_5="13000.00000" pt_clust_6="13000.00000" pt_clust_7="13000.00000" pt_clust_8="13000.00000" pt_clust_9="63.54835"></scales>
<clustering>
<clus scale="   63.548">  1  9  2 -1</clus>
<clus scale="   87.303">  7  8 -1 -1</clus>
<clus scale="   93.770">  5  6 -1 -1</clus>
<clus scale="  114.495">  2  7  1 -1</clus>
<clus scale="  114.495">  2  5  1 -1</clus>
</clustering>
</event>
<event>
 9    1  0.1713970E-005  0.9178715E+02  0.7546771E-02  0.1299503E+00
         -2   -1    0    0    0  501 -0.00000000000E+00  0.00000000000E+00  0.32041935162E+02  0.32041935162E+02  0.00000000000E+00 0.  1.
          2   -1    0    0  502    0  0.00000000000E+00 -0.00000000000E+00 -0.46225247647E+03  0.46225247647E+03  0.00000000000E+00 0. -1.
         23    2    1    2    0    0 -0.43770482276E+01  0.14951447109E+02 -0.77145158523E+02  0.11958111879E+03  0.90030906721E+02 0.  0.
         23    2    1    2    0    0 -0.28292885345E+01  0.12775761770E+02 -0.30536007640E+03  0.31906685847E+03  0.91584163206E+02 0.  0.
        -11    1    4    4    0    0  0.86540876369E+01 -0.36033363391E+02 -0.18508418618E+03  0.18875765544E+03  0.00000000000E+00 0.  1.
         11    1    4    4    0    0 -0.11483376171E+02  0.48809125161E+02 -0.12027589022E+03  0.13030920303E+03  0.00000000000E+00 0. -1.
        -13    1    3    3    0    0 -0.45350180925E+02  0.16628210048E+02 -0.29001915650E+02  0.56340459624E+02  0.00000000000E+00 0.  1.
         13    1    3    3    0    0  0.40973132698E+02 -0.16767629388E+01 -0.48143242873E+02  0.63240659163E+02  0.00000000000E+00 0. -1.
         21    1    1    2  502  501  0.72063367620E+01 -0.27727208878E+02 -0.47705306388E+02  0.55646434381E+02  0.00000000000E+00 0.  1.
<scales pt_clust_5="13000.00000" pt_clust_6="13000.00000" pt_clust_7="13000.00000" pt_clust_8="13000.00000" pt_clust_9="28.64838"></scales>
<clustering>
<clus scale="   28.648">  1  9  2 -1</clus>
<clus scale="   90.031">  7  8 -1 -1</clus>
<clus scale="   90.237">  1  7  2 -1</clus>
<clus scale="   91.584">  5  6 -1 -1</clus>
<clus scale="   91.787">  2  5  1 -1</clus>
</clustering>
</event>
<event>
 9    1  0.1713970E-005  0.9254733E+02  0.7546771E-02  0.1302391E+00
          2   -1    0    0  502    0  0.00000000000E+00  0.00000000000E+00  0.13032439224E+03  0.13032439224E+03  0.00000000000E+00 0. -1.
         -2   -1    0    0    0  501 -0.00000000000E+00 -0.00000000000E+00 -0.11751290160E+03  0.11751290160E+03  0.00000000000E+00 0.  1.
         23    2    1    2    0    0  0.89143313948E+01  0.28383034214E+02  0.22483930333E+02  0.97776733752E+02  0.90386396126E+02 0.  0.
         23    2    1    2    0    0  0.12885154779E+02 -0.13359578115E+02  0.41122740348E+02  0.92779916363E+02  0.81071126583E+02 0.  0.
        -11    1    3    3    0    0  0.24627059491E+02  0.44537980129E+02  0.43508616990E+02  0.66956131052E+02  0.00000000000E+00 0.  1.
         11    1    3    3    0    0 -0.15712728096E+02 -0.16154945916E+02 -0.21024686657E+02  0.30820602700E+02  0.00000000000E+00 0. -1.
        -11    1    4    4    0    0  0.10018291714E+02  0.26583539117E+02 -0.78934884462E+01  0.29484875457E+02  0.00000000000E+00 0.  1.
         11    1    4    4    0    0  0.28668630652E+01 -0.39943117232E+02  0.49016228794E+02  0.63295040906E+02  0.00000000000E+00 0. -1.
         21    1    1    2  502  501 -0.21799486174E+02 -0.15023456099E+02 -0.50795180040E+02  0.57280643728E+02  0.00000000000E+00 0.  1.
<scales pt_clust_5="13000.00000" pt_clust_6="13000.00000" pt_clust_7="13000.00000" pt_clust_8="13000.00000" pt_clust_9="26.47493"></scales>
<clustering>
<clus scale="   26.475">  2  9  1 -1</clus>
<clus scale="   81.071">  7  8 -1 -1</clus>
<clus scale="   83.474">  1  7  2 -1</clus>
<clus scale="   90.386">  5  6 -1 -1</clus>
<clus scale="   83.474">  1  5  2 -1</clus>
</clustering>
</event>
<event>
 9    1  0.1713970E-005  0.9858034E+02  0.7546771E-02  0.1283815E+00
         -3   -1    0    0    0  501 -0.00000000000E+00  0.00000000000E+00  0.29399114696E+02  0.29399114696E+02  0.00000000000E+00 0.  1.
          3   -1    0    0  502    0  0.00000000000E+00 -0.00000000000E+00 -0.47631953772E+03  0.47631953772E+03  0.00000000000E+00 0. -1.
         23    2    1    2    0    0 -0.98716655396E+01 -0.16466756654E+02 -0.17035152430E+03  0.19432129044E+03  0.91501465722E+02 0.  0.
         23    2    1    2    0    0  0.28239527277E+02  0.37013809349E+02 -0.25842260205E+03  0.27839966809E+03  0.92502113262E+02 0.  0.
        -13    1    3    3    0    0  0.12510170297E+01 -0.51288126840E+02 -0.13061027959E+03  0.14032491629E+03  0.00000000000E+00 0. -1.
         13    1    3    3    0    0 -0.11122682569E+02  0.34821370187E+02 -0.39741244714E+02  0.53996374143E+02  0.00000000000E+00 0.  1.
        -13    1    4    4    0    0  0.17107568767E+02 -0.29549105627E+02 -0.63083421026E+02  0.71731001393E+02  0.00000000000E+00 0.  1.
         13    1    4    4    0    0  0.11131958510E+02  0.66562914976E+02 -0.19533918103E+03  0.20666866670E+03  0.00000000000E+00 0. -1.
         21    1    1    2  502  501 -0.18367861737E+02 -0.20547052695E+02 -0.18146296668E+02  0.32997693890E+02  0.00000000000E+00 0.  1.
<scales pt_clust_5="13000.00000" pt_clust_6="13000.00000" pt_clust_7="13000.00000" pt_clust_8="13000.00000" pt_clust_9="27.56011"></scales>
<clustering>
<clus scale="   27.560">  1  9  2 -1</clus>
<clus scale="   91.501">  5  6 -1 -1</clus>
<clus scale="   92.502">  7  8 -1 -1</clus>
<clus scale="   97.642">  1  5  2 -1</clus>
<clus scale="   98.580">  2  5  1 -1</clus>
</clustering>
</event>
<event>
 9    1  0.1713970E-005  0.1045194E+03  0.7546771E-02  0.1272413E+00
         -1   -1    0    0    0  501 -0.00000000000E+00  0.00000000000E+00  0.15150310179E+03  0.15150310179E+03  0.00000000000E+00 0.  1.
          1   -1    0    0  502    0  0.00000000000E+00 -0.00000000000E+00 -0.13170097001E+03  0.13170097001E+03  0.00000000000E+00 0. -1.
         23    2    1    2    0    0 -0.55206223676E+02  0.24041267242E+02  0.76734806012E+02  0.13351868979E+03  0.91177302031E+02 0.  0.
         23    2    1    2    0    0  0.31371425334E+02 -0.27968147616E+02 -0.67584631172E+02  0.12328496179E+03  0.94154744029E+02 0.  0.
        -11    1    4    4    0    0 -0.17711845881E+01 -0.40071730230E+02  0.70543469999E+01  0.40726459091E+02  0.00000000000E+00 0.  1.
         11    1    4    4    0    0  0.33142609922E+02  0.12103582614E+02 -0.74638978172E+02  0.82558502694E+02  0.00000000000E+00 0. -1.
        -13    1    3    3    0    0 -0.20032486461E+02 -0.20520192476E+02 -0.95562986561E+01  0.30227498359E+02  0.00000000000E+00 0. -1.
         13    1    3    3    0    0 -0.35173737216E+02  0.44561459718E+02  0.86291104668E+02  0.10329119143E+03  0.00000000000E+00 0.  1.
         21    1    1    2  502  501  0.23834798342E+02  0.39268803740E+01  0.10651956947E+02  0.26400420230E+02  0.00000000000E+00 0. -1.
<scales pt_clust_5="13000.00000" pt_clust_6="13000.00000" pt_clust_7="13000.00000" pt_clust_8="13000.00000" pt_clust_9="24.15612"></scales>
<clustering>
<clus scale="   24.156">  1  9  2 -1</clus>
<clus scale="   91.177">  7  8 -1 -1</clus>
<clus scale="   94.155">  5  6 -1 -1</clus>
<clus scale="  101.845">  1  7  2 -1</clus>
<clus scale="  104.519">  2  5  1 -1</clus>
</clustering>
</event>
<event>
 9    1  0.1713970E-005  0.2245680E+03  0.7546771E-02  0.1130537E+00
          1   -1    0    0  502    0  0.00000000000E+00  0.00000000000E+00  0.85804724927E+02  0.85804724927E+02  0.00000000000E+00 0. -1.
         -1   -1    0    0    0  501 -0.00000000000E+00 -0.00000000000E+00 -0.76280402402E+03  0.76280402402E+03  0.00000000000E+00 0.  1.
         23    2    1    2    0    0  0.12496203003E+03 -0.13180073388E+03 -0.32971103229E+03  0.38777272612E+03  0.93120244368E+02 0.  0.
         23    2    1    2    0    0 -0.15316143714E+03  0.15948888621E+03 -0.21312500751E+03  0.32097315969E+03  0.93307929790E+02 0.  0.
        -11    1    4    4    0    0 -0.95599412769E+02  0.86506039668E+02 -0.60841443320E+02  0.14256305218E+03  0.00000000000E+00 0. -1.
         11    1    4    4    0    0 -0.57562024368E+02  0.72982846546E+02 -0.15228356419E+03  0.17841010751E+03  0.00000000000E+00 0.  1.
        -11    1    3    3    0    0  0.13734716092E+03 -0.10416633256E+03 -0.26230930489E+03  0.31388061247E+03  0.00000000000E+00 0.  1.
         11    1    3    3    0    0 -0.12385130897E+02 -0.27634401321E+02 -0.67401727393E+02  0.73892113647E+02  0.00000000000E+00 0. -1.
         21    1    1    2  502  501  0.28199407111E+02 -0.27688152335E+02 -0.13416325929E+03  0.13986286314E+03  0.00000000000E+00 0.  1.
<scales pt_clust_5="13000.00000" pt_clust_6="13000.00000" pt_clust_7="13000.00000" pt_clust_8="13000.00000" pt_clust_9="39.52013"></scales>
<clustering>
<clus scale="   39.520">  2  9  1 -1</clus>
<clus scale="   93.120">  7  8 -1 -1</clus>
<clus scale="   93.308">  5  6 -1 -1</clus>
<clus scale="  224.490">  2  7  1 -1</clus>
<clus scale="  224.568">  1  5  2 -1</clus>
</clustering>
</event>
<event>
 9    1  0.1713970E-005  0.1534187E+03  0.7546771E-02  0.1196630E+00
         -1   -1    0    0    0  501 -0.00000000000E+00  0.00000000000E+00  0.26216575305E+03  0.26216575305E+03  0.00000000000E+00 0.  1.
          1   -1    0    0  502    0  0.00000000000E+00 -0.00000000000E+00 -0.18047201932E+03  0.18047201932E+03  0.00000000000E+00 0. -1.
         23    2    1    2    0    0  0.11339669145E+03  0.56991299685E+02  0.16283298069E+03  0.22557727492E+03  0.90904947546E+02 0.  0.
         23    2    1    2    0    0 -0.10943148860E+03 -0.10039336598E+02 -0.89406949063E+02  0.16922155338E+03  0.92554268469E+02 0.  0.
        -13    1    3    3    0    0  0.11209865405E+03  0.14624555013E+02  0.12745467791E+03  0.17036631349E+03  0.00000000000E+00 0.  1.
         13    1    3    3    0    0  0.12980374026E+01  0.42366744671E+02  0.35378302780E+02  0.55210961437E+02  0.00000000000E+00 0. -1.
        -13    1    4    4    0    0 -0.38245021440E+02  0.34365443680E+02 -0.74841596078E+01  0.51958425970E+02  0.00000000000E+00 0.  1.
         13    1    4    4    0    0 -0.71186467157E+02 -0.44404780278E+02 -0.81922789455E+02  0.11726312741E+03  0.00000000000E+00 0. -1.
         21    1    1    2  502  501 -0.39652028551E+01 -0.46951963087E+02  0.82677021033E+01  0.47838944067E+02  0.00000000000E+00 0. -1.
<scales pt_clust_5="13000.00000" pt_clust_6="13000.00000" pt_clust_7="13000.00000" pt_clust_8="13000.00000" pt_clust_9="47.11910"></scales>
<clustering>
<clus scale="   47.119">  2  9  1 -1</clus>
<clus scale="   90.905">  5  6 -1 -1</clus>
<clus scale="   92.554">  7  8 -1 -1</clus>
<clus scale="  152.429">  1  5  2 -1</clus>
<clus scale="   47.119">  2  5  1 -1</clus>
</clustering>
</event>
<event>
 9    1  0.1713970E-005  0.2064238E+03  0.7546771E-02  0.1144533E+00
          1   -1    0    0  502    0  0.00000000000E+00  0.00000000000E+00  0.82330340220E+03  0.82330340220E+03  0.00000000000E+00 0. -1.
         -1   -1    0    0    0  501 -0.00000000000E+00 -0.00000000000E+00 -0.91290238573E+02  0.91290238573E+02  0.00000000000E+00 0.  1.
         23    2    1    2    0    0 -0.17585500168E+03 -0.11407590554E+03  0.13485230388E+03  0.26505945811E+03  0.90183582916E+02 0.  0.
         23    2    1    2    0    0  0.15997318763E+03  0.80040423276E+02  0.56649487201E+03  0.60104656699E+03  0.91338083834E+02 0.  0.
        -11    1    4    4    0    0  0.11818315148E+03  0.92293335780E+02  0.35949093160E+03  0.38951129256E+03  0.00000000000E+00 0. -1.
         11    1    4    4    0    0  0.41790036147E+02 -0.12252912504E+02  0.20700394041E+03  0.21153527443E+03  0.00000000000E+00 0.  1.
        -13    1    3    3    0    0 -0.93824762884E+02 -0.58019012088E+02  0.18158610539E+02  0.11179904754E+03  0.00000000000E+00 0.  1.
         13    1    3    3    0    0 -0.82030238799E+02 -0.56056893448E+02  0.11669369335E+03  0.15326041057E+03  0.00000000000E+00 0. -1.
         21    1    1    2  502  501  0.15881814054E+02  0.34035482260E+02  0.30665987729E+02  0.48487615673E+02  0.00000000000E+00 0. -1.
<scales pt_clust_5="13000.00000" pt_clust_6="13000.00000" pt_clust_7="13000.00000" pt_clust_8="13000.00000" pt_clust_9="37.55857"></scales>
<clustering>
<clus scale="   37.559">  2  9  1 -1</clus>
<clus scale="   90.184">  7  8 -1 -1</clus>
<clus scale="   91.338">  5  6 -1 -1</clus>
<clus scale="  205.916">  2  7  1 -1</clus>
<clus scale="  206.424">  1  5  2 -1</clus>
</clustering>
</event>
<event>
 9    1  0.1713970E-005  0.1192716E+03  0.7546771E-02  0.1244493E+00
         -2   -1    0    0    0  501 -0.00000000000E+00  0.00000000000E+00  0.15098748365E+03  0.15098748365E+03  0.00000000000E+00 0.  1.
          2   -1    0    0  502    0  0.00000000000E+00 -0.00000000000E+00 -0.26133036124E+03  0.26133036124E+03  0.00000000000E+00 0. -1.
         23    2    1    2    0    0 -0.21272145971E+02  0.51200477112E+02 -0.13916431430E+02  0.10718879929E+03  0.90674023726E+02 0.  0.
         23    2    1    2    0    0 -0.29173737577E+02 -0.87372342325E+02 -0.16680979843E+03  0.21128338893E+03  0.91269537185E+02 0.  0.
        -11    1    4    4    0    0 -0.45786975275E+02 -0.88840300608E+01 -0.41161044923E+02  0.62206146916E+02  0.00000000000E+00 0.  1.
         11    1    4    4    0    0  0.16613237697E+02 -0.78488312264E+02 -0.12564875350E+03  0.14907724201E+03  0.00000000000E+00 0. -1.
        -13    1    3    3    0    0  0.35554697287E+02  0.15000178358E+02 -0.90449058426E+01  0.39635239013E+02  0.00000000000E+00 0.  1.
         13    1    3    3    0    0 -0.56826843258E+02  0.36200298754E+02 -0.48715255873E+01  0.67553560276E+02  0.00000000000E+00 0. -1.
         21    1    1    2  502  501  0.50445883548E+02  0.36171865213E+02  0.70383352267E+02  0.93845656673E+02  0.00000000000E+00 0.  1.
<scales pt_clust_5="13000.00000" pt_clust_6="13000.00000" pt_clust_7="13000.00000" pt_clust_8="13000.00000" pt_clust_9="62.07408"></scales>
<clustering>
<clus scale="   62.074">  1  9  2 -1</clus>
<clus scale="   90.674">  7  8 -1 -1</clus>
<clus scale="   91.270">  5  6 -1 -1</clus>
<clus scale="  118.817">  1  7  2 -1</clus>
<clus scale="  119.272">  2  5  1 -1</clus>
</clustering>
</event>
<event>
 9    1  0.1713970E-005  0.1809425E+03  0.7546771E-02  0.1166952E+00
          2   -1    0    0  502    0  0.00000000000E+00  0.00000000000E+00  0.81205877721E+03  0.81205877721E+03  0.00000000000E+00 0. -1.
         -2   -1    0    0    0  501 -0.00000000000E+00 -0.00000000000E+00 -0.90514211125E+02  0.90514211125E+02  0.00000000000E+00 0.  1.
         23    2    1    2    0    0 -0.17116085464E+03  0.60302266163E+02  0.78192657507E+02  0.21742077542E+03  0.90693442039E+02 0.  0.
         23    2    1    2    0    0  0.14032105299E+03 -0.59000560211E+02  0.62427064728E+03  0.64886333946E+03  0.90214900175E+02 0.  0.
        -11    1    4    4    0    0  0.46557647506E+02 -0.35211134007E+02  0.10039746039E+03  0.11613392507E+03  0.00000000000E+00 0.  1.
         11    1    4    4    0    0  0.93763405487E+02 -0.23789426204E+02  0.52387318689E+03  0.53272941439E+03  0.00000000000E+00 0. -1.
        -13    1    3    3    0    0 -0.10481364414E+03  0.52343179574E+02  0.92272612871E+02  0.14913062574E+03  0.00000000000E+00 0. -1.
         13    1    3    3    0    0 -0.66347210502E+02  0.79590865893E+01 -0.14079955364E+02  0.68290149683E+02  0.00000000000E+00 0.  1.
         21    1    1    2  502  501  0.30839801651E+02 -0.13017059519E+01  0.19081261291E+02  0.36288873457E+02  0.00000000000E+00 0.  1.
<scales pt_clust_5="13000.00000" pt_clust_6="13000.00000" pt_clust_7="13000.00000" pt_clust_8="13000.00000" pt_clust_9="30.86726"></scales>
<clustering>
<clus scale="   30.867">  2  9  1 -1</clus>
<clus scale="   90.215">  5  6 -1 -1</clus>
<clus scale="   90.693">  7  8 -1 -1</clus>
<clus scale="  180.703">  1  5  2 -1</clus>
<clus scale="  180.703">  1  5  2 -1</clus>
</clustering>
</event>
<event>
 9    1  0.1713970E-005  0.1123367E+03  0.7546771E-02  0.1259835E+00
          2   -1    0    0  502    0  0.00000000000E+00  0.00000000000E+00  0.34938096383E+03  0.34938096383E+03  0.00000000000E+00 0. -1.
         -2   -1    0    0    0  501 -0.00000000000E+00 -0.00000000000E+00 -0.64693159309E+02  0.64693159309E+02  0.00000000000E+00 0.  1.
         23    2    1    2    0    0  0.61554855050E+02  0.47410790481E+02  0.56198514974E+02  0.13164020713E+03  0.90189177916E+02 0.  0.
         23    2    1    2    0    0 -0.13726280328E+02 -0.17396683588E+02  0.10130780477E+03  0.14328094535E+03  0.98869118651E+02 0.  0.
        -13    1    4    4    0    0 -0.27969599858E+02  0.36159636179E+02  0.50171917335E+02  0.67875172883E+02  0.00000000000E+00 0.  1.
         13    1    4    4    0    0  0.14243319530E+02 -0.53556319768E+02  0.51135887434E+02  0.75405772471E+02  0.00000000000E+00 0. -1.
        -13    1    3    3    0    0  0.46370335376E+02  0.23873588455E+02 -0.15709288323E+02  0.54469605912E+02  0.00000000000E+00 0.  1.
         13    1    3    3    0    0  0.15184519674E+02  0.23537202026E+02  0.71907803297E+02  0.77170601216E+02  0.00000000000E+00 0. -1.
         21    1    1    2  502  501 -0.47828574722E+02 -0.30014106893E+02  0.12718148478E+03  0.13915297066E+03  0.00000000000E+00 0. -1.
<scales pt_clust_5="13000.00000" pt_clust_6="13000.00000" pt_clust_7="13000.00000" pt_clust_8="13000.00000" pt_clust_9="56.46609"></scales>
<clustering>
<clus scale="   56.466">  1  9  2 -1</clus>
<clus scale="   90.189">  7  8 -1 -1</clus>
<clus scale="   98.869">  5  6 -1 -1</clus>
<clus scale="  104.778">  2  7  1 -1</clus>
<clus scale="   56.466">  1  5  2 -1</clus>
</clustering>
</event>
<event>
 9    1  0.1713970E-005  0.9659535E+02  0.7546771E-02  0.1287781E+00
         -1   -1    0    0    0  501 -0.00000000000E+00  0.00000000000E+00  0.61504126394E+02  0.61504126394E+02  0.00000000000E+00 0.  1.
          1   -1    0    0  502    0  0.00000000000E+00 -0.00000000000E+00 -0.22713506993E+03  0.22713506993E+03  0.00000000000E+00 0. -1.
         23    2    1    2    0    0  0.12917821637E+02  0.50738894249E+01 -0.59404654072E+02  0.10969355688E+03  0.91165503488E+02 0.  0.
         23    2    1    2    0    0 -0.45361347759E+02 -0.26048943504E+02 -0.77313250210E+02  0.13069111510E+03  0.91469282161E+02 0.  0.
        -11    1    4    4    0    0 -0.13703625345E+02  0.20444016845E+02  0.10215221087E+02  0.26647662453E+02  0.00000000000E+00 0. -1.
         11    1    4    4    0    0 -0.31657722414E+02 -0.46492960349E+02 -0.87528471297E+02  0.10404345264E+03  0.00000000000E+00 0.  1.
        -11    1    3    3    0    0  0.21214297365E+02 -0.16930646821E+02  0.15450313790E+02  0.31231481084E+02  0.00000000000E+00 0.  1.
         11    1    3    3    0    0 -0.82964757281E+01  0.22004536246E+02 -0.74854967862E+02  0.78462075798E+02  0.00000000000E+00 0. -1.
         21    1    1    2  502  501  0.32443526121E+02  0.20975054079E+02 -0.28913039253E+02  0.48254524343E+02  0.00000000000E+00 0. -1.
<scales pt_clust_5="13000.00000" pt_clust_6="13000.00000" pt_clust_7="13000.00000" pt_clust_8="13000.00000" pt_clust_9="38.63334"></scales>
<clustering>
<clus scale="   38.633">  2  9  1 -1</clus>
<clus scale="   91.166">  7  8 -1 -1</clus>
<clus scale="   91.469">  5  6 -1 -1</clus>
<clus scale="   96.308">  1  7  2 -1</clus>
<clus scale="   38.633">  2  5  1 -1</clus>
</clustering>
</event>
<event>
 9    1  0.1713970E-005  0.9634431E+02  0.7546771E-02  0.1289086E+00
         -1   -1    0    0    0  501 -0.00000000000E+00  0.00000000000E+00  0.59375179088E+02  0.59375179088E+02  0.00000000000E+00 0.  1.
          1   -1    0    0  502    0  0.00000000000E+00 -0.00000000000E+00 -0.30283838693E+03  0.30283838693E+03  0.00000000000E+00 0. -1.
         23    2    1    2    0    0 -0.11401635319E+02 -0.16288090501E+02 -0.23537503880E+02  0.96894764370E+02  0.91865565330E+02 0.  0.
         23    2    1    2    0    0 -0.17328638699E+02  0.29935794019E+02 -0.21136794642E+03  0.23238062212E+03  0.90154929319E+02 0.  0.
        -11    1    4    4    0    0  0.21891715060E+02 -0.19349319099E+02 -0.38056296194E+02  0.47978380734E+02  0.00000000000E+00 0.  1.
         11    1    4    4    0    0 -0.39220353759E+02  0.49285113119E+02 -0.17331165023E+03  0.18440224139E+03  0.00000000000E+00 0. -1.
        -13    1    3    3    0    0 -0.18956428826E+02  0.20666267224E+02  0.23509703294E+02  0.36594356721E+02  0.00000000000E+00 0. -1.
         13    1    3    3    0    0  0.75547935071E+01 -0.36954357725E+02 -0.47047207174E+02  0.60300407650E+02  0.00000000000E+00 0.  1.
         21    1    1    2  502  501  0.28730274018E+02 -0.13647703519E+02 -0.85577575420E+01  0.32938179528E+02  0.00000000000E+00 0.  1.
<scales pt_clust_5="13000.00000" pt_clust_6="13000.00000" pt_clust_7="13000.00000" pt_clust_8="13000.00000" pt_clust_9="31.80705"></scales>
<clustering>
<clus scale="   31.807">  1  9  2 -1</clus>
<clus scale="   90.155">  5  6 -1 -1</clus>
<clus scale="   91.866">  7  8 -1 -1</clus>
<clus scale="   94.715">  2  5  1 -1</clus>
<clus scale="   94.715">  2  5  1 -1</clus>
</clustering>
</event>
<event>
 9    1  0.1713970E-005  0.1408131E+03  0.7546771E-02  0.1212366E+00
          1   -1    0    0  502    0  0.00000000000E+00  0.00000000000E+00  0.36630344259E+02  0.36630344259E+02  0.00000000000E+00 0. -1.
         -1   -1    0    0    0  501 -0.00000000000E+00 -0.00000000000E+00 -0.72108118459E+03  0.72108118459E+03  0.00000000000E+00 0.  1.
         23    2    1    2    0    0 -0.69524528648E+01 -0.96035630050E+02 -0.36885233596E+03  0.39220695484E+03  0.92212097085E+02 0.  0.
         23    2    1    2    0    0  0.80945190212E+01  0.12489002979E+03 -0.25709312536E+03  0.30026072316E+03  0.91632887032E+02 0.  0.
        -11    1    4    4    0    0 -0.38164576760E+02  0.41934741624E+02 -0.67103267030E+02  0.87851613078E+02  0.00000000000E+00 0. -1.
         11    1    4    4    0    0  0.46259095781E+02  0.82955288164E+02 -0.18998985833E+03  0.21240911008E+03  0.00000000000E+00 0.  1.
        -13    1    3    3    0    0 -0.38069634322E+02 -0.41071828993E+02 -0.87758727788E+02  0.10410469008E+03  0.00000000000E+00 0. -1.
         13    1    3    3    0    0  0.31117181457E+02 -0.54963801058E+02 -0.28109360817E+03  0.28810226476E+03  0.00000000000E+00 0.  1.
         21    1    1    2  502  501 -0.11420661564E+01 -0.28854399739E+02 -0.58505379019E+02  0.65243850848E+02  0.00000000000E+00 0. -1.
<scales pt_clust_5="13000.00000" pt_clust_6="13000.00000" pt_clust_7="13000.00000" pt_clust_8="13000.00000" pt_clust_9="28.87699"></scales>
<clustering>
<clus scale="   28.877">  1  9  2 -1</clus>
<clus scale="   91.633">  5  6 -1 -1</clus>
<clus scale="   92.212">  7  8 -1 -1</clus>
<clus scale="  140.434">  1  5  2 -1</clus>
<clus scale="   28.877">  1  5  2 -1</clus>
</clustering>
</event>
<event>
 9    1  0.1713970E-005  0.8783642E+02  0.7546771E-02  0.1308195E+00
         -2   -1    0    0    0  501 -0.00000000000E+00  0.00000000000E+00  0.41188697623E+03  0.41188697623E+03  0.00000000000E+00 0.  1.
          2   -1    0    0  502    0  0.00000000000E+00 -0.00000000000E+00 -0.36250634198E+02  0.36250634198E+02  0.00000000000E+00 0. -1.
         23    2    1    2    0    0 -0.98587422379E+01 -0.11528487460E+02  0.26012308333E+03  0.27482712323E+03  0.87383226987E+02 0.  0.
         23    2    1    2    0    0 -0.11200394059E+02 -0.11311799093E+02  0.52754703138E+02  0.10328333384E+03  0.87355496220E+02 0.  0.
        -11    1    4    4    0    0  0.63689238886E+01 -0.30870081749E+02  0.66517715680E+02  0.73607959067E+02  0.00000000000E+00 0. -1.
         11    1    4    4    0    0 -0.17569317948E+02  0.19558282656E+02 -0.13763012542E+02  0.29675374772E+02  0.00000000000E+00 0.  1.
        -11    1    3    3    0    0  0.28625067924E+02 -0.32241812788E+01  0.30887498691E+02  0.42235381304E+02  0.00000000000E+00 0. -1.
         11    1    3    3    0    0 -0.38483810162E+02 -0.83043061810E+01  0.22923558464E+03  0.23259174192E+03  0.00000000000E+00 0.  1.
         21    1    1    2  502  501  0.21059136297E+02  0.22840286553E+02  0.62758555567E+02  0.70027153364E+02  0.00000000000E+00 0.  1.
<scales pt_clust_5="13000.00000" pt_clust_6="13000.00000" pt_clust_7="13000.00000" pt_clust_8="13000.00000" pt_clust_9="31.06712"></scales>
<clustering>
<clus scale="   31.067">  1  9  2 -1</clus>
<clus scale="   87.355">  5  6 -1 -1</clus>
<clus scale="   87.383">  7  8 -1 -1</clus>
<clus scale="   87.809">  2  5  1 -1</clus>
<clus scale="   87.809">  2  5  1 -1</clus>
</clustering>
</event>
<event>
 9    1  0.1713970E-005  0.1353244E+03  0.7546771E-02  0.1222465E+00
         -3   -1    0    0    0  501 -0.00000000000E+00  0.00000000000E+00  0.17122363496E+03  0.17122363496E+03  0.00000000000E+00 0.  1.
          3   -1    0    0  502    0  0.00000000000E+00 -0.00000000000E+00 -0.44795789579E+03  0.44795789579E+03  0.00000000000E+00 0. -1.
         23    2    1    2    0    0 -0.77842630374E+01  0.99855490593E+02  0.84069744666E+02  0.15900138150E+03  0.90454428289E+02 0.  0.
         23    2    1    2    0    0  0.70100467583E+02 -0.59790260551E+02 -0.36116035632E+03  0.38609466489E+03  0.10071413242E+03 0.  0.
        -11    1    4    4    0    0 -0.15926935132E+02  0.14522001230E+02 -0.40471056245E+02  0.45852613622E+02  0.00000000000E+00 0.  1.
         11    1    4    4    0    0  0.86027402715E+02 -0.74312261781E+02 -0.32068930007E+03  0.34024205127E+03  0.00000000000E+00 0. -1.
        -13    1    3    3    0    0  0.31152016338E+02  0.87816662606E+01  0.37547510883E+02  0.49571981580E+02  0.00000000000E+00 0. -1.
         13    1    3    3    0    0 -0.38936279375E+02  0.91073824333E+02  0.46522233783E+02  0.10942939992E+03  0.00000000000E+00 0.  1.
         21    1    1    2  502  501 -0.62316204545E+02 -0.40065230042E+02  0.35635081744E+00  0.74085484362E+02  0.00000000000E+00 0. -1.
<scales pt_clust_5="13000.00000" pt_clust_6="13000.00000" pt_clust_7="13000.00000" pt_clust_8="13000.00000" pt_clust_9="74.08463"></scales>
<clustering>
<clus scale="   74.085">  1  9  2 -1</clus>
<clus scale="   90.454">  7  8 -1 -1</clus>
<clus scale="  100.714">  5  6 -1 -1</clus>
<clus scale="  127.872">  1  7  2 -1</clus>
<clus scale="  135.324">  2  5  1 -1</clus>
</clustering>
</event>
<event>
 9    1  0.1713970E-005  0.1213584E+03  0.7546771E-02  0.1241603E+00
          2   -1    0    0  502    0  0.00000000000E+00  0.00000000000E+00  0.49443951784E+03  0.49443951784E+03  0.00000000000E+00 0. -1.
         -2   -1    0    0    0  501 -0.00000000000E+00 -0.00000000000E+00 -0.10781466318E+03  0.10781466318E+03  0.00000000000E+00 0.  1.
         23    2    1    2    0    0  0.54899214163E+02 -0.68511602381E+01  0.91739977835E+02  0.14159717392E+03  0.92588735905E+02 0.  0.
         23    2    1    2    0    0 -0.87663047336E+02  0.10967632416E+02  0.36333604123E+03  0.38465716488E+03  0.90238333383E+02 0.  0.
        -13    1    3    3    0    0 -0.20919601513E+01 -0.33220594930E+02  0.37494878200E+01  0.33496908569E+02  0.00000000000E+00 0. -1.
         13    1    3    3    0    0  0.56991174314E+02  0.26369434692E+02  0.87990490015E+02  0.10810026535E+03  0.00000000000E+00 0.  1.
        -13    1    4    4    0    0 -0.77837652619E+02 -0.68681239702E+01  0.35351788176E+03  0.36205077546E+03  0.00000000000E+00 0. -1.
         13    1    4    4    0    0 -0.98253947169E+01  0.17835756386E+02  0.98181594718E+01  0.22606389420E+02  0.00000000000E+00 0.  1.
         21    1    1    2  502  501  0.32763833173E+02 -0.41164721775E+01 -0.68451164412E+02  0.75999842215E+02  0.00000000000E+00 0.  1.
<scales pt_clust_5="13000.00000" pt_clust_6="13000.00000" pt_clust_7="13000.00000" pt_clust_8="13000.00000" pt_clust_9="33.02142"></scales>
<clustering>
<clus scale="   33.021">  2  9  1 -1</clus>
<clus scale="   90.238">  7  8 -1 -1</clus>
<clus scale="   92.589">  5  6 -1 -1</clus>
<clus scale="  119.575">  1  7  2 -1</clus>
<clus scale="  119.575">  1  5  2 -1</clus>
</clustering>
</event>
<event>
 9    1  0.1713970E-005  0.1095790E+03  0.7546771E-02  0.1261866E+00
          2   -1    0    0  502    0  0.00000000000E+00  0.00000000000E+00  0.68488065431E+03  0.68488065431E+03  0.00000000000E+00 0. -1.
         -2   -1    0    0    0  501 -0.00000000000E+00 -0.00000000000E+00 -0.23373306914E+02  0.23373306914E+02  0.00000000000E+00 0.  1.
         23    2    1    2    0    0  0.32834736891E+02  0.62906261038E+02  0.24718796356E+03  0.27337781429E+03  0.92726600243E+02 0.  0.
         23    2    1    2    0    0 -0.29086762971E+02 -0.32256267226E+02  0.32119720589E+03  0.33676799511E+03  0.91425001520E+02 0.  0.
        -11    1    3    3    0    0  0.57609518367E+02  0.46496344759E+02  0.10725450297E+03  0.13032380861E+03  0.00000000000E+00 0.  1.
         11    1    3    3    0    0 -0.24774781476E+02  0.16409916279E+02  0.13993346059E+03  0.14305400568E+03  0.00000000000E+00 0. -1.
        -13    1    4    4    0    0  0.13595093567E+02  0.23947215499E+02  0.13188521813E+03  0.13472938232E+03  0.00000000000E+00 0. -1.
         13    1    4    4    0    0 -0.42681856539E+02 -0.56203482725E+02  0.18931198776E+03  0.20203861279E+03  0.00000000000E+00 0.  1.
         21    1    1    2  502  501 -0.37479739197E+01 -0.30649993812E+02  0.93122177944E+02  0.98108151823E+02  0.00000000000E+00 0.  1.
<scales pt_clust_5="13000.00000" pt_clust_6="13000.00000" pt_clust_7="13000.00000" pt_clust_8="13000.00000" pt_clust_9="30.87830"></scales>
<clustering>
<clus scale="   30.878">  1  9  2 -1</clus>
<clus scale="   91.425">  7  8 -1 -1</clus>
<clus scale="   92.727">  5  6 -1 -1</clus>
<clus scale="  108.480">  1  7  2 -1</clus>
<clus scale="   30.878">  1  5  2 -1</clus>
</clustering>
</event>
<event>
 9    1  0.1713970E-005  0.1192516E+03  0.7546771E-02  0.1255637E+00
          1   -1    0    0  502    0  0.00000000000E+00  0.00000000000E+00  0.19226731278E+03  0.19226731278E+03  0.00000000000E+00 0. -1.
         -1   -1    0    0    0  501 -0.00000000000E+00 -0.00000000000E+00 -0.16171521225E+03  0.16171521225E+03  0.00000000000E+00 0.  1.
         23    2    1    2    0    0 -0.12599374358E+02 -0.10875377269E+02  0.47028711606E+02  0.12626416120E+03  0.11599103683E+03 0.  0.
         23    2    1    2    0    0  0.34498737065E+02  0.64250726621E+01  0.81562811125E+02  0.12716432062E+03  0.91032015592E+02 0.  0.
        -11    1    3    3    0    0 -0.51541479977E+02  0.23277080880E+02  0.48418082092E+02  0.74449025017E+02  0.00000000000E+00 0.  1.
         11    1    3    3    0    0  0.38942105619E+02 -0.34152458149E+02 -0.13893704856E+01  0.51815136186E+02  0.00000000000E+00 0. -1.
        -13    1    4    4    0    0  0.45914220271E+02 -0.24586900113E+02  0.78187195522E+02  0.93946095309E+02  0.00000000000E+00 0. -1.
         13    1    4    4    0    0 -0.11415483206E+02  0.31011972775E+02  0.33756156028E+01  0.33218225312E+02  0.00000000000E+00 0.  1.
         21    1    1    2  502  501 -0.21899362707E+02  0.44503046064E+01 -0.98039422203E+02  0.10055404320E+03  0.00000000000E+00 0.  1.
<scales pt_clust_5="13000.00000" pt_clust_6="13000.00000" pt_clust_7="13000.00000" pt_clust_8="13000.00000" pt_clust_9="22.34698"></scales>
<clustering>
<clus scale="   22.347">  2  9  1 -1</clus>
<clus scale="   91.032">  7  8 -1 -1</clus>
<clus scale="   95.152">  1  7  2 -1</clus>
<clus scale="  115.991">  5  6 -1 -1</clus>
<clus scale="   95.152">  1  5  2 -1</clus>
</clustering>
</event>
<event>
 9    1  0.1713970E-005  0.1037060E+03  0.7546771E-02  0.1280310E+00
         -1   -1    0    0    0  501 -0.00000000000E+00  0.00000000000E+00  0.86040790303E+02  0.86040790303E+02  0.00000000000E+00 0.  1.
          1   -1    0    0  502    0  0.00000000000E+00 -0.00000000000E+00 -0.29437953858E+03  0.29437953858E+03  0.00000000000E+00 0. -1.
         23    2    1    2    0    0 -0.80278439892E+02 -0.53021831095E+02 -0.14272777872E+03  0.18613616489E+03  0.70848504403E+02 0.  0.
         23    2    1    2    0    0  0.10483573568E+02  0.61278681939E+01 -0.65236873550E+02  0.11019785673E+03  0.87978758088E+02 0.  0.
        -11    1    4    4    0    0 -0.18027412089E+02 -0.30749410983E+02 -0.82709468627E+01  0.36591288915E+02  0.00000000000E+00 0.  1.
         11    1    4    4    0    0  0.28510985658E+02  0.36877279177E+02 -0.56965926688E+02  0.73606567819E+02  0.00000000000E+00 0. -1.
        -13    1    3    3    0    0 -0.30498036297E+02 -0.52935366232E+02 -0.43105435305E+02  0.74768721862E+02  0.00000000000E+00 0.  1.
         13    1    3    3    0    0 -0.49780403595E+02 -0.86464862583E-01 -0.99622343414E+02  0.11136744302E+03  0.00000000000E+00 0. -1.
         21    1    1    2  502  501  0.69794866324E+02  0.46893962901E+02 -0.37409600941E+00  0.84086307266E+02  0.00000000000E+00 0.  1.
<scales pt_clust_5="13000.00000" pt_clust_6="13000.00000" pt_clust_7="13000.00000" pt_clust_8="13000.00000" pt_clust_9="84.08548"></scales>
<clustering>
<clus scale="   70.849">  7  8 -1 -1</clus>
<clus scale="   84.085">  1  9  2 -1</clus>
<clus scale="   87.979">  5  6 -1 -1</clus>
<clus scale="   89.634">  1  7  2 -1</clus>
<clus scale="  103.706">  2  5  1 -1</clus>
</clustering>
</event>
<event>
 9    1  0.1713970E-005  0.9675024E+02  0.7546771E-02  0.1294675E+00
         -1   -1    0    0    0  501 -0.00000000000E+00  0.00000000000E+00  0.91961407942E+02  0.91961407942E+02  0.00000000000E+00 0.  1.
          1   -1    0    0  502    0  0.00000000000E+00 -0.00000000000E+00 -0.31126345978E+03  0.31126345978E+03  0.00000000000E+00 0. -1.
         23    2    1    2    0    0 -0.94995444528E+01  0.35884521219E+02 -0.21497274387E+02  0.10077566384E+03  0.91190248426E+02 0.  0.
         23    2    1    2    0    0  0.26349840846E+02 -0.19382251834E+02 -0.23983485215E+03  0.25425392857E+03  0.77809498728E+02 0.  0.
        -11    1    4    4    0    0  0.50291765663E+02 -0.29123270450E-01 -0.18092691044E+03  0.18778660619E+03  0.00000000000E+00 0.  1.
         11    1    4    4    0    0 -0.23941924818E+02 -0.19353128564E+02 -0.58907941705E+02  0.66467322386E+02  0.00000000000E+00 0. -1.
        -13    1    3    3    0    0 -0.25732834947E+02 -0.18385893546E+02 -0.29884207271E+02  0.43511903201E+02  0.00000000000E+00 0. -1.
         13    1    3    3    0    0  0.16233290495E+02  0.54270414766E+02  0.83869328839E+01  0.57263760637E+02  0.00000000000E+00 0.  1.
         21    1    1    2  502  501 -0.16850296393E+02 -0.16502269385E+02  0.42030074695E+02  0.48195275311E+02  0.00000000000E+00 0.  1.
<scales pt_clust_5="13000.00000" pt_clust_6="13000.00000" pt_clust_7="13000.00000" pt_clust_8="13000.00000" pt_clust_9="23.58511"></scales>
<clustering>
<clus scale="   23.585">  1  9  2 -1</clus>
<clus scale="   77.809">  5  6 -1 -1</clus>
<clus scale="   84.257">  2  5  1 -1</clus>
<clus scale="   91.190">  7  8 -1 -1</clus>
<clus scale="   84.257">  2  5  1 -1</clus>
</clustering>
</event>
<event>
 9    1  0.1713970E-005  0.1259852E+03  0.7546771E-02  0.1234461E+00
         -1   -1    0    0    0  501 -0.00000000000E+00  0.00000000000E+00  0.68867820304E+02  0.68867820304E+02  0.00000000000E+00 0.  1.
          1   -1    0    0  502    0  0.00000000000E+00 -0.00000000000E+00 -0.47428052227E+03  0.47428052227E+03  0.00000000000E+00 0. -1.
         23    2    1    2    0    0 -0.69402972754E+02 -0.36400014317E+02 -0.25541369996E+02  0.12323804188E+03  0.91616154227E+02 0.  0.
         23    2    1    2    0    0  0.78191576693E+02  0.71708141716E+02 -0.31189078502E+03  0.34280480036E+03  0.94780214763E+02 0.  0.
        -11    1    4    4    0    0  0.25268588223E+02  0.40917583352E+02 -0.25409897759E+03  0.25860982308E+03  0.00000000000E+00 0. -1.
         11    1    4    4    0    0  0.52922988469E+02  0.30790558365E+02 -0.57791807430E+02  0.84194977279E+02  0.00000000000E+00 0.  1.
        -13    1    3    3    0    0 -0.49271620012E+02  0.25395918603E+02 -0.88165284949E+01  0.56128213895E+02  0.00000000000E+00 0. -1.
         13    1    3    3    0    0 -0.20131352742E+02 -0.61795932920E+02 -0.16724841501E+02  0.67109827983E+02  0.00000000000E+00 0.  1.
         21    1    1    2  502  501 -0.87886039391E+01 -0.35308127399E+02 -0.67980546948E+02  0.77105500342E+02  0.00000000000E+00 0.  1.
<scales pt_clust_5="13000.00000" pt_clust_6="13000.00000" pt_clust_7="13000.00000" pt_clust_8="13000.00000" pt_clust_9="36.38548"></scales>
<clustering>
<clus scale="   36.385">  2  9  1 -1</clus>
<clus scale="   91.616">  7  8 -1 -1</clus>
<clus scale="   94.780">  5  6 -1 -1</clus>
<clus scale="  123.622">  1  7  2 -1</clus>
<clus scale="   36.385">  2  5  1 -1</clus>
</clustering>
</event>
<event>
 9    1  0.1713970E-005  0.1271282E+03  0.7546771E-02  0.1232161E+00
          2   -1    0    0  502    0  0.00000000000E+00  0.00000000000E+00  0.22852322658E+03  0.22852322658E+03  0.00000000000E+00 0. -1.
         -2   -1    0    0    0  501 -0.00000000000E+00 -0.00000000000E+00 -0.15049090278E+03  0.15049090278E+03  0.00000000000E+00 0.  1.
         23    2    1    2    0    0 -0.20880757916E+02  0.86445687727E+02  0.42491235156E+02  0.13430664226E+03  0.91235443295E+02 0.  0.
         23    2    1    2    0    0  0.40231461711E+02 -0.79605122020E+02  0.10985014333E+03  0.16761612127E+03  0.89847449358E+02 0.  0.
        -11    1    4    4    0    0  0.16205877126E+02 -0.68804870797E+02  0.19246485768E+02  0.73260957632E+02  0.00000000000E+00 0. -1.
         11    1    4    4    0    0  0.24025584586E+02 -0.10800251223E+02  0.90603657562E+02  0.94355163636E+02  0.00000000000E+00 0.  1.
        -11    1    3    3    0    0  0.25175121493E+02  0.53403554693E+02 -0.64861921834E+01  0.59395261470E+02  0.00000000000E+00 0. -1.
         11    1    3    3    0    0 -0.46055879409E+02  0.33042133034E+02  0.48977427339E+02  0.74911380793E+02  0.00000000000E+00 0.  1.
         21    1    1    2  502  501 -0.19350703795E+02 -0.68405657064E+01 -0.74309054687E+02  0.77091365827E+02  0.00000000000E+00 0.  1.
<scales pt_clust_5="13000.00000" pt_clust_6="13000.00000" pt_clust_7="13000.00000" pt_clust_8="13000.00000" pt_clust_9="20.52421"></scales>
<clustering>
<clus scale="   20.524">  2  9  1 -1</clus>
<clus scale="   89.847">  5  6 -1 -1</clus>
<clus scale="   91.235">  7  8 -1 -1</clus>
<clus scale="  126.136">  1  5  2 -1</clus>
<clus scale="  126.136">  1  5  2 -1</clus>
</clustering>
</event>
<event>
 9    1  0.1713970E-005  0.1162395E+03  0.7546771E-02  0.1249889E+00
         -2   -1    0    0    0  501 -0.00000000000E+00  0.00000000000E+00  0.10641149148E+03  0.10641149148E+03  0.00000000000E+00 0.  1.
          2   -1    0    0  502    0  0.00000000000E+00 -0.00000000000E+00 -0.36614294312E+03  0.36614294312E+03  0.00000000000E+00 0. -1.
         23    2    1    2    0    0 -0.34688784306E+02  0.31013006891E+02 -0.44286341037E+01  0.10064490340E+03  0.89132852688E+02 0.  0.
         23    2    1    2    0    0  0.54531980046E+02 -0.57804816038E+02 -0.29584541083E+03  0.31941900514E+03  0.90492320837E+02 0.  0.
        -13    1    3    3    0    0  0.66655189039E+01 -0.22960592787E+02 -0.19672913648E+02  0.30961936225E+02  0.00000000000E+00 0. -1.
         13    1    3    3    0    0 -0.41354303210E+02  0.53973599678E+02  0.15244279544E+02  0.69682967180E+02  0.00000000000E+00 0.  1.
        -13    1    4    4    0    0 -0.23742205552E+02 -0.13474963905E+02 -0.41871328589E+02  0.49984749019E+02  0.00000000000E+00 0.  1.
         13    1    4    4    0    0  0.78274185598E+02 -0.44329852133E+02 -0.25397408224E+03  0.26943425612E+03  0.00000000000E+00 0. -1.
         21    1    1    2  502  501 -0.19843195739E+02  0.26791809147E+02  0.40542593294E+02  0.52490526055E+02  0.00000000000E+00 0.  1.
<scales pt_clust_5="13000.00000" pt_clust_6="13000.00000" pt_clust_7="13000.00000" pt_clust_8="13000.00000" pt_clust_9="33.33997"></scales>
<clustering>
<clus scale="   33.340">  1  9  2 -1</clus>
<clus scale="   89.133">  5  6 -1 -1</clus>
<clus scale="   90.492">  7  8 -1 -1</clus>
<clus scale="  115.184">  1  5  2 -1</clus>
<clus scale="  116.239">  2  5  1 -1</clus>
</clustering>
</event>
<event>
 9    1  0.1713970E-005  0.9227516E+02  0.7546771E-02  0.1298024E+00
         -1   -1    0    0    0  501 -0.00000000000E+00  0.00000000000E+00  0.23652718077E+03  0.23652718077E+03  0.00000000000E+00 0.  1.
          1   -1    0    0  502    0  0.00000000000E+00 -0.00000000000E+00 -0.10355244418E+03  0.10355244418E+03  0.00000000000E+00 0. -1.
         23    2    1    2    0    0  0.11202341548E+02  0.44174570097E+02  0.86806098487E+02  0.13370192331E+03  0.90906657975E+02 0.  0.
         23    2    1    2    0    0 -0.29855327833E+01  0.29924099292E+01 -0.45735662145E+02  0.10275029042E+03  0.91913021202E+02 0.  0.
        -11    1    3    3    0    0 -0.28135168328E+02 -0.13853203420E+02  0.22795495082E+02  0.38770266156E+02  0.00000000000E+00 0. -1.
         11    1    3    3    0    0  0.39337509876E+02  0.58027773517E+02  0.64010603405E+02  0.94931657158E+02  0.00000000000E+00 0.  1.
        -11    1    4    4    0    0  0.27627946772E+02 -0.58929700399E+01  0.16579411443E+02  0.32755265570E+02  0.00000000000E+00 0.  1.
         11    1    4    4    0    0 -0.30613479556E+02  0.88853799692E+01 -0.62315073588E+02  0.69995024851E+02  0.00000000000E+00 0. -1.
         21    1    1    2  502  501 -0.82168087649E+01 -0.47166980026E+02  0.91904300246E+02  0.10362741121E+03  0.00000000000E+00 0.  1.
<scales pt_clust_5="13000.00000" pt_clust_6="13000.00000" pt_clust_7="13000.00000" pt_clust_8="13000.00000" pt_clust_9="47.87734"></scales>
<clustering>
<clus scale="   47.877">  1  9  2 -1</clus>
<clus scale="   90.907">  5  6 -1 -1</clus>
<clus scale="   91.273">  1  5  2 -1</clus>
<clus scale="   91.913">  7  8 -1 -1</clus>
<clus scale="   92.275">  2  5  1 -1</clus>
</clustering>
</event>
<event>
 9    1  0.1713970E-005  0.1253263E+03  0.7546771E-02  0.1235264E+00
          1   -1    0    0  502    0  0.00000000000E+00  0.00000000000E+00  0.12791146501E+03  0.12791146501E+03  0.00000000000E+00 0. -1.
         -1   -1    0    0    0  501 -0.00000000000E+00 -0.00000000000E+00 -0.15579317737E+03  0.15579317737E+03  0.00000000000E+00 0.  1.
         23    2    1    2    0    0  0.19618688506E+02  0.91278117823E+02 -0.74293050418E+01  0.13204079223E+03  0.93075176651E+02 0.  0.
         23    2    1    2    0    0 -0.32700799229E+02 -0.69621299529E+02  0.39017394855E+00  0.11888317606E+03  0.90645406370E+02 0.  0.
        -11    1    4    4    0    0  0.28210063552E+02 -0.27143698856E+01 -0.15427482847E+01  0.28382310719E+02  0.00000000000E+00 0.  1.
         11    1    4    4    0    0 -0.60910862781E+02 -0.66906929643E+02  0.19329222333E+01  0.90500865341E+02  0.00000000000E+00 0. -1.
        -13    1    3    3    0    0  0.36785000560E+02  0.10201518120E+03  0.45042286336E+01  0.10853811099E+03  0.00000000000E+00 0.  1.
         13    1    3    3    0    0 -0.17166312054E+02 -0.10737063381E+02 -0.11933533675E+02  0.23502681242E+02  0.00000000000E+00 0. -1.
         21    1    1    2  502  501  0.13082110724E+02 -0.21656818294E+02 -0.20842581263E+02  0.32780674082E+02  0.00000000000E+00 0. -1.
<scales pt_clust_5="13000.00000" pt_clust_6="13000.00000" pt_clust_7="13000.00000" pt_clust_8="13000.00000" pt_clust_9="25.30137"></scales>
<clustering>
<clus scale="   25.301">  2  9  1 -1</clus>
<clus scale="   90.645">  5  6 -1 -1</clus>
<clus scale="   93.075">  7  8 -1 -1</clus>
<clus scale="  123.533">  1  5  2 -1</clus>
<clus scale="  123.533">  1  5  2 -1</clus>
</clustering>
</event>
<event>
 9    1  0.1713970E-005  0.1013381E+03  0.7546771E-02  0.1277724E+00
         -1   -1    0    0    0  501 -0.00000000000E+00  0.00000000000E+00  0.37798624715E+02  0.37798624715E+02  0.00000000000E+00 0.  1.
          1   -1    0    0  502    0  0.00000000000E+00 -0.00000000000E+00 -0.48645210094E+03  0.48645210094E+03  0.00000000000E+00 0. -1.
         23    2    1    2    0    0  0.53886127398E+01  0.64036544879E+02 -0.11891324970E+03  0.16276927815E+03  0.90684953146E+02 0.  0.
         23    2    1    2    0    0  0.16198160930E+02 -0.16748512919E+02 -0.18228491095E+03  0.20513178535E+03  0.91150246845E+02 0.  0.
        -11    1    3    3    0    0 -0.23011855673E+02 -0.21801750307E+01 -0.74793351237E+02  0.78283740674E+02  0.00000000000E+00 0.  1.
         11    1    3    3    0    0  0.28400468413E+02  0.66216719910E+02 -0.44119898463E+02  0.84485537473E+02  0.00000000000E+00 0. -1.
        -13    1    4    4    0    0  0.39639128236E+02  0.19131354694E+02 -0.13154679507E+03  0.13871491813E+03  0.00000000000E+00 0. -1.
         13    1    4    4    0    0 -0.23440967306E+02 -0.35879867613E+02 -0.50738115876E+02  0.66416867216E+02  0.00000000000E+00 0.  1.
         21    1    1    2  502  501 -0.21586773670E+02 -0.47288031960E+02 -0.14745531558E+03  0.15634966216E+03  0.00000000000E+00 0. -1.
<scales pt_clust_5="13000.00000" pt_clust_6="13000.00000" pt_clust_7="13000.00000" pt_clust_8="13000.00000" pt_clust_9="51.98218"></scales>
<clustering>
<clus scale="   51.982">  2  9  1 -1</clus>
<clus scale="   90.685">  5  6 -1 -1</clus>
<clus scale="   91.150">  7  8 -1 -1</clus>
<clus scale="  100.920">  1  5  2 -1</clus>
<clus scale="   51.982">  2  5  1 -1</clus>
</clustering>
</event>
<event>
 9    1  0.1713970E-005  0.9858403E+02  0.7546771E-02  0.1283550E+00
         -1   -1    0    0    0  501 -0.00000000000E+00  0.00000000000E+00  0.20580305330E+03  0.20580305330E+03  0.00000000000E+00 0.  1.
          1   -1    0    0  502    0  0.00000000000E+00 -0.00000000000E+00 -0.33715619507E+03  0.33715619507E+03  0.00000000000E+00 0. -1.
         23    2    1    2    0    0  0.50618728494E+02  0.82408511093E+02  0.91945203048E+02  0.16151276342E+03  0.90989197207E+02 0.  0.
         23    2    1    2    0    0 -0.27495631348E+01 -0.33263451043E+02 -0.27744973141E+03  0.29404473104E+03  0.91487338575E+02 0.  0.
        -11    1    4    4    0    0  0.38560558763E+02 -0.19579234426E+02 -0.20514810292E+03  0.20965687979E+03  0.00000000000E+00 0. -1.
         11    1    4    4    0    0 -0.41310121898E+02 -0.13684216617E+02 -0.72301628490E+02  0.84387851246E+02  0.00000000000E+00 0.  1.
        -13    1    3    3    0    0  0.99304482950E+01  0.78479490710E+02  0.24797079428E+02  0.82900780537E+02  0.00000000000E+00 0.  1.
         13    1    3    3    0    0  0.40688280199E+02  0.39290203824E+01  0.67148123620E+02  0.78611982881E+02  0.00000000000E+00 0. -1.
         21    1    1    2  502  501 -0.47869165359E+02 -0.49145060049E+02  0.54151386582E+02  0.87401753920E+02  0.00000000000E+00 0. -1.
<scales pt_clust_5="13000.00000" pt_clust_6="13000.00000" pt_clust_7="13000.00000" pt_clust_8="13000.00000" pt_clust_9="68.60535"></scales>
<clustering>
<clus scale="   68.605">  1  9  2 -1</clus>
<clus scale="   90.989">  7  8 -1 -1</clus>
<clus scale="   91.487">  5  6 -1 -1</clus>
<clus scale="   98.122">  1  7  2 -1</clus>
<clus scale="   98.584">  2  5  1 -1</clus>
</clustering>
</event>
<event>
 9    1  0.1713970E-005  0.1142454E+03  0.7546771E-02  0.1260773E+00
          3   -1    0    0  502    0  0.00000000000E+00  0.00000000000E+00  0.39021139854E+03  0.39021139854E+03  0.00000000000E+00 0. -1.
         -3   -1    0    0    0  501 -0.00000000000E+00 -0.00000000000E+00 -0.63634196684E+02  0.63634196684E+02  0.00000000000E+00 0.  1.
         23    2    1    2    0    0 -0.11419587429E+02 -0.19093509987E+01  0.96596449064E+02  0.14540188332E+03  0.10805915557E+03 0.  0.
         23    2    1    2    0    0 -0.70175218580E+02  0.74409566230E+01  0.17718519431E+03  0.21110059698E+03  0.90492761164E+02 0.  0.
        -11    1    4    4    0    0 -0.89503542662E+02 -0.48866719494E+01  0.12239736390E+03  0.15170984938E+03  0.00000000000E+00 0.  1.
         11    1    4    4    0    0  0.19328324082E+02  0.12327628572E+02  0.54787830418E+02  0.59390747595E+02  0.00000000000E+00 0. -1.
        -13    1    3    3    0    0 -0.31681646561E+02  0.10361248514E+02 -0.11098927350E+02  0.35132156039E+02  0.00000000000E+00 0.  1.
         13    1    3    3    0    0  0.20262059132E+02 -0.12270599513E+02  0.10769537641E+03  0.11026972728E+03  0.00000000000E+00 0. -1.
         21    1    1    2  502  501  0.81594806009E+02 -0.55316056242E+01  0.52795558474E+02  0.97343114924E+02  0.00000000000E+00 0.  1.
<scales pt_clust_5="13000.00000" pt_clust_6="13000.00000" pt_clust_7="13000.00000" pt_clust_8="13000.00000" pt_clust_9="81.78209"></scales>
<clustering>
<clus scale="   81.782">  2  9  1 -1</clus>
<clus scale="   90.493">  5  6 -1 -1</clus>
<clus scale="   97.797">  1  5  2 -1</clus>
<clus scale="  108.059">  7  8 -1 -1</clus>
<clus scale="   97.797">  1  5  2 -1</clus>
</clustering>
</event>
<event>
 9    1  0.1713970E-005  0.1443098E+03  0.7546771E-02  0.1207689E+00
         -2   -1    0    0    0  501 -0.00000000000E+00  0.00000000000E+00  0.26747874414E+03  0.26747874414E+03  0.00000000000E+00 0.  1.
          2   -1    0    0  502    0  0.00000000000E+00 -0.00000000000E+00 -0.97024971483E+02  0.97024971483E+02  0.00000000000E+00 0. -1.
         23    2    1    2    0    0 -0.10454223680E+03  0.56660374619E+02  0.13835102414E+03  0.20424606835E+03  0.91847554281E+02 0.  0.
         23    2    1    2    0    0  0.90706296231E+02 -0.39264796072E+02  0.27208405616E+02  0.13749816581E+03  0.91630190863E+02 0.  0.
        -13    1    4    4    0    0  0.57823850215E+02  0.20117638617E+02  0.32679366820E+02  0.69399265507E+02  0.00000000000E+00 0.  1.
         13    1    4    4    0    0  0.32882446016E+02 -0.59382434688E+02 -0.54709612046E+01  0.68098900300E+02  0.00000000000E+00 0. -1.
        -13    1    3    3    0    0 -0.89626452637E+02  0.40565118232E+01  0.11213258008E+03  0.14360735293E+03  0.00000000000E+00 0. -1.
         13    1    3    3    0    0 -0.14915784160E+02  0.52603862796E+02  0.26218444060E+02  0.60638715414E+02  0.00000000000E+00 0.  1.
         21    1    1    2  502  501  0.13835940566E+02 -0.17395578547E+02  0.48943429010E+01  0.22759481470E+02  0.00000000000E+00 0. -1.
<scales pt_clust_5="13000.00000" pt_clust_6="13000.00000" pt_clust_7="13000.00000" pt_clust_8="13000.00000" pt_clust_9="22.22700"></scales>
<clustering>
<clus scale="   22.227">  2  9  1 -1</clus>
<clus scale="   91.630">  5  6 -1 -1</clus>
<clus scale="   91.848">  7  8 -1 -1</clus>
<clus scale="  144.172">  2  5  1 -1</clus>
<clus scale="   22.227">  2  5  1 -1</clus>
</clustering>
</event>
<event>
 9    1  0.1713970E-005  0.9427257E+02  0.7546771E-02  0.1296200E+00
         -1   -1    0    0    0  501 -0.00000000000E+00  0.00000000000E+00  0.32208947002E+03  0.32208947002E+03  0.00000000000E+00 0.  1.
          1   -1    0    0  502    0  0.00000000000E+00 -0.00000000000E+00 -0.88018154279E+02  0.88018154279E+02  0.00000000000E+00 0. -1.
         23    2    1    2    0    0  0.21532365872E+02  0.32244025927E+02  0.25896758338E+03  0.27493516263E+03  0.83796267351E+02 0.  0.
         23    2    1    2    0    0 -0.18798598540E+01 -0.27893567588E+02 -0.47087940796E+02  0.10521219067E+03  0.89837330280E+02 0.  0.
        -11    1    3    3    0    0  0.16910935640E+02 -0.27322131792E+02  0.10394694597E+03  0.10880002852E+03  0.00000000000E+00 0. -1.
         11    1    3    3    0    0  0.46214302318E+01  0.59566157719E+02  0.15502063741E+03  0.16613513411E+03  0.00000000000E+00 0.  1.
        -13    1    4    4    0    0 -0.28168708873E+01 -0.51887890711E+02  0.43613673564E+00  0.51966125306E+02  0.00000000000E+00 0.  1.
         13    1    4    4    0    0  0.93701103326E+00  0.23994323123E+02 -0.47524077532E+02  0.53246065367E+02  0.00000000000E+00 0. -1.
         21    1    1    2  502  501 -0.19652506018E+02 -0.43504583382E+01  0.22191673157E+02  0.29960270994E+02  0.00000000000E+00 0.  1.
<scales pt_clust_5="13000.00000" pt_clust_6="13000.00000" pt_clust_7="13000.00000" pt_clust_8="13000.00000" pt_clust_9="20.12828"></scales>
<clustering>
<clus scale="   20.128">  1  9  2 -1</clus>
<clus scale="   83.796">  5  6 -1 -1</clus>
<clus scale="   88.535">  1  5  2 -1</clus>
<clus scale="   89.837">  7  8 -1 -1</clus>
<clus scale="   94.273">  2  5  1 -1</clus>
</clustering>
</event>
<event>
 9    1  0.1713970E-005  0.1139238E+03  0.7546771E-02  0.1253648E+00
         -4   -1    0    0    0  501 -0.00000000000E+00  0.00000000000E+00  0.12061854383E+03  0.12061854383E+03  0.00000000000E+00 0.  1.
          4   -1    0    0  502    0  0.00000000000E+00 -0.00000000000E+00 -0.28619483530E+03  0.28619483530E+03  0.00000000000E+00 0. -1.
         23    2    1    2    0    0 -0.55439278325E+02 -0.17250092888E+02  0.55222601201E+02  0.12194929490E+03  0.91929405299E+02 0.  0.
         23    2    1    2    0    0  0.68971037737E+02 -0.72103309083E+01 -0.22864645225E+03  0.25582953521E+03  0.91436087184E+02 0.  0.
        -13    1    4    4    0    0  0.11770959290E+02  0.33303315608E+02 -0.13067906111E+03  0.13536869404E+03  0.00000000000E+00 0. -1.
         13    1    4    4    0    0  0.57200078447E+02 -0.40513646517E+02 -0.97967391144E+02  0.12046084117E+03  0.00000000000E+00 0.  1.
        -13    1    3    3    0    0 -0.79554457845E+02 -0.12492438920E+01  0.36975156748E+02  0.87736164663E+02  0.00000000000E+00 0.  1.
         13    1    3    3    0    0  0.24115179520E+02 -0.16000848996E+02  0.18247444453E+02  0.34213130242E+02  0.00000000000E+00 0. -1.
         21    1    1    2  502  501 -0.13531759412E+02  0.24460423796E+02  0.78475595768E+01  0.29034549013E+02  0.00000000000E+00 0.  1.
<scales pt_clust_5="13000.00000" pt_clust_6="13000.00000" pt_clust_7="13000.00000" pt_clust_8="13000.00000" pt_clust_9="27.95391"></scales>
<clustering>
<clus scale="   27.954">  1  9  2 -1</clus>
<clus scale="   91.436">  5  6 -1 -1</clus>
<clus scale="   91.929">  7  8 -1 -1</clus>
<clus scale="  113.526">  2  5  1 -1</clus>
<clus scale="  113.526">  2  5  1 -1</clus>
</clustering>
</event>
<event>
 9    1  0.1713970E-005  0.1050652E+03  0.7546771E-02  0.1274067E+00
          2   -1    0    0  502    0  0.00000000000E+00  0.00000000000E+00  0.20473591192E+03  0.20473591192E+03  0.00000000000E+00 0. -1.
         -2   -1    0    0    0  501 -0.00000000000E+00 -0.00000000000E+00 -0.10304548161E+03  0.10304548161E+03  0.00000000000E+00 0.  1.
         23    2    1    2    0    0 -0.10383496766E+02  0.15248566501E+02 -0.20061309706E+02  0.93600490260E+02  0.89544736553E+02 0.  0.
         23    2    1    2    0    0  0.46227172918E+02 -0.20838329739E+01  0.13552837323E+03  0.17358687722E+03  0.98097757953E+02 0.  0.
        -13    1    4    4    0    0  0.11194096257E+02 -0.45088661364E+02  0.92050225851E+02  0.10310935580E+03  0.00000000000E+00 0. -1.
         13    1    4    4    0    0  0.35033076661E+02  0.43004828390E+02  0.43478147378E+02  0.70477521414E+02  0.00000000000E+00 0.  1.
        -13    1    3    3    0    0  0.11507497340E+02  0.47670702030E+02 -0.23402145646E+02  0.54337636569E+02  0.00000000000E+00 0.  1.
         13    1    3    3    0    0 -0.21890994105E+02 -0.32422135529E+02  0.33408359397E+01  0.39262853691E+02  0.00000000000E+00 0. -1.
         21    1    1    2  502  501 -0.35843676153E+02 -0.13164733528E+02 -0.13776633206E+02  0.40594026056E+02  0.00000000000E+00 0.  1.
<scales pt_clust_5="13000.00000" pt_clust_6="13000.00000" pt_clust_7="13000.00000" pt_clust_8="13000.00000" pt_clust_9="38.18480"></scales>
<clustering>
<clus scale="   38.185">  2  9  1 -1</clus>
<clus scale="   89.545">  7  8 -1 -1</clus>
<clus scale="   97.128">  2  7  1 -1</clus>
<clus scale="   98.098">  5  6 -1 -1</clus>
<clus scale="  105.065">  1  5  2 -1</clus>
</clustering>
</event>
<event>
 9    1  0.1713970E-005  0.1306541E+03  0.7546771E-02  0.1226805E+00
         -1   -1    0    0    0  501 -0.00000000000E+00  0.00000000000E+00  0.59277571603E+02  0.59277571603E+02  0.00000000000E+00 0.  1.
          1   -1    0    0  502    0  0.00000000000E+00 -0.00000000000E+00 -0.61107656853E+03  0.61107656853E+03  0.00000000000E+00 0. -1.
         23    2    1    2    0    0 -0.14729649365E+02  0.72946134913E+02 -0.31143228355E+02  0.12215029433E+03  0.91720731367E+02 0.  0.
         23    2    1    2    0    0  0.43354737831E+01 -0.96685833273E+02 -0.49216812200E+03  0.50969205318E+03  0.90496309716E+02 0.  0.
        -11    1    3    3    0    0  0.33509537048E+02  0.58271033388E+02 -0.12375618596E+02  0.68348799118E+02  0.00000000000E+00 0.  1.
         11    1    3    3    0    0 -0.48239186413E+02  0.14675101525E+02 -0.18767609759E+02  0.53801495208E+02  0.00000000000E+00 0. -1.
        -13    1    4    4    0    0 -0.27828989238E+02 -0.63471495289E+02 -0.40628965372E+03  0.41215818089E+03  0.00000000000E+00 0. -1.
         13    1    4    4    0    0  0.32164463021E+02 -0.33214337984E+02 -0.85878468275E+02  0.97533872283E+02  0.00000000000E+00 0.  1.
         21    1    1    2  502  501  0.10394175582E+02  0.23739698360E+02 -0.28487646577E+02  0.38511792632E+02  0.00000000000E+00 0. -1.
<scales pt_clust_5="13000.00000" pt_clust_6="13000.00000" pt_clust_7="13000.00000" pt_clust_8="13000.00000" pt_clust_9="25.91548"></scales>
<clustering>
<clus scale="   25.915">  1  9  2 -1</clus>
<clus scale="   90.496">  7  8 -1 -1</clus>
<clus scale="   91.721">  5  6 -1 -1</clus>
<clus scale="  129.797">  2  7  1 -1</clus>
<clus scale="  129.797">  2  5  1 -1</clus>
</clustering>
</event>
<event>
 9    1  0.1713970E-005  0.1765920E+03  0.7546771E-02  0.1171581E+00
          1   -1    0    0  502    0  0.00000000000E+00  0.00000000000E+00  0.97388605519E+03  0.97388605519E+03  0.00000000000E+00 0. -1.
         -1   -1    0    0    0  501 -0.00000000000E+00 -0.00000000000E+00 -0.93506059785E+02  0.93506059785E+02  0.00000000000E+00 0.  1.
         23    2    1    2    0    0 -0.13763967091E+03 -0.29069111258E+02  0.17344307986E+03  0.24136212365E+03  0.91561348544E+02 0.  0.
         23    2    1    2    0    0  0.15219215641E+03  0.11345461125E+01  0.75085945105E+03  0.77198090355E+03  0.94872865173E+02 0.  0.
        -11    1    4    4    0    0  0.87128496848E+02  0.39233471781E+02  0.53160791323E+03  0.54012740504E+03  0.00000000000E+00 0. -1.
         11    1    4    4    0    0  0.65063659562E+02 -0.38098925668E+02  0.21925153782E+03  0.23185349850E+03  0.00000000000E+00 0.  1.
        -13    1    3    3    0    0 -0.45273710824E+02 -0.51439882313E+02  0.10013333012E+03  0.12133612070E+03  0.00000000000E+00 0. -1.
         13    1    3    3    0    0 -0.92365960084E+02  0.22370771055E+02  0.73309749736E+02  0.12002600296E+03  0.00000000000E+00 0.  1.
         21    1    1    2  502  501 -0.14552485503E+02  0.27934565145E+02 -0.43922535502E+02  0.54049087773E+02  0.00000000000E+00 0.  1.
<scales pt_clust_5="13000.00000" pt_clust_6="13000.00000" pt_clust_7="13000.00000" pt_clust_8="13000.00000" pt_clust_9="31.49785"></scales>
<clustering>
<clus scale="   31.498">  2  9  1 -1</clus>
<clus scale="   91.561">  7  8 -1 -1</clus>
<clus scale="   94.873">  5  6 -1 -1</clus>
<clus scale="  174.835">  2  7  1 -1</clus>
<clus scale="  176.592">  1  5  2 -1</clus>
</clustering>
</event>
<event>
 9    1  0.1713970E-005  0.1699130E+03  0.7546771E-02  0.1177971E+00
          1   -1    0    0  502    0  0.00000000000E+00  0.00000000000E+00  0.10663902869E+03  0.10663902869E+03  0.00000000000E+00 0. -1.
         -1   -1    0    0    0  501 -0.00000000000E+00 -0.00000000000E+00 -0.61453876119E+03  0.61453876119E+03  0.00000000000E+00 0.  1.
         23    2    1    2    0    0  0.41945247494E+02  0.11852785395E+03 -0.46825141197E+03  0.49339460289E+03  0.91490947077E+02 0.  0.
         23    2    1    2    0    0 -0.52509970185E+02 -0.13634725766E+03  0.11448351649E+02  0.17264686119E+03  0.91257888892E+02 0.  0.
        -11    1    3    3    0    0  0.70090726022E+02  0.92193156555E+02 -0.37548215205E+03  0.39293655277E+03  0.00000000000E+00 0. -1.
         11    1    3    3    0    0 -0.28145478528E+02  0.26334697398E+02 -0.92769259920E+02  0.10045805012E+03  0.00000000000E+00 0.  1.
        -13    1    4    4    0    0 -0.37634641470E+02 -0.12074491517E+03  0.43737200186E+02  0.13382317982E+03  0.00000000000E+00 0. -1.
         13    1    4    4    0    0 -0.14875328715E+02 -0.15602342492E+02 -0.32288848537E+02  0.38823681375E+02  0.00000000000E+00 0.  1.
         21    1    1    2  502  501  0.10564722691E+02  0.17819403705E+02 -0.51096672180E+02  0.55136325792E+02  0.00000000000E+00 0. -1.
<scales pt_clust_5="13000.00000" pt_clust_6="13000.00000" pt_clust_7="13000.00000" pt_clust_8="13000.00000" pt_clust_9="20.71580"></scales>
<clustering>
<clus scale="   20.716">  2  9  1 -1</clus>
<clus scale="   91.258">  7  8 -1 -1</clus>
<clus scale="   91.491">  5  6 -1 -1</clus>
<clus scale="  169.788">  1  7  2 -1</clus>
<clus scale="  169.788">  1  5  2 -1</clus>
</clustering>
</event>
<event>
 9    1  0.1713970E-005  0.9769158E+02  0.7546771E-02  0.1285877E+00
          1   -1    0    0  502    0  0.00000000000E+00  0.00000000000E+00  0.13290854869E+03  0.13290854869E+03  0.00000000000E+00 0. -1.
         -1   -1    0    0    0  501 -0.00000000000E+00 -0.00000000000E+00 -0.18237934093E+03  0.18237934093E+03  0.00000000000E+00 0.  1.
         23    2    1    2    0    0 -0.21246434325E+02 -0.33974480120E+02 -0.84143693710E+02  0.13118152522E+03  0.92318768931E+02 0.  0.
         23    2    1    2    0    0 -0.71744683336E+00  0.31379242563E+02  0.85427625957E+02  0.12874221182E+03  0.91057708266E+02 0.  0.
        -13    1    3    3    0    0 -0.28230281685E+02  0.26629283371E+02 -0.24683331595E+02  0.45992764599E+02  0.00000000000E+00 0. -1.
         13    1    3    3    0    0  0.69838473595E+01 -0.60603763491E+02 -0.59460362115E+02  0.85188760621E+02  0.00000000000E+00 0.  1.
        -13    1    4    4    0    0 -0.30114767766E+02  0.44757839552E+02  0.79234362475E+02  0.95855347455E+02  0.00000000000E+00 0. -1.
         13    1    4    4    0    0  0.29397320933E+02 -0.13378596989E+02  0.61932634825E+01  0.32886864368E+02  0.00000000000E+00 0.  1.
         21    1    1    2  502  501  0.21963881158E+02  0.25952375574E+01 -0.50754724486E+02  0.55364152582E+02  0.00000000000E+00 0.  1.
<scales pt_clust_5="13000.00000" pt_clust_6="13000.00000" pt_clust_7="13000.00000" pt_clust_8="13000.00000" pt_clust_9="22.11668"></scales>
<clustering>
<clus scale="   22.117">  2  9  1 -1</clus>
<clus scale="   91.058">  7  8 -1 -1</clus>
<clus scale="   92.319">  5  6 -1 -1</clus>
<clus scale="   96.501">  1  7  2 -1</clus>
<clus scale="   96.501">  1  5  2 -1</clus>
</clustering>
</event>
<event>
 9    1  0.1713970E-005  0.1086956E+03  0.7546771E-02  0.1266847E+00
         -2   -1    0    0    0  501 -0.00000000000E+00  0.00000000000E+00  0.32183687970E+02  0.32183687970E+02  0.00000000000E+00 0. -1.
          2   -1    0    0  502    0  0.00000000000E+00 -0.00000000000E+00 -0.58867037890E+03  0.58867037890E+03  0.00000000000E+00 0.  1.
         23    2    1    2    0    0  0.45616962308E+02 -0.25912958409E+02 -0.11468499852E+03  0.15384913495E+03  0.88116506823E+02 0.  0.
         23    2    1    2    0    0 -0.50173300181E+02 -0.50118485348E+01 -0.40083009828E+03  0.41547071586E+03  0.96998295741E+02 0.  0.
        -11    1    4    4    0    0 -0.14590146178E+02 -0.49609086874E+02 -0.16973343304E+03  0.17743554367E+03  0.00000000000E+00 0. -1.
         11    1    4    4    0    0 -0.35583154003E+02  0.44597238340E+02 -0.23109666524E+03  0.23803517219E+03  0.00000000000E+00 0.  1.
        -11    1    3    3    0    0  0.65754784229E+02 -0.59232513082E+01 -0.48753702984E+02  0.82071311124E+02  0.00000000000E+00 0. -1.
         11    1    3    3    0    0 -0.20137821921E+02 -0.19989707100E+02 -0.65931295534E+02  0.71777823821E+02  0.00000000000E+00 0.  1.
         21    1    1    2  502  501  0.45563378728E+01  0.30924806943E+02 -0.40971594132E+02  0.51534216061E+02  0.00000000000E+00 0. -1.
<scales pt_clust_5="13000.00000" pt_clust_6="13000.00000" pt_clust_7="13000.00000" pt_clust_8="13000.00000" pt_clust_9="31.25866"></scales>
<clustering>
<clus scale="   31.259">  1  9  2 -1</clus>
<clus scale="   88.117">  7  8 -1 -1</clus>
<clus scale="   96.998">  5  6 -1 -1</clus>
<clus scale="  100.849">  1  7  2 -1</clus>
<clus scale="  108.696">  2  5  1 -1</clus>
</clustering>
</event>
<event>
 9    1  0.1713970E-005  0.1698326E+03  0.7546771E-02  0.1178046E+00
         -1   -1    0    0    0  501 -0.00000000000E+00  0.00000000000E+00  0.73140848759E+02  0.73140848759E+02  0.00000000000E+00 0.  1.
          1   -1    0    0  502    0  0.00000000000E+00 -0.00000000000E+00 -0.11011307684E+04  0.11011307684E+04  0.00000000000E+00 0. -1.
         23    2    1    2    0    0  0.15191488009E+03  0.18327566711E+02 -0.41505565413E+03  0.45160249614E+03  0.90882275495E+02 0.  0.
         23    2    1    2    0    0 -0.13840302271E+03  0.28572234911E+01 -0.65392506914E+03  0.67458989878E+03  0.91049300156E+02 0.  0.
        -11    1    3    3    0    0  0.80751285400E+02 -0.20674779857E+02 -0.12375588707E+03  0.14921037564E+03  0.00000000000E+00 0.  1.
         11    1    3    3    0    0  0.71163594691E+02  0.39002346567E+02 -0.29129976706E+03  0.30239212049E+03  0.00000000000E+00 0. -1.
        -13    1    4    4    0    0 -0.70221845638E+02  0.32835021113E+02 -0.46669752451E+03  0.47309177291E+03  0.00000000000E+00 0.  1.
         13    1    4    4    0    0 -0.68181177071E+02 -0.29977797622E+02 -0.18722754464E+03  0.20149812587E+03  0.00000000000E+00 0. -1.
         21    1    1    2  502  501 -0.13511857382E+02 -0.21184790202E+02  0.40990803649E+02  0.48079222223E+02  0.00000000000E+00 0.  1.
<scales pt_clust_5="13000.00000" pt_clust_6="13000.00000" pt_clust_7="13000.00000" pt_clust_8="13000.00000" pt_clust_9="25.12699"></scales>
<clustering>
<clus scale="   25.127">  1  9  2 -1</clus>
<clus scale="   90.882">  5  6 -1 -1</clus>
<clus scale="   91.049">  7  8 -1 -1</clus>
<clus scale="  169.743">  1  5  2 -1</clus>
<clus scale="  169.833">  2  5  1 -1</clus>
</clustering>
</event>
<event>
 9    1  0.1713970E-005  0.2190324E+03  0.7546771E-02  0.1134619E+00
          1   -1    0    0  502    0  0.00000000000E+00  0.00000000000E+00  0.85649955061E+03  0.85649955061E+03  0.00000000000E+00 0. -1.
         -1   -1    0    0    0  501 -0.00000000000E+00 -0.00000000000E+00 -0.29972584581E+03  0.29972584581E+03  0.00000000000E+00 0.  1.
         23    2    1    2    0    0  0.14243647469E+02 -0.14103207608E+03 -0.13231872253E+02  0.16903887382E+03  0.91137974748E+02 0.  0.
         23    2    1    2    0    0 -0.43033441289E+02  0.20552944721E+03  0.75513028260E+03  0.78904536152E+03  0.90975865439E+02 0.  0.
        -13    1    3    3    0    0  0.39950092574E+02 -0.13530589883E+03 -0.18162671588E+02  0.14224478477E+03  0.00000000000E+00 0.  1.
         13    1    3    3    0    0 -0.25706445104E+02 -0.57261772502E+01  0.49307993356E+01  0.26794089048E+02  0.00000000000E+00 0. -1.
        -13    1    4    4    0    0 -0.34951907930E+01  0.15751278642E+03  0.62873288223E+03  0.64817245502E+03  0.00000000000E+00 0. -1.
         13    1    4    4    0    0 -0.39538250496E+02  0.48016660787E+02  0.12639740037E+03  0.14087290650E+03  0.00000000000E+00 0.  1.
         21    1    1    2  502  501  0.28789793820E+02 -0.64497371132E+02 -0.18512470555E+03  0.19814116109E+03  0.00000000000E+00 0.  1.
<scales pt_clust_5="13000.00000" pt_clust_6="13000.00000" pt_clust_7="13000.00000" pt_clust_8="13000.00000" pt_clust_9="70.63118"></scales>
<clustering>
<clus scale="   70.631">  2  9  1 -1</clus>
<clus scale="   90.976">  7  8 -1 -1</clus>
<clus scale="   91.138">  5  6 -1 -1</clus>
<clus scale="  218.965">  1  7  2 -1</clus>
<clus scale="  218.965">  1  5  2 -1</clus>
</clustering>
</event>
<event>
 9    1  0.1713970E-005  0.9536832E+02  0.7546771E-02  0.1290449E+00
         -1   -1    0    0    0  501 -0.00000000000E+00  0.00000000000E+00  0.11226855724E+03  0.11226855724E+03  0.00000000000E+00 0.  1.
          1   -1    0    0  502    0  0.00000000000E+00 -0.00000000000E+00 -0.13679409032E+03  0.13679409032E+03  0.00000000000E+00 0. -1.
         23    2    1    2    0    0  0.60874210306E+01  0.38716141084E+02 -0.38713925456E+00  0.99755050368E+02  0.91732894437E+02 0.  0.
         23    2    1    2    0    0  0.22755999220E+01 -0.19411954075E+02 -0.57505559146E+02  0.10986194499E+03  0.91546465302E+02 0.  0.
        -11    1    4    4    0    0  0.10251394978E+02  0.18852711837E+02  0.15893400262E+02  0.26704232145E+02  0.00000000000E+00 0. -1.
         11    1    4    4    0    0 -0.79757950557E+01 -0.38264665912E+02 -0.73398959408E+02  0.83157712849E+02  0.00000000000E+00 0.  1.
        -11    1    3    3    0    0 -0.42363231669E+02  0.25376629616E+02  0.22385231417E+01  0.49433062964E+02  0.00000000000E+00 0. -1.
         11    1    3    3    0    0  0.48450652700E+02  0.13339511469E+02 -0.26256623962E+01  0.50321987404E+02  0.00000000000E+00 0.  1.
         21    1    1    2  502  501 -0.83630209526E+01 -0.19304187010E+02  0.33367165319E+02  0.39445652194E+02  0.00000000000E+00 0.  1.
<scales pt_clust_5="13000.00000" pt_clust_6="13000.00000" pt_clust_7="13000.00000" pt_clust_8="13000.00000" pt_clust_9="21.03786"></scales>
<clustering>
<clus scale="   21.038">  1  9  2 -1</clus>
<clus scale="   91.546">  5  6 -1 -1</clus>
<clus scale="   91.733">  7  8 -1 -1</clus>
<clus scale="   95.189">  2  5  1 -1</clus>
<clus scale="   95.189">  2  5  1 -1</clus>
</clustering>
</event>
<event>
 9    1  0.1713970E-005  0.9857896E+02  0.7546771E-02  0.1288876E+00
          1   -1    0    0  502    0  0.00000000000E+00  0.00000000000E+00  0.64611790185E+02  0.64611790185E+02  0.00000000000E+00 0. -1.
         -1   -1    0    0    0  501 -0.00000000000E+00 -0.00000000000E+00 -0.24529741452E+03  0.24529741452E+03  0.00000000000E+00 0.  1.
         23    2    1    2    0    0  0.12194076699E+02 -0.12363685669E+02 -0.44774428750E+02  0.98741070964E+02  0.86275682525E+02 0.  0.
         23    2    1    2    0    0 -0.27777835793E+02 -0.11578433690E+01 -0.32039634888E+02  0.10526730080E+03  0.96341671422E+02 0.  0.
        -13    1    4    4    0    0 -0.49682622218E+02 -0.16468879657E+02  0.12049887969E+02  0.53710210833E+02  0.00000000000E+00 0. -1.
         13    1    4    4    0    0  0.21904786425E+02  0.15311036289E+02 -0.44089522858E+02  0.51557089972E+02  0.00000000000E+00 0.  1.
        -13    1    3    3    0    0  0.43156308134E+02 -0.27501942905E+02 -0.15357935280E+02  0.53429298810E+02  0.00000000000E+00 0.  1.
         13    1    3    3    0    0 -0.30962231435E+02  0.15138257236E+02 -0.29416493470E+02  0.45311772153E+02  0.00000000000E+00 0. -1.
         21    1    1    2  502  501  0.15583759094E+02  0.13521529038E+02 -0.10387156070E+03  0.10590083294E+03  0.00000000000E+00 0.  1.
<scales pt_clust_5="13000.00000" pt_clust_6="13000.00000" pt_clust_7="13000.00000" pt_clust_8="13000.00000" pt_clust_9="20.63214"></scales>
<clustering>
<clus scale="   20.632">  2  9  1 -1</clus>
<clus scale="   86.276">  7  8 -1 -1</clus>
<clus scale="   88.767">  2  7  1 -1</clus>
<clus scale="   96.342">  5  6 -1 -1</clus>
<clus scale="   98.579">  1  5  2 -1</clus>
</clustering>
</event>
<event>
 9    1  0.1713970E-005  0.9819447E+02  0.7546771E-02  0.1284778E+00
         -3   -1    0    0    0  501 -0.00000000000E+00  0.00000000000E+00  0.11966803436E+03  0.11966803436E+03  0.00000000000E+00 0.  1.
          3   -1    0    0  502    0  0.00000000000E+00 -0.00000000000E+00 -0.25973371863E+03  0.25973371863E+03  0.00000000000E+00 0. -1.
         23    2    1    2    0    0  0.35112203898E+02  0.24734816907E+02  0.65653930018E+02  0.12001092796E+03  0.90815782064E+02 0.  0.
         23    2    1    2    0    0  0.15902902201E+02  0.91707513216E+01 -0.14773930322E+03  0.17504721189E+03  0.92073990333E+02 0.  0.
        -11    1    3    3    0    0  0.49293769710E+02  0.44289410874E+02  0.68948949966E+02  0.95631508140E+02  0.00000000000E+00 0.  1.
         11    1    3    3    0    0 -0.14181565811E+02 -0.19554593967E+02 -0.32950199479E+01  0.24379419815E+02  0.00000000000E+00 0. -1.
        -13    1    4    4    0    0  0.28587203205E+02  0.44509094316E+02 -0.10867059027E+03  0.12086184201E+03  0.00000000000E+00 0.  1.
         13    1    4    4    0    0 -0.12684301004E+02 -0.35338342995E+02 -0.39068712949E+02  0.54185369880E+02  0.00000000000E+00 0. -1.
         21    1    1    2  502  501 -0.51015106100E+02 -0.33905568229E+02 -0.57980311070E+02  0.84343613149E+02  0.00000000000E+00 0. -1.
<scales pt_clust_5="13000.00000" pt_clust_6="13000.00000" pt_clust_7="13000.00000" pt_clust_8="13000.00000" pt_clust_9="61.25462"></scales>
<clustering>
<clus scale="   61.255">  2  9  1 -1</clus>
<clus scale="   90.816">  5  6 -1 -1</clus>
<clus scale="   92.074">  7  8 -1 -1</clus>
<clus scale="   97.016">  1  5  2 -1</clus>
<clus scale="   61.255">  2  5  1 -1</clus>
</clustering>
</event>
<event>
 9    1  0.1713970E-005  0.1120967E+03  0.7546771E-02  0.1257884E+00
         -1   -1    0    0    0  501 -0.00000000000E+00  0.00000000000E+00  0.33805405347E+03  0.33805405347E+03  0.00000000000E+00 0.  1.
          1   -1    0    0  502    0  0.00000000000E+00 -0.00000000000E+00 -0.65865079266E+03  0.65865079266E+03  0.00000000000E+00 0. -1.
         23    2    1    2    0    0  0.11177459555E+03 -0.29951690857E+02 -0.17884999405E+03  0.23087731697E+03  0.89030057411E+02 0.  0.
         23    2    1    2    0    0 -0.46965504174E+02  0.21878629602E+02 -0.44410022464E+03  0.45650080997E+03  0.92106172248E+02 0.  0.
        -13    1    4    4    0    0 -0.60617665003E+02 -0.18039248759E+02 -0.28144088704E+03  0.28845950964E+03  0.00000000000E+00 0.  1.
         13    1    4    4    0    0  0.13652160829E+02  0.39917878361E+02 -0.16265933760E+03  0.16804130033E+03  0.00000000000E+00 0. -1.
        -13    1    3    3    0    0  0.10549220477E+02 -0.40585360147E+02 -0.34778668363E+02  0.54479475806E+02  0.00000000000E+00 0.  1.
         13    1    3    3    0    0  0.10122537508E+03  0.10633669290E+02 -0.14407132568E+03  0.17639784116E+03  0.00000000000E+00 0. -1.
         21    1    1    2  502  501 -0.64809091378E+02  0.80730612557E+01  0.30235347950E+03  0.30932671920E+03  0.00000000000E+00 0.  1.
<scales pt_clust_5="13000.00000" pt_clust_6="13000.00000" pt_clust_7="13000.00000" pt_clust_8="13000.00000" pt_clust_9="65.30997"></scales>
<clustering>
<clus scale="   65.310">  1  9  2 -1</clus>
<clus scale="   89.030">  7  8 -1 -1</clus>
<clus scale="   92.106">  5  6 -1 -1</clus>
<clus scale="  109.583">  1  7  2 -1</clus>
<clus scale="  112.097">  2  5  1 -1</clus>
</clustering>
</event>
<event>
 9    1  0.1713970E-005  0.1174532E+03  0.7546771E-02  0.1247446E+00
         -2   -1    0    0    0  501 -0.00000000000E+00  0.00000000000E+00  0.38387036781E+03  0.38387036781E+03  0.00000000000E+00 0.  1.
          2   -1    0    0  502    0  0.00000000000E+00 -0.00000000000E+00 -0.29488373022E+03  0.29488373022E+03  0.00000000000E+00 0. -1.
         23    2    1    2    0    0  0.22778612779E+02 -0.33154818991E+02 -0.23599864571E+02  0.10208509524E+03  0.90809172662E+02 0.  0.
         23    2    1    2    0    0  0.36154810660E+02  0.92336905992E+02 -0.20667558936E+03  0.24666301663E+03  0.91074529891E+02 0.  0.
        -13    1    3    3    0    0 -0.30390908334E+02  0.86997544989E+01 -0.88895030907E+01  0.32837726823E+02  0.00000000000E+00 0.  1.
         13    1    3    3    0    0  0.53169521113E+02 -0.41854573489E+02 -0.14710361480E+02  0.69247368414E+02  0.00000000000E+00 0. -1.
        -13    1    4    4    0    0 -0.31513452295E+01  0.60139398517E+02 -0.39705660478E+02  0.72133332827E+02  0.00000000000E+00 0.  1.
         13    1    4    4    0    0  0.39306155889E+02  0.32197507475E+02 -0.16696992888E+03  0.17452968380E+03  0.00000000000E+00 0. -1.
         21    1    1    2  502  501 -0.58933423439E+02 -0.59182087001E+02  0.31926209152E+03  0.33000598616E+03  0.00000000000E+00 0.  1.
<scales pt_clust_5="13000.00000" pt_clust_6="13000.00000" pt_clust_7="13000.00000" pt_clust_8="13000.00000" pt_clust_9="83.52046"></scales>
<clustering>
<clus scale="   83.520">  1  9  2 -1</clus>
<clus scale="   90.809">  5  6 -1 -1</clus>
<clus scale="   91.075">  7  8 -1 -1</clus>
<clus scale="  117.248">  1  5  2 -1</clus>
<clus scale="  117.453">  2  5  1 -1</clus>
</clustering>
</event>
<event>
 9    1  0.1713970E-005  0.1049957E+03  0.7546771E-02  0.1271346E+00
         -2   -1    0    0    0  501 -0.00000000000E+00  0.00000000000E+00  0.85580635275E+02  0.85580635275E+02  0.00000000000E+00 0.  1.
          2   -1    0    0  502    0  0.00000000000E+00 -0.00000000000E+00 -0.17781707274E+03  0.17781707274E+03  0.00000000000E+00 0. -1.
         23    2    1    2    0    0 -0.60718888313E+02  0.61245164449E+01 -0.44799146589E+02  0.11786409800E+03  0.90336531715E+02 0.  0.
         23    2    1    2    0    0  0.38970825574E+02 -0.11206336032E+01 -0.62400777077E+02  0.11866498527E+03  0.93099627738E+02 0.  0.
        -11    1    3    3    0    0 -0.24868638725E+02  0.37433601547E+02 -0.53081938190E+02  0.69551533979E+02  0.00000000000E+00 0. -1.
         11    1    3    3    0    0 -0.35850249588E+02 -0.31309085102E+02  0.82827916011E+01  0.48312564020E+02  0.00000000000E+00 0.  1.
        -13    1    4    4    0    0 -0.26702708237E+02 -0.16970291697E+02 -0.30525052986E+02  0.43963670084E+02  0.00000000000E+00 0.  1.
         13    1    4    4    0    0  0.65673533811E+02  0.15849658094E+02 -0.31875724091E+02  0.74701315191E+02  0.00000000000E+00 0. -1.
         21    1    1    2  502  501  0.21748062739E+02 -0.50038828417E+01  0.14963486199E+02  0.26868624744E+02  0.00000000000E+00 0.  1.
<scales pt_clust_5="13000.00000" pt_clust_6="13000.00000" pt_clust_7="13000.00000" pt_clust_8="13000.00000" pt_clust_9="22.31630"></scales>
<clustering>
<clus scale="   22.316">  1  9  2 -1</clus>
<clus scale="   90.337">  5  6 -1 -1</clus>
<clus scale="   93.100">  7  8 -1 -1</clus>
<clus scale="  102.554">  1  5  2 -1</clus>
<clus scale="  104.996">  2  5  1 -1</clus>
</clustering>
</event>
<event>
 9    1  0.1713970E-005  0.2874592E+03  0.7546771E-02  0.1092310E+00
         -1   -1    0    0    0  501 -0.00000000000E+00  0.00000000000E+00  0.62243722037E+03  0.62243722037E+03  0.00000000000E+00 0.  1.
          1   -1    0    0  502    0  0.00000000000E+00 -0.00000000000E+00 -0.93520980314E+03  0.93520980314E+03  0.00000000000E+00 0. -1.
         23    2    1    2    0    0  0.12251677127E+02 -0.19646860277E+03 -0.15270544061E+03  0.26597750864E+03  0.93140045314E+02 0.  0.
         23    2    1    2    0    0  0.58545698189E+02  0.32180613863E+03 -0.67657988034E+03  0.75547255951E+03  0.77405839982E+02 0.  0.
        -13    1    4    4    0    0  0.33838323985E+02  0.11270129178E+03 -0.32520071262E+03  0.34583538979E+03  0.00000000000E+00 0. -1.
         13    1    4    4    0    0  0.24707374204E+02  0.20910484686E+03 -0.35137916771E+03  0.40963716973E+03  0.00000000000E+00 0.  1.
        -13    1    3    3    0    0 -0.33868649351E+02 -0.80972316628E+02 -0.34215831226E+02  0.94203633557E+02  0.00000000000E+00 0.  1.
         13    1    3    3    0    0  0.46120326479E+02 -0.11549628614E+03 -0.11848960939E+03  0.17177387508E+03  0.00000000000E+00 0. -1.
         21    1    1    2  502  501 -0.70797375316E+02 -0.12533753586E+03  0.51651273818E+03  0.53619695537E+03  0.00000000000E+00 0.  1.
<scales pt_clust_5="13000.00000" pt_clust_6="13000.00000" pt_clust_7="13000.00000" pt_clust_8="13000.00000" pt_clust_9="143.95057"></scales>
<clustering>
<clus scale="   77.406">  5  6 -1 -1</clus>
<clus scale="   93.140">  7  8 -1 -1</clus>
<clus scale="  143.951">  1  9  2 -1</clus>
<clus scale="  282.753">  2  5  1 -1</clus>
<clus scale="  282.753">  2  5  1 -1</clus>
</clustering>
</event>
<event>
 9    1  0.1713970E-005  0.1266374E+03  0.7546771E-02  0.1233748E+00
         -1   -1    0    0    0  501 -0.00000000000E+00  0.00000000000E+00  0.22959368996E+03  0.22959368996E+03  0.00000000000E+00 0.  1.
          1   -1    0    0  502    0  0.00000000000E+00 -0.00000000000E+00 -0.15132514615E+03  0.15132514615E+03  0.00000000000E+00 0. -1.
         23    2    1    2    0    0  0.34319163857E+02  0.56185928522E+02  0.88079113822E+02  0.14288999008E+03  0.91241193564E+02 0.  0.
         23    2    1    2    0    0 -0.42149768998E+02 -0.77813560872E+02 -0.87619401295E+02  0.15689138807E+03  0.95426384633E+02 0.  0.
        -13    1    4    4    0    0 -0.62622728319E+02 -0.21749225277E+02 -0.26294916370E+02  0.71316600656E+02  0.00000000000E+00 0.  1.
         13    1    4    4    0    0  0.20472959321E+02 -0.56064335595E+02 -0.61324484926E+02  0.85574787411E+02  0.00000000000E+00 0. -1.
        -13    1    3    3    0    0  0.59556315176E+02  0.61545969486E+02  0.75568274600E+02  0.11421657132E+03  0.00000000000E+00 0.  1.
         13    1    3    3    0    0 -0.25237151319E+02 -0.53600409636E+01  0.12510839222E+02  0.28673418768E+02  0.00000000000E+00 0. -1.
         21    1    1    2  502  501  0.78306051413E+01  0.21627632350E+02  0.77808831285E+02  0.81137457958E+02  0.00000000000E+00 0.  1.
<scales pt_clust_5="13000.00000" pt_clust_6="13000.00000" pt_clust_7="13000.00000" pt_clust_8="13000.00000" pt_clust_9="23.00158"></scales>
<clustering>
<clus scale="   23.002">  1  9  2 -1</clus>
<clus scale="   91.241">  7  8 -1 -1</clus>
<clus scale="   95.426">  5  6 -1 -1</clus>
<clus scale="  123.514">  1  7  2 -1</clus>
<clus scale="  126.637">  2  5  1 -1</clus>
</clustering>
</event>
<event>
 9    1  0.1713970E-005  0.1549684E+03  0.7546771E-02  0.1194599E+00
         -2   -1    0    0    0  501 -0.00000000000E+00  0.00000000000E+00  0.99737537233E+02  0.99737537233E+02  0.00000000000E+00 0.  1.
          2   -1    0    0  502    0  0.00000000000E+00 -0.00000000000E+00 -0.47440786035E+03  0.47440786035E+03  0.00000000000E+00 0. -1.
         23    2    1    2    0    0  0.10830419055E+03 -0.78788197647E+02 -0.21785343315E+03  0.27134510405E+03  0.90723036629E+02 0.  0.
         23    2    1    2    0    0 -0.76046337370E+02  0.92590761895E+02 -0.19821491400E+03  0.24853357937E+03  0.90131533468E+02 0.  0.
        -11    1    4    4    0    0 -0.77140573864E+02  0.57779987300E+02 -0.79880140246E+02  0.12517999790E+03  0.00000000000E+00 0.  1.
         11    1    4    4    0    0  0.10942364935E+01  0.34810774595E+02 -0.11833477376E+03  0.12335358147E+03  0.00000000000E+00 0. -1.
        -13    1    3    3    0    0  0.21921510496E+02 -0.70559944153E+02 -0.11608844137E+03  0.13760735649E+03  0.00000000000E+00 0.  1.
         13    1    3    3    0    0  0.86382680051E+02 -0.82282534940E+01 -0.10176499179E+03  0.13373774756E+03  0.00000000000E+00 0. -1.
         21    1    1    2  502  501 -0.32257853176E+02 -0.13802564248E+02  0.41398024043E+02  0.54266714163E+02  0.00000000000E+00 0.  1.
<scales pt_clust_5="13000.00000" pt_clust_6="13000.00000" pt_clust_7="13000.00000" pt_clust_8="13000.00000" pt_clust_9="35.08675"></scales>
<clustering>
<clus scale="   35.087">  1  9  2 -1</clus>
<clus scale="   90.132">  5  6 -1 -1</clus>
<clus scale="   90.723">  7  8 -1 -1</clus>
<clus scale="  154.623">  2  5  1 -1</clus>
<clus scale="  154.623">  2  5  1 -1</clus>
</clustering>
</event>
<event>
 9    1  0.1713970E-005  0.1225446E+03  0.7546771E-02  0.1239498E+00
         -2   -1    0    0    0  501 -0.00000000000E+00  0.00000000000E+00  0.10628460192E+03  0.10628460192E+03  0.00000000000E+00 0.  1.
          2   -1    0    0  502    0  0.00000000000E+00 -0.00000000000E+00 -0.23013808040E+03  0.23013808040E+03  0.00000000000E+00 0. -1.
         23    2    1    2    0    0 -0.84235627154E+01  0.65918494921E+02  0.14734805640E+02  0.11452465212E+03  0.92100906966E+02 0.  0.
         23    2    1    2    0    0  0.17327854916E+02 -0.84056000035E+02 -0.15283127040E+03  0.19717722581E+03  0.90309442840E+02 0.  0.
        -11    1    4    4    0    0 -0.10791833095E+02 -0.89056189575E+02 -0.85015042167E+02  0.12359217596E+03  0.00000000000E+00 0. -1.
         11    1    4    4    0    0  0.28119688010E+02  0.50001895401E+01 -0.67816228235E+02  0.73585049849E+02  0.00000000000E+00 0.  1.
        -13    1    3    3    0    0 -0.14881404692E+02 -0.17610619644E+02 -0.12757884519E+02  0.26350592920E+02  0.00000000000E+00 0. -1.
         13    1    3    3    0    0  0.64578419762E+01  0.83529114566E+02  0.27492690159E+02  0.88174059197E+02  0.00000000000E+00 0.  1.
         21    1    1    2  502  501 -0.89042922002E+01  0.18137505113E+02  0.14242986284E+02  0.24720804388E+02  0.00000000000E+00 0. -1.
<scales pt_clust_5="13000.00000" pt_clust_6="13000.00000" pt_clust_7="13000.00000" pt_clust_8="13000.00000" pt_clust_9="20.20533"></scales>
<clustering>
<clus scale="   20.205">  1  9  2 -1</clus>
<clus scale="   90.309">  5  6 -1 -1</clus>
<clus scale="   92.101">  7  8 -1 -1</clus>
<clus scale="  121.204">  2  5  1 -1</clus>
<clus scale="  121.204">  2  5  1 -1</clus>
</clustering>
</event>
<event>
 9    1  0.1713970E-005  0.1340913E+03  0.7546771E-02  0.1221616E+00
         -2   -1    0    0    0  501 -0.00000000000E+00  0.00000000000E+00  0.77375085301E+02  0.77375085301E+02  0.00000000000E+00 0.  1.
          2   -1    0    0  502    0  0.00000000000E+00 -0.00000000000E+00 -0.65212897662E+03  0.65212897662E+03  0.00000000000E+00 0. -1.
         23    2    1    2    0    0  0.72014035387E+02 -0.63334160526E+02 -0.63191556315E+01  0.13259839898E+03  0.91351882859E+02 0.  0.
         23    2    1    2    0    0 -0.10026653667E+03  0.54696952295E+02 -0.51925621180E+03  0.53953552779E+03  0.91795627865E+02 0.  0.
        -11    1    4    4    0    0 -0.26953862622E+02  0.66364340741E+02 -0.28074508039E+03  0.28973873852E+03  0.00000000000E+00 0.  1.
         11    1    4    4    0    0 -0.73312674049E+02 -0.11667388447E+02 -0.23851113141E+03  0.24979678928E+03  0.00000000000E+00 0. -1.
        -11    1    3    3    0    0  0.27498720518E+02 -0.41288125281E+01 -0.42006493400E+02  0.50376306046E+02  0.00000000000E+00 0. -1.
         11    1    3    3    0    0  0.44515314869E+02 -0.59205347998E+02  0.35687337769E+02  0.82222092934E+02  0.00000000000E+00 0.  1.
         21    1    1    2  502  501  0.28252501284E+02  0.86372082318E+01 -0.49178523888E+02  0.57370135146E+02  0.00000000000E+00 0.  1.
<scales pt_clust_5="13000.00000" pt_clust_6="13000.00000" pt_clust_7="13000.00000" pt_clust_8="13000.00000" pt_clust_9="29.54328"></scales>
<clustering>
<clus scale="   29.543">  2  9  1 -1</clus>
<clus scale="   91.352">  7  8 -1 -1</clus>
<clus scale="   91.796">  5  6 -1 -1</clus>
<clus scale="  133.788">  1  7  2 -1</clus>
<clus scale="   29.543">  2  5  1 -1</clus>
</clustering>
</event>
<event>
 9    1  0.1713970E-005  0.2991382E+03  0.7546771E-02  0.1090266E+00
          1   -1    0    0  502    0  0.00000000000E+00  0.00000000000E+00  0.48850750378E+03  0.48850750378E+03  0.00000000000E+00 0. -1.
         -1   -1    0    0    0  501 -0.00000000000E+00 -0.00000000000E+00 -0.68429751551E+03  0.68429751551E+03  0.00000000000E+00 0.  1.
         23    2    1    2    0    0  0.67536888191E+02 -0.24004051588E+03 -0.54670311175E+02  0.27039396364E+03  0.89125597411E+02 0.  0.
         23    2    1    2    0    0 -0.21638865455E+03 -0.16162150693E+03  0.20521805805E+03  0.35155801540E+03  0.92374376988E+02 0.  0.
        -11    1    4    4    0    0 -0.14104938932E+03 -0.10586462757E+03  0.18516106424E+03  0.25570856323E+03  0.00000000000E+00 0.  1.
         11    1    4    4    0    0 -0.75339265227E+02 -0.55756879359E+02  0.20056993809E+02  0.95849452171E+02  0.00000000000E+00 0. -1.
        -13    1    3    3    0    0 -0.66992287183E+00 -0.25012116474E+02 -0.36263004023E+02  0.44057465065E+02  0.00000000000E+00 0.  1.
         13    1    3    3    0    0  0.68206811063E+02 -0.21502839941E+03 -0.18407307152E+02  0.22633649857E+03  0.00000000000E+00 0. -1.
         21    1    1    2  502  501  0.14885176636E+03  0.40166202281E+03 -0.34633775861E+03  0.55085304025E+03  0.00000000000E+00 0.  1.
<scales pt_clust_5="13000.00000" pt_clust_6="13000.00000" pt_clust_7="13000.00000" pt_clust_8="13000.00000" pt_clust_9="284.51820"></scales>
<clustering>
<clus scale="   89.126">  7  8 -1 -1</clus>
<clus scale="   92.374">  5  6 -1 -1</clus>
<clus scale="  264.809">  2  7  1 -1</clus>
<clus scale="  284.518">  2  9  1 -1</clus>
<clus scale="  299.138">  1  5  2 -1</clus>
</clustering>
</event>
<event>
 9    1  0.1713970E-005  0.1068271E+03  0.7546771E-02  0.1267401E+00
          2   -1    0    0  502    0  0.00000000000E+00  0.00000000000E+00  0.23267248319E+03  0.23267248319E+03  0.00000000000E+00 0. -1.
         -2   -1    0    0    0  501 -0.00000000000E+00 -0.00000000000E+00 -0.73675649184E+02  0.73675649184E+02  0.00000000000E+00 0.  1.
         23    2    1    2    0    0  0.35619923593E+02 -0.98879131198E+01  0.44887518440E+02  0.10956450537E+03  0.92859796162E+02 0.  0.
         23    2    1    2    0    0 -0.59802466389E+02  0.19855950996E+02  0.12635220190E+03  0.16790378246E+03  0.90863675147E+02 0.  0.
        -11    1    4    4    0    0 -0.56312633299E+02 -0.27696398612E+02  0.67601429148E+02  0.92239668191E+02  0.00000000000E+00 0. -1.
         11    1    4    4    0    0 -0.34898330899E+01  0.47552349608E+02  0.58750772755E+02  0.75664114265E+02  0.00000000000E+00 0.  1.
        -11    1    3    3    0    0  0.41597581062E+02  0.28624065380E+02  0.50211351782E+00  0.50497009684E+02  0.00000000000E+00 0.  1.
         11    1    3    3    0    0 -0.59776574688E+01 -0.38511978500E+02  0.44385404922E+02  0.59067495688E+02  0.00000000000E+00 0. -1.
         21    1    1    2  502  501  0.24182542796E+02 -0.99680378763E+01 -0.12242886335E+02  0.28879844546E+02  0.00000000000E+00 0. -1.
<scales pt_clust_5="13000.00000" pt_clust_6="13000.00000" pt_clust_7="13000.00000" pt_clust_8="13000.00000" pt_clust_9="26.15640"></scales>
<clustering>
<clus scale="   26.156">  2  9  1 -1</clus>
<clus scale="   90.864">  5  6 -1 -1</clus>
<clus scale="   92.860">  7  8 -1 -1</clus>
<clus scale="  105.097">  1  5  2 -1</clus>
<clus scale="  105.097">  1  5  2 -1</clus>
</clustering>
</event>
<event>
 9    1  0.1713970E-005  0.9685715E+02  0.7546771E-02  0.1290908E+00
         -1   -1    0    0    0  501 -0.00000000000E+00  0.00000000000E+00  0.21097919759E+03  0.21097919759E+03  0.00000000000E+00 0.  1.
          1   -1    0    0  502    0  0.00000000000E+00 -0.00000000000E+00 -0.81522469959E+02  0.81522469959E+02  0.00000000000E+00 0. -1.
         23    2    1    2    0    0 -0.19668023749E+02 -0.11510980648E+01  0.24477268674E+02  0.95252098969E+02  0.89920350818E+02 0.  0.
         23    2    1    2    0    0 -0.73393092589E+01  0.14335126225E+01  0.88429011354E+01  0.97391101017E+02  0.96700099472E+02 0.  0.
        -13    1    4    4    0    0 -0.99658207820E+01 -0.24324623679E+02  0.45478886041E+02  0.52529362993E+02  0.00000000000E+00 0.  1.
         13    1    4    4    0    0  0.26265115230E+01  0.25758136301E+02 -0.36635984906E+02  0.44861738023E+02  0.00000000000E+00 0. -1.
        -13    1    3    3    0    0  0.14800559506E+02 -0.34974834091E+02  0.27464255935E+02  0.46867696076E+02  0.00000000000E+00 0.  1.
         13    1    3    3    0    0 -0.34468583256E+02  0.33823736026E+02 -0.29869872609E+01  0.48384402893E+02  0.00000000000E+00 0. -1.
         21    1    1    2  502  501  0.27007333008E+02 -0.28241455774E+00  0.96136557821E+02  0.99858467563E+02  0.00000000000E+00 0.  1.
<scales pt_clust_5="13000.00000" pt_clust_6="13000.00000" pt_clust_7="13000.00000" pt_clust_8="13000.00000" pt_clust_9="27.00881"></scales>
<clustering>
<clus scale="   27.009">  1  9  2 -1</clus>
<clus scale="   89.920">  7  8 -1 -1</clus>
<clus scale="   90.089">  1  7  2 -1</clus>
<clus scale="   96.700">  5  6 -1 -1</clus>
<clus scale="   96.857">  2  5  1 -1</clus>
</clustering>
</event>
<event>
 9    1  0.1713970E-005  0.8889029E+02  0.7546771E-02  0.1322181E+00
         -2   -1    0    0    0  501 -0.00000000000E+00  0.00000000000E+00  0.33112081979E+02  0.33112081979E+02  0.00000000000E+00 0.  1.
          2   -1    0    0  502    0  0.00000000000E+00 -0.00000000000E+00 -0.50875899458E+03  0.50875899458E+03  0.00000000000E+00 0. -1.
         23    2    1    2    0    0  0.51398602955E+01 -0.22672121095E+02 -0.34687634762E+02  0.77698573192E+02  0.65523988217E+02 0.  0.
         23    2    1    2    0    0  0.92739620133E+01 -0.60417266646E+01 -0.40977645012E+03  0.41939960898E+03  0.88638502424E+02 0.  0.
        -11    1    3    3    0    0 -0.21232926012E+02  0.41106948616E+01  0.58618364312E+01  0.22407500656E+02  0.00000000000E+00 0.  1.
         11    1    3    3    0    0  0.26372786308E+02 -0.26782815956E+02 -0.40549471193E+02  0.55291072536E+02  0.00000000000E+00 0. -1.
        -13    1    4    4    0    0  0.24077119178E+02  0.36625712460E+02 -0.18374293702E+03  0.18889843140E+03  0.00000000000E+00 0.  1.
         13    1    4    4    0    0 -0.14803157164E+02 -0.42667439125E+02 -0.22603351310E+03  0.23050117758E+03  0.00000000000E+00 0. -1.
         21    1    1    2  502  501 -0.14413822309E+02  0.28713847759E+02 -0.31182827717E+02  0.44772894379E+02  0.00000000000E+00 0.  1.
<scales pt_clust_5="13000.00000" pt_clust_6="13000.00000" pt_clust_7="13000.00000" pt_clust_8="13000.00000" pt_clust_9="32.12854"></scales>
<clustering>
<clus scale="   32.129">  1  9  2 -1</clus>
<clus scale="   65.524">  5  6 -1 -1</clus>
<clus scale="   65.864">  1  5  2 -1</clus>
<clus scale="   88.639">  7  8 -1 -1</clus>
<clus scale="   88.890">  2  5  1 -1</clus>
</clustering>
</event>
<event>
 9    1  0.1713970E-005  0.1049837E+03  0.7546771E-02  0.1270188E+00
          2   -1    0    0  502    0  0.00000000000E+00  0.00000000000E+00  0.42255388894E+02  0.42255388894E+02  0.00000000000E+00 0. -1.
         -2   -1    0    0    0  501 -0.00000000000E+00 -0.00000000000E+00 -0.55856649903E+03  0.55856649903E+03  0.00000000000E+00 0.  1.
         23    2    1    2    0    0 -0.31987834320E+02  0.17186765134E+02 -0.41980923078E+03  0.43091819705E+03  0.90178134020E+02 0.  0.
         23    2    1    2    0    0  0.50587327190E+02 -0.26174797228E+02 -0.47692389057E+02  0.11690282108E+03  0.90263547020E+02 0.  0.
        -11    1    3    3    0    0 -0.27786821343E+02 -0.34814018231E+02 -0.21530117851E+03  0.21986068492E+03  0.00000000000E+00 0. -1.
         11    1    3    3    0    0 -0.42010129772E+01  0.52000783365E+02 -0.20450805227E+03  0.21105751212E+03  0.00000000000E+00 0.  1.
        -13    1    4    4    0    0  0.44849536099E+02 -0.58593397517E+02 -0.31890994839E+02  0.80384716661E+02  0.00000000000E+00 0. -1.
         13    1    4    4    0    0  0.57377910911E+01  0.32418600288E+02 -0.15801394218E+02  0.36518104421E+02  0.00000000000E+00 0.  1.
         21    1    1    2  502  501 -0.18599492870E+02  0.89880320941E+01 -0.48809490293E+02  0.53000869791E+02  0.00000000000E+00 0.  1.
<scales pt_clust_5="13000.00000" pt_clust_6="13000.00000" pt_clust_7="13000.00000" pt_clust_8="13000.00000" pt_clust_9="20.65734"></scales>
<clustering>
<clus scale="   20.657">  2  9  1 -1</clus>
<clus scale="   90.178">  5  6 -1 -1</clus>
<clus scale="   90.264">  7  8 -1 -1</clus>
<clus scale="  104.910">  2  5  1 -1</clus>
<clus scale="  104.984">  1  5  2 -1</clus>
</clustering>
</event>
<event>
 9    1  0.1713970E-005  0.9338343E+02  0.7546771E-02  0.1295199E+00
          2   -1    0    0  502    0  0.00000000000E+00  0.00000000000E+00  0.44927734311E+02  0.44927734311E+02  0.00000000000E+00 0. -1.
         -2   -1    0    0    0  501 -0.00000000000E+00 -0.00000000000E+00 -0.33095759235E+03  0.33095759235E+03  0.00000000000E+00 0.  1.
         23    2    1    2    0    0  0.28597864732E+02 -0.12497361737E+02 -0.19948432712E+03  0.22172949986E+03  0.91629429906E+02 0.  0.
         23    2    1    2    0    0 -0.51229627527E+01  0.14953283847E+02 -0.37474219212E+02  0.99703129813E+02  0.91030497878E+02 0.  0.
        -11    1    3    3    0    0 -0.21865032242E+02 -0.33687457252E+02 -0.10666731397E+03  0.11397736740E+03  0.00000000000E+00 0.  1.
         11    1    3    3    0    0  0.50462896974E+02  0.21190095515E+02 -0.92817013152E+02  0.10775213246E+03  0.00000000000E+00 0. -1.
        -13    1    4    4    0    0  0.34852299402E+02 -0.18908308080E+02 -0.20471749030E+02  0.44623977819E+02  0.00000000000E+00 0. -1.
         13    1    4    4    0    0 -0.39975262154E+02  0.33861591927E+02 -0.17002470182E+02  0.55079151994E+02  0.00000000000E+00 0.  1.
         21    1    1    2  502  501 -0.23474901980E+02 -0.24559221101E+01 -0.49071311712E+02  0.54452696990E+02  0.00000000000E+00 0.  1.
<scales pt_clust_5="13000.00000" pt_clust_6="13000.00000" pt_clust_7="13000.00000" pt_clust_8="13000.00000" pt_clust_9="23.60302"></scales>
<clustering>
<clus scale="   23.603">  2  9  1 -1</clus>
<clus scale="   91.030">  7  8 -1 -1</clus>
<clus scale="   91.629">  5  6 -1 -1</clus>
<clus scale="   92.796">  1  7  2 -1</clus>
<clus scale="   92.796">  1  5  2 -1</clus>
</clustering>
</event>
<event>
 9    1  0.1713970E-005  0.1091510E+03  0.7546771E-02  0.1264753E+00
         -1   -1    0    0    0  501 -0.00000000000E+00  0.00000000000E+00  0.92808906535E+02  0.92808906535E+02  0.00000000000E+00 0.  1.
          1   -1    0    0  502    0  0.00000000000E+00 -0.00000000000E+00 -0.17019298061E+03  0.17019298061E+03  0.00000000000E+00 0. -1.
         23    2    1    2    0    0 -0.38714789064E+02  0.23298416147E+02 -0.12459719866E+02  0.96489929310E+02  0.84341038362E+02 0.  0.
         23    2    1    2    0    0  0.65838632387E+02 -0.29466265418E+02 -0.73538363655E+02  0.13739243861E+03  0.90916472361E+02 0.  0.
        -11    1    3    3    0    0 -0.34299260009E+02  0.52089700984E+02 -0.21534489298E+02  0.65981136813E+02  0.00000000000E+00 0. -1.
         11    1    3    3    0    0 -0.44155290550E+01 -0.28791284837E+02  0.90747694321E+01  0.30508792497E+02  0.00000000000E+00 0.  1.
        -11    1    4    4    0    0  0.84772280485E+02 -0.52325291519E+01 -0.49044108364E+02  0.98076722341E+02  0.00000000000E+00 0. -1.
         11    1    4    4    0    0 -0.18933648098E+02 -0.24233736266E+02 -0.24494255291E+02  0.39315716272E+02  0.00000000000E+00 0.  1.
         21    1    1    2  502  501 -0.27123843323E+02  0.61678492713E+01  0.86140094434E+01  0.29119519226E+02  0.00000000000E+00 0.  1.
<scales pt_clust_5="13000.00000" pt_clust_6="13000.00000" pt_clust_7="13000.00000" pt_clust_8="13000.00000" pt_clust_9="27.81628"></scales>
<clustering>
<clus scale="   27.816">  1  9  2 -1</clus>
<clus scale="   84.341">  5  6 -1 -1</clus>
<clus scale="   90.916">  7  8 -1 -1</clus>
<clus scale="  103.738">  1  5  2 -1</clus>
<clus scale="  109.151">  2  5  1 -1</clus>
</clustering>
</event>
<event>
 9    1  0.1713970E-005  0.1019029E+03  0.7546771E-02  0.1277350E+00
         -2   -1    0    0    0  501 -0.00000000000E+00  0.00000000000E+00  0.89652870132E+02  0.89652870132E+02  0.00000000000E+00 0.  1.
          2   -1    0    0  502    0  0.00000000000E+00 -0.00000000000E+00 -0.43425875609E+03  0.43425875609E+03  0.00000000000E+00 0. -1.
         23    2    1    2    0    0 -0.42094584332E+02  0.88722657499E-01  0.41270917029E+02  0.10904808090E+03  0.91740031900E+02 0.  0.
         23    2    1    2    0    0  0.68456263398E+02  0.12667676270E+02 -0.35325003502E+03  0.37102098809E+03  0.89578213550E+02 0.  0.
        -11    1    3    3    0    0  0.28290430440E+02 -0.49463536969E+01  0.32800779661E+01  0.28906293101E+02  0.00000000000E+00 0. -1.
         11    1    3    3    0    0 -0.70385014772E+02  0.50350763544E+01  0.37990839063E+02  0.80141787796E+02  0.00000000000E+00 0.  1.
        -13    1    4    4    0    0  0.15936537138E+02 -0.33191439720E+02 -0.67513561652E+02  0.76900753531E+02  0.00000000000E+00 0.  1.
         13    1    4    4    0    0  0.52519726260E+02  0.45859115990E+02 -0.28573647336E+03  0.29412023456E+03  0.00000000000E+00 0. -1.
         21    1    1    2  502  501 -0.26361679066E+02 -0.12756398928E+02 -0.32626767968E+02  0.43842557234E+02  0.00000000000E+00 0.  1.
<scales pt_clust_5="13000.00000" pt_clust_6="13000.00000" pt_clust_7="13000.00000" pt_clust_8="13000.00000" pt_clust_9="29.28590"></scales>
<clustering>
<clus scale="   29.286">  2  9  1 -1</clus>
<clus scale="   89.578">  7  8 -1 -1</clus>
<clus scale="   91.740">  5  6 -1 -1</clus>
<clus scale="   99.961">  2  7  1 -1</clus>
<clus scale="   29.286">  2  5  1 -1</clus>
</clustering>
</event>
<event>
 9    1  0.1713970E-005  0.1076705E+03  0.7546771E-02  0.1265317E+00
         -3   -1    0    0    0  501 -0.00000000000E+00  0.00000000000E+00  0.26155342582E+02  0.26155342582E+02  0.00000000000E+00 0.  1.
          3   -1    0    0  502    0  0.00000000000E+00 -0.00000000000E+00 -0.71197222815E+03  0.71197222815E+03  0.00000000000E+00 0. -1.
         23    2    1    2    0    0  0.14715249248E+02 -0.68250297978E+02 -0.22862297351E+03  0.25584940650E+03  0.91191079912E+02 0.  0.
         23    2    1    2    0    0 -0.42057244961E+02  0.32663058411E+02 -0.35651743732E+03  0.37205208331E+03  0.92099849858E+02 0.  0.
        -11    1    4    4    0    0 -0.23537126372E+02  0.53167081632E+02 -0.32490605988E+03  0.33006769401E+03  0.00000000000E+00 0. -1.
         11    1    4    4    0    0 -0.18520118589E+02 -0.20504023221E+02 -0.31611377447E+02  0.41984389300E+02  0.00000000000E+00 0.  1.
        -11    1    3    3    0    0 -0.84834524646E+01  0.19102761183E+02 -0.72494002917E+02  0.75447100073E+02  0.00000000000E+00 0. -1.
         11    1    3    3    0    0  0.23198701713E+02 -0.87353059160E+02 -0.15612897060E+03  0.18040230643E+03  0.00000000000E+00 0.  1.
         21    1    1    2  502  501  0.27341995713E+02  0.35587239567E+02 -0.10067647474E+03  0.11022608092E+03  0.00000000000E+00 0. -1.
<scales pt_clust_5="13000.00000" pt_clust_6="13000.00000" pt_clust_7="13000.00000" pt_clust_8="13000.00000" pt_clust_9="44.87802"></scales>
<clustering>
<clus scale="   44.878">  1  9  2 -1</clus>
<clus scale="   91.191">  7  8 -1 -1</clus>
<clus scale="   92.100">  5  6 -1 -1</clus>
<clus scale="  106.894">  1  7  2 -1</clus>
<clus scale="  107.670">  2  5  1 -1</clus>
</clustering>
</event>
<event>
 9    1  0.1713970E-005  0.1392101E+03  0.7546771E-02  0.1215031E+00
          1   -1    0    0  502    0  0.00000000000E+00  0.00000000000E+00  0.36213734777E+03  0.36213734777E+03  0.00000000000E+00 0. -1.
         -1   -1    0    0    0  501 -0.00000000000E+00 -0.00000000000E+00 -0.89986262308E+02  0.89986262308E+02  0.00000000000E+00 0.  1.
         23    2    1    2    0    0  0.38169522251E+02 -0.95208523643E+02  0.15012501416E+03  0.20481860546E+03  0.94295099896E+02 0.  0.
         23    2    1    2    0    0 -0.61123448556E+02  0.83914663390E+02  0.15354237470E+03  0.20671299318E+03  0.91527340323E+02 0.  0.
        -13    1    3    3    0    0  0.26005524618E+01 -0.10140147824E+03  0.95344555594E+02  0.13921065671E+03  0.00000000000E+00 0.  1.
         13    1    3    3    0    0  0.35568969789E+02  0.61929545925E+01  0.54780458562E+02  0.65607948747E+02  0.00000000000E+00 0. -1.
        -13    1    4    4    0    0 -0.34260189133E+02  0.10077709558E+03  0.11299478690E+03  0.15523403435E+03  0.00000000000E+00 0. -1.
         13    1    4    4    0    0 -0.26863259423E+02 -0.16862432192E+02  0.40547587803E+02  0.51478958836E+02  0.00000000000E+00 0.  1.
         21    1    1    2  502  501  0.22953926305E+02  0.11293860253E+02 -0.31516303397E+02  0.40592011431E+02  0.00000000000E+00 0. -1.
<scales pt_clust_5="13000.00000" pt_clust_6="13000.00000" pt_clust_7="13000.00000" pt_clust_8="13000.00000" pt_clust_9="25.58191"></scales>
<clustering>
<clus scale="   25.582">  2  9  1 -1</clus>
<clus scale="   91.527">  7  8 -1 -1</clus>
<clus scale="   94.295">  5  6 -1 -1</clus>
<clus scale="  137.350">  1  7  2 -1</clus>
<clus scale="  137.350">  1  5  2 -1</clus>
</clustering>
</event>
<event>
 9    1  0.1713970E-005  0.1335115E+03  0.7546771E-02  0.1234193E+00
         -2   -1    0    0    0  501 -0.00000000000E+00  0.00000000000E+00  0.33421839247E+03  0.33421839247E+03  0.00000000000E+00 0.  1.
          2   -1    0    0  502    0  0.00000000000E+00 -0.00000000000E+00 -0.20407290331E+03  0.20407290331E+03  0.00000000000E+00 0. -1.
         23    2    1    2    0    0 -0.34566061089E+02 -0.42640853754E+02 -0.40248304327E+02  0.11261916910E+03  0.89722328656E+02 0.  0.
         23    2    1    2    0    0 -0.20344429133E+02 -0.46454900930E+02 -0.94502291836E+02  0.14085086439E+03  0.91303500584E+02 0.  0.
        -11    1    4    4    0    0 -0.33607353129E+02  0.18176397920E+02 -0.29960272896E+02  0.48553615495E+02  0.00000000000E+00 0.  1.
         11    1    4    4    0    0  0.13262923996E+02 -0.64631298850E+02 -0.64542018940E+02  0.92297248891E+02  0.00000000000E+00 0. -1.
        -11    1    3    3    0    0  0.86190500530E+01  0.22951130634E+02 -0.31691426274E+00  0.24518214777E+02  0.00000000000E+00 0.  1.
         11    1    3    3    0    0 -0.43185111142E+02 -0.65591984388E+02 -0.39931390064E+02  0.88100954323E+02  0.00000000000E+00 0. -1.
         21    1    1    2  502  501  0.54910490221E+02  0.89095754684E+02  0.26489608531E+03  0.28482126229E+03  0.00000000000E+00 0.  1.
<scales pt_clust_5="13000.00000" pt_clust_6="13000.00000" pt_clust_7="13000.00000" pt_clust_8="13000.00000" pt_clust_9="98.86979"></scales>
<clustering>
<clus scale="   89.722">  7  8 -1 -1</clus>
<clus scale="   91.304">  5  6 -1 -1</clus>
<clus scale="  104.443">  2  5  1 -1</clus>
<clus scale="   98.870">  1  9  2 -1</clus>
<clus scale="  104.443">  2  5  1 -1</clus>
</clustering>
</event>
<event>
 9    1  0.1713970E-005  0.1163025E+03  0.7546771E-02  0.1253445E+00
          1   -1    0    0  502    0  0.00000000000E+00  0.00000000000E+00  0.39903470420E+03  0.39903470420E+03  0.00000000000E+00 0. -1.
         -1   -1    0    0    0  501 -0.00000000000E+00 -0.00000000000E+00 -0.98620734265E+02  0.98620734265E+02  0.00000000000E+00 0.  1.
         23    2    1    2    0    0  0.42895607124E+02 -0.57473258564E+02  0.45948312153E+02  0.13277499566E+03  0.10185648493E+03 0.  0.
         23    2    1    2    0    0 -0.25614376471E+02  0.46397134936E+02  0.29833526181E+03  0.31644632666E+03  0.91244500137E+02 0.  0.
        -11    1    3    3    0    0 -0.10386399165E+02 -0.48505665527E+02  0.59107172206E+02  0.77164335557E+02  0.00000000000E+00 0. -1.
         11    1    3    3    0    0  0.53282006289E+02 -0.89675930368E+01 -0.13158860053E+02  0.55610660101E+02  0.00000000000E+00 0.  1.
        -13    1    4    4    0    0 -0.36066973868E+02  0.70167229388E+02  0.23879077487E+03  0.25148618421E+03  0.00000000000E+00 0.  1.
         13    1    4    4    0    0  0.10452597397E+02 -0.23770094452E+02  0.59544486943E+02  0.64960142456E+02  0.00000000000E+00 0. -1.
         21    1    1    2  502  501 -0.17281230653E+02  0.11076123628E+02 -0.43869604038E+02  0.48434116137E+02  0.00000000000E+00 0.  1.
<scales pt_clust_5="13000.00000" pt_clust_6="13000.00000" pt_clust_7="13000.00000" pt_clust_8="13000.00000" pt_clust_9="20.52612"></scales>
<clustering>
<clus scale="   20.526">  2  9  1 -1</clus>
<clus scale="   91.245">  7  8 -1 -1</clus>
<clus scale="  101.856">  5  6 -1 -1</clus>
<clus scale="  107.131">  1  7  2 -1</clus>
<clus scale="  107.131">  1  5  2 -1</clus>
</clustering>
</event>
<event>
 9    1  0.1713970E-005  0.9778191E+02  0.7546771E-02  0.1285899E+00
         -2   -1    0    0    0  501 -0.00000000000E+00  0.00000000000E+00  0.39645881246E+02  0.39645881246E+02  0.00000000000E+00 0.  1.
          2   -1    0    0  502    0  0.00000000000E+00 -0.00000000000E+00 -0.56226058108E+03  0.56226058108E+03  0.00000000000E+00 0. -1.
         23    2    1    2    0    0  0.59810530689E+01 -0.80855465997E+00 -0.82229028480E+02  0.12544866472E+03  0.94548017425E+02 0.  0.
         23    2    1    2    0    0 -0.20002852855E+02 -0.22749616661E+02 -0.43819130380E+03  0.44895482405E+03  0.92904015725E+02 0.  0.
        -11    1    3    3    0    0 -0.27044895660E+02 -0.36649903554E+02 -0.45873825812E+02  0.64645569890E+02  0.00000000000E+00 0. -1.
         11    1    3    3    0    0  0.33025948729E+02  0.35841348894E+02 -0.36355202668E+02  0.60803094831E+02  0.00000000000E+00 0.  1.
        -11    1    4    4    0    0 -0.22864792041E+02  0.33484066624E+02 -0.21349274563E+03  0.21730884444E+03  0.00000000000E+00 0.  1.
         11    1    4    4    0    0  0.28619391858E+01 -0.56233683285E+02 -0.22469855816E+03  0.23164597962E+03  0.00000000000E+00 0. -1.
         21    1    1    2  502  501  0.14021799786E+02  0.23558171321E+02 -0.21943675576E+01  0.27502973552E+02  0.00000000000E+00 0.  1.
<scales pt_clust_5="13000.00000" pt_clust_6="13000.00000" pt_clust_7="13000.00000" pt_clust_8="13000.00000" pt_clust_9="27.41529"></scales>
<clustering>
<clus scale="   27.415">  1  9  2 -1</clus>
<clus scale="   92.904">  7  8 -1 -1</clus>
<clus scale="   94.548">  5  6 -1 -1</clus>
<clus scale="   96.193">  2  7  1 -1</clus>
<clus scale="   96.193">  2  5  1 -1</clus>
</clustering>
</event>
<event>
 9    1  0.1713970E-005  0.1517619E+03  0.7546771E-02  0.1198484E+00
         -1   -1    0    0    0  501 -0.00000000000E+00  0.00000000000E+00  0.12616159471E+03  0.12616159471E+03  0.00000000000E+00 0.  1.
          1   -1    0    0  502    0  0.00000000000E+00 -0.00000000000E+00 -0.24790925707E+03  0.24790925707E+03  0.00000000000E+00 0. -1.
         23    2    1    2    0    0 -0.91437250703E+02 -0.74628147122E+02 -0.61050121418E+00  0.15020627420E+03  0.92905440851E+02 0.  0.
         23    2    1    2    0    0  0.11161554256E+03  0.48250290338E+02 -0.10982097640E+03  0.18877881369E+03  0.93758593103E+02 0.  0.
        -11    1    3    3    0    0  0.18445556771E+02 -0.14099494212E+02  0.77514582454E+01  0.24476915790E+02  0.00000000000E+00 0. -1.
         11    1    3    3    0    0 -0.10988280747E+03 -0.60528652909E+02 -0.83619594596E+01  0.12572935841E+03  0.00000000000E+00 0.  1.
        -13    1    4    4    0    0  0.79036425627E+02  0.53221861214E+02 -0.12096756930E+03  0.15398855772E+03  0.00000000000E+00 0. -1.
         13    1    4    4    0    0  0.32579116930E+02 -0.49715708758E+01  0.11146592896E+02  0.34790255965E+02  0.00000000000E+00 0.  1.
         21    1    1    2  502  501 -0.20178291854E+02  0.26377856784E+02 -0.11316184747E+02  0.35085763892E+02  0.00000000000E+00 0. -1.
<scales pt_clust_5="13000.00000" pt_clust_6="13000.00000" pt_clust_7="13000.00000" pt_clust_8="13000.00000" pt_clust_9="33.21076"></scales>
<clustering>
<clus scale="   33.211">  1  9  2 -1</clus>
<clus scale="   92.905">  5  6 -1 -1</clus>
<clus scale="   93.759">  7  8 -1 -1</clus>
<clus scale="  151.236">  1  5  2 -1</clus>
<clus scale="  151.762">  2  5  1 -1</clus>
</clustering>
</event>
<event>
 9    1  0.1713970E-005  0.1019849E+03  0.7546771E-02  0.1278755E+00
         -2   -1    0    0    0  501 -0.00000000000E+00  0.00000000000E+00  0.20715307929E+03  0.20715307929E+03  0.00000000000E+00 0.  1.
          2   -1    0    0  502    0  0.00000000000E+00 -0.00000000000E+00 -0.17590949587E+03  0.17590949587E+03  0.00000000000E+00 0. -1.
         23    2    1    2    0    0 -0.29368747597E+02 -0.29232799093E+02  0.12900514886E+03  0.16593841895E+03  0.95792226065E+02 0.  0.
         23    2    1    2    0    0  0.80170702619E+01  0.33977160834E+02 -0.13953710024E+03  0.16996910980E+03  0.90554818038E+02 0.  0.
        -11    1    4    4    0    0  0.48757246260E+02  0.11453713756E+02 -0.80140360811E+02  0.94503619256E+02  0.00000000000E+00 0. -1.
         11    1    4    4    0    0 -0.40740175998E+02  0.22523447077E+02 -0.59396739427E+02  0.75465490545E+02  0.00000000000E+00 0.  1.
        -13    1    3    3    0    0 -0.16744337867E+02 -0.64643383748E+02  0.82678519481E+02  0.10627736117E+03  0.00000000000E+00 0.  1.
         13    1    3    3    0    0 -0.12624409730E+02  0.35410584656E+02  0.46326629374E+02  0.59661057783E+02  0.00000000000E+00 0. -1.
         21    1    1    2  502  501  0.21351677335E+02 -0.47443617409E+01  0.41775534809E+02  0.47155046410E+02  0.00000000000E+00 0.  1.
<scales pt_clust_5="13000.00000" pt_clust_6="13000.00000" pt_clust_7="13000.00000" pt_clust_8="13000.00000" pt_clust_9="21.87243"></scales>
<clustering>
<clus scale="   21.872">  1  9  2 -1</clus>
<clus scale="   90.555">  5  6 -1 -1</clus>
<clus scale="   95.792">  7  8 -1 -1</clus>
<clus scale="   97.082">  2  5  1 -1</clus>
<clus scale="   97.082">  2  5  1 -1</clus>
</clustering>
</event>
<event>
 9    1  0.1713970E-005  0.2855770E+03  0.7546771E-02  0.1092927E+00
         -2   -1    0    0    0  501 -0.00000000000E+00  0.00000000000E+00  0.58200438091E+03  0.58200438091E+03  0.00000000000E+00 0.  1.
          2   -1    0    0  502    0  0.00000000000E+00 -0.00000000000E+00 -0.41239864899E+03  0.41239864899E+03  0.00000000000E+00 0. -1.
         23    2    1    2    0    0 -0.14160866855E+02 -0.22619770543E+03  0.34016131539E+03  0.41858115950E+03  0.90191654348E+02 0.  0.
         23    2    1    2    0    0 -0.13931201447E+02  0.27534098314E+03 -0.30972716962E+03  0.42557887908E+03  0.95810893715E+02 0.  0.
        -11    1    4    4    0    0 -0.34763295516E+02  0.20830112523E+03 -0.17749313462E+03  0.27586529018E+03  0.00000000000E+00 0.  1.
         11    1    4    4    0    0  0.20832094069E+02  0.67039857906E+02 -0.13223403500E+03  0.14971358891E+03  0.00000000000E+00 0. -1.
        -13    1    3    3    0    0 -0.47012044922E+02 -0.12919239010E+03  0.15663166586E+03  0.20840893642E+03  0.00000000000E+00 0.  1.
         13    1    3    3    0    0  0.32851178067E+02 -0.97005315328E+02  0.18352964953E+03  0.21017222309E+03  0.00000000000E+00 0. -1.
         21    1    1    2  502  501  0.28092068302E+02 -0.49143277711E+02  0.13917158615E+03  0.15024299131E+03  0.00000000000E+00 0. -1.
<scales pt_clust_5="13000.00000" pt_clust_6="13000.00000" pt_clust_7="13000.00000" pt_clust_8="13000.00000" pt_clust_9="56.60588"></scales>
<clustering>
<clus scale="   56.606">  1  9  2 -1</clus>
<clus scale="   90.192">  7  8 -1 -1</clus>
<clus scale="   95.811">  5  6 -1 -1</clus>
<clus scale="  283.741">  1  7  2 -1</clus>
<clus scale="  285.577">  2  5  1 -1</clus>
</clustering>
</event>
<event>
 9    1  0.1713970E-005  0.3706028E+03  0.7546771E-02  0.1054477E+00
         -1   -1    0    0    0  501 -0.00000000000E+00  0.00000000000E+00  0.35671961143E+03  0.35671961143E+03  0.00000000000E+00 0.  1.
          1   -1    0    0  502    0  0.00000000000E+00 -0.00000000000E+00 -0.89196592898E+03  0.89196592898E+03  0.00000000000E+00 0. -1.
         23    2    1    2    0    0  0.15360786795E+03 -0.34890387810E+03 -0.34429858339E+03  0.52148656889E+03  0.89874544539E+02 0.  0.
         23    2    1    2    0    0 -0.12374064745E+03  0.31949288728E+03 -0.38815666612E+03  0.52558443809E+03  0.90476246902E+02 0.  0.
        -11    1    4    4    0    0 -0.87112200746E+02  0.29267491436E+03 -0.36041108928E+03  0.47238045502E+03  0.00000000000E+00 0. -1.
         11    1    4    4    0    0 -0.36628446706E+02  0.26817972921E+02 -0.27745576841E+02  0.53203983064E+02  0.00000000000E+00 0.  1.
        -11    1    3    3    0    0  0.12581393101E+03 -0.30679250140E+03 -0.33268059321E+03  0.46970965633E+03  0.00000000000E+00 0.  1.
         11    1    3    3    0    0  0.27793936935E+02 -0.42111376704E+02 -0.11617990181E+02  0.51776912559E+02  0.00000000000E+00 0. -1.
         21    1    1    2  502  501 -0.29867220496E+02  0.29410990819E+02  0.19720893197E+03  0.20161453342E+03  0.00000000000E+00 0.  1.
<scales pt_clust_5="13000.00000" pt_clust_6="13000.00000" pt_clust_7="13000.00000" pt_clust_8="13000.00000" pt_clust_9="41.91727"></scales>
<clustering>
<clus scale="   41.917">  1  9  2 -1</clus>
<clus scale="   89.875">  7  8 -1 -1</clus>
<clus scale="   90.476">  5  6 -1 -1</clus>
<clus scale="  370.456">  1  7  2 -1</clus>
<clus scale="  370.603">  2  5  1 -1</clus>
</clustering>
</event>
<event>
 9    1  0.1713970E-005  0.1124608E+03  0.7546771E-02  0.1256331E+00
          3   -1    0    0  502    0  0.00000000000E+00  0.00000000000E+00  0.22232035487E+03  0.22232035487E+03  0.00000000000E+00 0. -1.
         -3   -1    0    0    0  501 -0.00000000000E+00 -0.00000000000E+00 -0.11106614350E+03  0.11106614350E+03  0.00000000000E+00 0.  1.
         23    2    1    2    0    0  0.23530074176E+02  0.71707793174E+02 -0.14667853364E+02  0.12094518352E+03  0.93364444529E+02 0.  0.
         23    2    1    2    0    0 -0.52858676300E+02 -0.33611431348E+02  0.11990263085E+03  0.16398790144E+03  0.92691007951E+02 0.  0.
        -11    1    4    4    0    0 -0.62612511493E+02  0.27898865889E+01  0.10727727764E+03  0.12424381015E+03  0.00000000000E+00 0. -1.
         11    1    4    4    0    0  0.97538351933E+01 -0.36401317937E+02  0.12625353213E+02  0.39744091288E+02  0.00000000000E+00 0.  1.
        -13    1    3    3    0    0  0.47037113306E+02  0.32908400513E+02 -0.39063839446E+02  0.69436563889E+02  0.00000000000E+00 0.  1.
         13    1    3    3    0    0 -0.23507039130E+02  0.38799392661E+02  0.24395986082E+02  0.51508619633E+02  0.00000000000E+00 0. -1.
         21    1    1    2  502  501  0.29328602124E+02 -0.38096361826E+02  0.60194338855E+01  0.48453413411E+02  0.00000000000E+00 0.  1.
<scales pt_clust_5="13000.00000" pt_clust_6="13000.00000" pt_clust_7="13000.00000" pt_clust_8="13000.00000" pt_clust_9="48.07806"></scales>
<clustering>
<clus scale="   48.078">  2  9  1 -1</clus>
<clus scale="   92.691">  5  6 -1 -1</clus>
<clus scale="   93.364">  7  8 -1 -1</clus>
<clus scale="  111.902">  1  5  2 -1</clus>
<clus scale="  111.902">  1  5  2 -1</clus>
</clustering>
</event>
<event>
 9    1  0.1713970E-005  0.1478126E+03  0.7546771E-02  0.1203288E+00
         -2   -1    0    0    0  501 -0.00000000000E+00  0.00000000000E+00  0.10674915858E+03  0.10674915858E+03  0.00000000000E+00 0.  1.
          2   -1    0    0  502    0  0.00000000000E+00 -0.00000000000E+00 -0.76275361845E+03  0.76275361845E+03  0.00000000000E+00 0. -1.
         23    2    1    2    0    0  0.10743659578E+03  0.49747970466E+02 -0.16950872885E+03  0.22658012047E+03  0.92670702802E+02 0.  0.
         23    2    1    2    0    0 -0.11203879911E+03 -0.24799613906E+02 -0.55273388988E+03  0.57199244818E+03  0.92156900948E+02 0.  0.
        -11    1    3    3    0    0  0.10844454208E+03  0.19828033163E+02 -0.92331819387E+02  0.14380032850E+03  0.00000000000E+00 0.  1.
         11    1    3    3    0    0 -0.10079463016E+01  0.29919937303E+02 -0.77176909464E+02  0.82779791969E+02  0.00000000000E+00 0. -1.
        -11    1    4    4    0    0 -0.60166155422E+02  0.24543570066E+02 -0.15836351162E+03  0.17117638535E+03  0.00000000000E+00 0.  1.
         11    1    4    4    0    0 -0.51872643689E+02 -0.49343183972E+02 -0.39437037827E+03  0.40081606283E+03  0.00000000000E+00 0. -1.
         21    1    1    2  502  501  0.46022033342E+01 -0.24948356561E+02  0.66238158866E+02  0.70930208378E+02  0.00000000000E+00 0.  1.
<scales pt_clust_5="13000.00000" pt_clust_6="13000.00000" pt_clust_7="13000.00000" pt_clust_8="13000.00000" pt_clust_9="25.36929"></scales>
<clustering>
<clus scale="   25.369">  1  9  2 -1</clus>
<clus scale="   92.157">  7  8 -1 -1</clus>
<clus scale="   92.671">  5  6 -1 -1</clus>
<clus scale="  147.491">  2  7  1 -1</clus>
<clus scale="  147.491">  2  5  1 -1</clus>
</clustering>
</event>
<event>
 9    1  0.1713970E-005  0.2649869E+03  0.7546771E-02  0.1104234E+00
          2   -1    0    0  502    0  0.00000000000E+00  0.00000000000E+00  0.92698896565E+03  0.92698896565E+03  0.00000000000E+00 0. -1.
         -2   -1    0    0    0  501 -0.00000000000E+00 -0.00000000000E+00 -0.12387822446E+03  0.12387822446E+03  0.00000000000E+00 0.  1.
         23    2    1    2    0    0 -0.18183781563E+03 -0.16989557942E+03  0.10284615586E+03  0.28419892113E+03  0.90896622028E+02 0.  0.
         23    2    1    2    0    0  0.16342382888E+03  0.18814610128E+03  0.68940911349E+03  0.73856137081E+03  0.89898105742E+02 0.  0.
        -11    1    4    4    0    0  0.33356667409E+02  0.81470478116E+01  0.17383127247E+03  0.17719016039E+03  0.00000000000E+00 0.  1.
         11    1    4    4    0    0  0.13006716147E+03  0.17999905346E+03  0.51557784102E+03  0.56137121042E+03  0.00000000000E+00 0. -1.
        -13    1    3    3    0    0 -0.85644781350E+02 -0.31319113578E+02  0.10250787901E+02  0.91765974633E+02  0.00000000000E+00 0.  1.
         13    1    3    3    0    0 -0.96193034277E+02 -0.13857646585E+03  0.92595367958E+02  0.19243294650E+03  0.00000000000E+00 0. -1.
         21    1    1    2  502  501  0.18413986746E+02 -0.18250521853E+02  0.10855471847E+02  0.28106898172E+02  0.00000000000E+00 0.  1.
<scales pt_clust_5="13000.00000" pt_clust_6="13000.00000" pt_clust_7="13000.00000" pt_clust_8="13000.00000" pt_clust_9="25.92598"></scales>
<clustering>
<clus scale="   25.926">  2  9  1 -1</clus>
<clus scale="   89.898">  5  6 -1 -1</clus>
<clus scale="   90.897">  7  8 -1 -1</clus>
<clus scale="  264.646">  1  5  2 -1</clus>
<clus scale="  264.646">  1  5  2 -1</clus>
</clustering>
</event>
<event>
 9    1  0.1713970E-005  0.1256683E+03  0.7546771E-02  0.1235715E+00
          2   -1    0    0  502    0  0.00000000000E+00  0.00000000000E+00  0.16049238824E+03  0.16049238824E+03  0.00000000000E+00 0. -1.
         -2   -1    0    0    0  501 -0.00000000000E+00 -0.00000000000E+00 -0.29862317916E+03  0.29862317916E+03  0.00000000000E+00 0.  1.
         23    2    1    2    0    0 -0.61264705452E+02 -0.92896984896E+02 -0.12206870300E+03  0.19131578645E+03  0.96528482627E+02 0.  0.
         23    2    1    2    0    0  0.35181753799E+02  0.66211534705E+02  0.94539962086E+02  0.15107254726E+03  0.90903173629E+02 0.  0.
        -13    1    4    4    0    0  0.61134032009E+02  0.19292963280E+02  0.54740961516E+02  0.84298049619E+02  0.00000000000E+00 0.  1.
         13    1    4    4    0    0 -0.25952278210E+02  0.46918571425E+02  0.39799000570E+02  0.66774497641E+02  0.00000000000E+00 0. -1.
        -13    1    3    3    0    0 -0.37479988634E+00 -0.37522457937E+02 -0.98950718164E+02  0.10582683946E+03  0.00000000000E+00 0.  1.
         13    1    3    3    0    0 -0.60889905566E+02 -0.55374526959E+02 -0.23117984833E+02  0.85488946996E+02  0.00000000000E+00 0. -1.
         21    1    1    2  502  501  0.26082951653E+02  0.26685450190E+02 -0.11060205001E+03  0.11672723369E+03  0.00000000000E+00 0.  1.
<scales pt_clust_5="13000.00000" pt_clust_6="13000.00000" pt_clust_7="13000.00000" pt_clust_8="13000.00000" pt_clust_9="37.31533"></scales>
<clustering>
<clus scale="   37.315">  2  9  1 -1</clus>
<clus scale="   90.903">  5  6 -1 -1</clus>
<clus scale="   96.528">  7  8 -1 -1</clus>
<clus scale="  121.401">  1  5  2 -1</clus>
<clus scale="  121.401">  1  5  2 -1</clus>
</clustering>
</event>
<event>
 9    1  0.1713970E-005  0.9626801E+02  0.7546771E-02  0.1291042E+00
          1   -1    0    0  502    0  0.00000000000E+00  0.00000000000E+00  0.75395452168E+02  0.75395452168E+02  0.00000000000E+00 0. -1.
         -1   -1    0    0    0  501 -0.00000000000E+00 -0.00000000000E+00 -0.17967793033E+03  0.17967793033E+03  0.00000000000E+00 0.  1.
         23    2    1    2    0    0  0.11553535766E+02  0.38831713850E+02 -0.65727562222E+02  0.11523213709E+03  0.85539153564E+02 0.  0.
         23    2    1    2    0    0  0.14130549173E+02 -0.28468133334E+02 -0.47331407512E+01  0.96126390989E+02  0.90596762568E+02 0.  0.
        -11    1    3    3    0    0  0.12759670083E+02  0.62198337660E+02 -0.24952251984E+02  0.68220651327E+02  0.00000000000E+00 0.  1.
         11    1    3    3    0    0 -0.12061343171E+01 -0.23366623811E+02 -0.40775310238E+02  0.47011485759E+02  0.00000000000E+00 0. -1.
        -13    1    4    4    0    0 -0.23134737699E+02 -0.18230036870E+02 -0.35930026139E+02  0.46459844071E+02  0.00000000000E+00 0.  1.
         13    1    4    4    0    0  0.37265286872E+02 -0.10238096463E+02  0.31196885388E+02  0.49666546918E+02  0.00000000000E+00 0. -1.
         21    1    1    2  502  501 -0.25684084939E+02 -0.10363580516E+02 -0.33821775186E+02  0.43714854421E+02  0.00000000000E+00 0.  1.
<scales pt_clust_5="13000.00000" pt_clust_6="13000.00000" pt_clust_7="13000.00000" pt_clust_8="13000.00000" pt_clust_9="27.69614"></scales>
<clustering>
<clus scale="   27.696">  2  9  1 -1</clus>
<clus scale="   85.539">  5  6 -1 -1</clus>
<clus scale="   90.597">  7  8 -1 -1</clus>
<clus scale="   91.524">  2  5  1 -1</clus>
<clus scale="   96.268">  1  5  2 -1</clus>
</clustering>
</event>
<event>
 9    1  0.1713970E-005  0.1673998E+03  0.7546771E-02  0.1180839E+00
          1   -1    0    0  502    0  0.00000000000E+00  0.00000000000E+00  0.66633331190E+03  0.66633331190E+03  0.00000000000E+00 0. -1.
         -1   -1    0    0    0  501 -0.00000000000E+00 -0.00000000000E+00 -0.97526055562E+02  0.97526055562E+02  0.00000000000E+00 0.  1.
         23    2    1    2    0    0 -0.10294801164E+03  0.51090655439E+02  0.83774042409E+02  0.16963272798E+03  0.92458769449E+02 0.  0.
         23    2    1    2    0    0  0.17077469847E+03 -0.13422354898E+03  0.34914348577E+03  0.42108636209E+03  0.90733631825E+02 0.  0.
        -13    1    3    3    0    0 -0.51961651342E+02  0.54229057820E+02  0.91055519254E+02  0.11803351858E+03  0.00000000000E+00 0.  1.
         13    1    3    3    0    0 -0.50986360295E+02 -0.31384023817E+01 -0.72814768456E+01  0.51599209400E+02  0.00000000000E+00 0. -1.
        -13    1    4    4    0    0  0.50444562163E+02 -0.93682321722E+02  0.18687677477E+03  0.21504408898E+03  0.00000000000E+00 0.  1.
         13    1    4    4    0    0  0.12033013631E+03 -0.40541227260E+02  0.16226671100E+03  0.20604227311E+03  0.00000000000E+00 0. -1.
         21    1    1    2  502  501 -0.67826686833E+02  0.83132893543E+02  0.13588972816E+03  0.17314027739E+03  0.00000000000E+00 0. -1.
<scales pt_clust_5="13000.00000" pt_clust_6="13000.00000" pt_clust_7="13000.00000" pt_clust_8="13000.00000" pt_clust_9="107.29183"></scales>
<clustering>
<clus scale="   90.734">  7  8 -1 -1</clus>
<clus scale="   92.459">  5  6 -1 -1</clus>
<clus scale="  107.292">  1  9  2 -1</clus>
<clus scale="  166.453">  1  7  2 -1</clus>
<clus scale="  107.292">  1  5  2 -1</clus>
</clustering>
</event>
<event>
 9    1  0.1713970E-005  0.1074613E+03  0.7546771E-02  0.1265581E+00
         -1   -1    0    0    0  501 -0.00000000000E+00  0.00000000000E+00  0.46543437083E+03  0.46543437083E+03  0.00000000000E+00 0.  1.
          1   -1    0    0  502    0  0.00000000000E+00 -0.00000000000E+00 -0.41976593229E+02  0.41976593229E+02  0.00000000000E+00 0. -1.
         23    2    1    2    0    0  0.13173288468E+02  0.45027101074E+02  0.16671905617E+03  0.19655497169E+03  0.92938893065E+02 0.  0.
         23    2    1    2    0    0 -0.34021432498E+02 -0.48702214297E+02  0.87826311701E+02  0.14062217162E+03  0.92367584022E+02 0.  0.
        -11    1    3    3    0    0  0.31818558832E+02  0.59359679265E+02  0.15749882776E+03  0.17129469622E+03  0.00000000000E+00 0. -1.
         11    1    3    3    0    0 -0.18645270364E+02 -0.14332578191E+02  0.92202284108E+01  0.25260275463E+02  0.00000000000E+00 0.  1.
        -11    1    4    4    0    0 -0.55393842673E+02 -0.72159060697E+01  0.72452403595E+02  0.91487146055E+02  0.00000000000E+00 0.  1.
         11    1    4    4    0    0  0.21372410175E+02 -0.41486308228E+02  0.15373908106E+02  0.49135025567E+02  0.00000000000E+00 0. -1.
         21    1    1    2  502  501  0.20848144030E+02  0.36751132235E+01  0.16891240973E+03  0.17023382075E+03  0.00000000000E+00 0.  1.
<scales pt_clust_5="13000.00000" pt_clust_6="13000.00000" pt_clust_7="13000.00000" pt_clust_8="13000.00000" pt_clust_9="21.16959"></scales>
<clustering>
<clus scale="   21.170">  1  9  2 -1</clus>
<clus scale="   92.368">  7  8 -1 -1</clus>
<clus scale="   92.939">  5  6 -1 -1</clus>
<clus scale="  106.968">  2  7  1 -1</clus>
<clus scale="  106.968">  2  5  1 -1</clus>
</clustering>
</event>
<event>
 9    1  0.1713970E-005  0.1068769E+03  0.7546771E-02  0.1267410E+00
         -1   -1    0    0    0  501 -0.00000000000E+00  0.00000000000E+00  0.39448168131E+03  0.39448168131E+03  0.00000000000E+00 0.  1.
          1   -1    0    0  502    0  0.00000000000E+00 -0.00000000000E+00 -0.49274425473E+02  0.49274425473E+02  0.00000000000E+00 0. -1.
         23    2    1    2    0    0  0.76260288288E+02  0.11973757757E+02  0.19513943741E+03  0.22861096374E+03  0.90689416487E+02 0.  0.
         23    2    1    2    0    0 -0.40829674011E+02  0.16599670601E+02  0.74775034220E+02  0.12716348252E+03  0.92933493420E+02 0.  0.
        -13    1    4    4    0    0  0.24238490142E+02  0.20920387317E+02  0.63517825783E+01  0.32642183624E+02  0.00000000000E+00 0. -1.
         13    1    4    4    0    0 -0.65068164153E+02 -0.43207167154E+01  0.68423251642E+02  0.94521298893E+02  0.00000000000E+00 0.  1.
        -13    1    3    3    0    0  0.60743049263E+02 -0.17029990264E+02  0.52039967142E+02  0.81779562130E+02  0.00000000000E+00 0. -1.
         13    1    3    3    0    0  0.15517239025E+02  0.29003748021E+02  0.14309947027E+03  0.14683140161E+03  0.00000000000E+00 0.  1.
         21    1    1    2  502  501 -0.35430614276E+02 -0.28573428358E+02  0.75292784204E+02  0.87981660528E+02  0.00000000000E+00 0.  1.
<scales pt_clust_5="13000.00000" pt_clust_6="13000.00000" pt_clust_7="13000.00000" pt_clust_8="13000.00000" pt_clust_9="45.51669"></scales>
<clustering>
<clus scale="   45.517">  1  9  2 -1</clus>
<clus scale="   90.689">  7  8 -1 -1</clus>
<clus scale="   92.933">  5  6 -1 -1</clus>
<clus scale="  104.931">  1  7  2 -1</clus>
<clus scale="  106.877">  2  5  1 -1</clus>
</clustering>
</event>
<event>
 9    1  0.1713970E-005  0.1059260E+03  0.7546771E-02  0.1268639E+00
         -1   -1    0    0    0  501 -0.00000000000E+00  0.00000000000E+00  0.30536794268E+03  0.30536794268E+03  0.00000000000E+00 0.  1.
          1   -1    0    0  502    0  0.00000000000E+00 -0.00000000000E+00 -0.15771514519E+03  0.15771514519E+03  0.00000000000E+00 0. -1.
         23    2    1    2    0    0  0.42473008262E+02  0.22038825103E+02  0.23328321145E+03  0.25530287577E+03  0.92026275543E+02 0.  0.
         23    2    1    2    0    0 -0.62670755510E+02 -0.71597725223E+02 -0.40886735746E+02  0.13802327470E+03  0.91240568536E+02 0.  0.
        -11    1    3    3    0    0  0.70717223006E+02  0.11427871094E+02  0.14001563619E+03  0.15727650888E+03  0.00000000000E+00 0.  1.
         11    1    3    3    0    0 -0.28244214743E+02  0.10610954009E+02  0.93267575262E+02  0.98026366895E+02  0.00000000000E+00 0. -1.
        -13    1    4    4    0    0 -0.19553434088E+02 -0.28546022510E+02  0.29113288248E+02  0.45219417714E+02  0.00000000000E+00 0.  1.
         13    1    4    4    0    0 -0.43117321422E+02 -0.43051702712E+02 -0.70000023994E+02  0.92803856989E+02  0.00000000000E+00 0. -1.
         21    1    1    2  502  501  0.20197747248E+02  0.49558900119E+02 -0.44743678214E+02  0.69756937397E+02  0.00000000000E+00 0. -1.
<scales pt_clust_5="13000.00000" pt_clust_6="13000.00000" pt_clust_7="13000.00000" pt_clust_8="13000.00000" pt_clust_9="53.51667"></scales>
<clustering>
<clus scale="   53.517">  2  9  1 -1</clus>
<clus scale="   91.241">  7  8 -1 -1</clus>
<clus scale="   92.026">  5  6 -1 -1</clus>
<clus scale="  105.244">  2  7  1 -1</clus>
<clus scale="   53.517">  2  5  1 -1</clus>
</clustering>
</event>
<event>
 9    1  0.1713970E-005  0.9326469E+02  0.7546771E-02  0.1295439E+00
          1   -1    0    0  502    0  0.00000000000E+00  0.00000000000E+00  0.45085236073E+03  0.45085236073E+03  0.00000000000E+00 0. -1.
         -1   -1    0    0    0  501 -0.00000000000E+00 -0.00000000000E+00 -0.30900651574E+02  0.30900651574E+02  0.00000000000E+00 0.  1.
         23    2    1    2    0    0 -0.40928712809E+01 -0.80296240147E+01  0.17417458847E+03  0.19715717827E+03  0.91939867401E+02 0.  0.
         23    2    1    2    0    0  0.24744245750E+02 -0.66185554362E+01  0.24074274208E+03  0.25878123746E+03  0.91403380800E+02 0.  0.
        -11    1    4    4    0    0 -0.18193267426E+02  0.24300077061E+02  0.34936351276E+02  0.46282149532E+02  0.00000000000E+00 0.  1.
         11    1    4    4    0    0  0.42937513176E+02 -0.30918632497E+02  0.20580639080E+03  0.21249908793E+03  0.00000000000E+00 0. -1.
        -13    1    3    3    0    0  0.35186711370E+02 -0.16239319919E+02  0.34678561773E+02  0.52004065371E+02  0.00000000000E+00 0.  1.
         13    1    3    3    0    0 -0.39279582651E+02  0.82096959047E+01  0.13949602670E+03  0.14515311290E+03  0.00000000000E+00 0. -1.
         21    1    1    2  502  501 -0.20651374470E+02  0.14648179451E+02  0.50343786113E+01  0.25814596582E+02  0.00000000000E+00 0. -1.
<scales pt_clust_5="13000.00000" pt_clust_6="13000.00000" pt_clust_7="13000.00000" pt_clust_8="13000.00000" pt_clust_9="25.31893"></scales>
<clustering>
<clus scale="   25.319">  2  9  1 -1</clus>
<clus scale="   91.403">  5  6 -1 -1</clus>
<clus scale="   91.940">  7  8 -1 -1</clus>
<clus scale="   92.736">  1  5  2 -1</clus>
<clus scale="   92.736">  1  5  2 -1</clus>
</clustering>
</event>
<event>
 9    1  0.1713970E-005  0.1073145E+03  0.7546771E-02  0.1276227E+00
          1   -1    0    0  502    0  0.00000000000E+00  0.00000000000E+00  0.33136102858E+03  0.33136102858E+03  0.00000000000E+00 0. -1.
         -1   -1    0    0    0  501 -0.00000000000E+00 -0.00000000000E+00 -0.20467474518E+03  0.20467474518E+03  0.00000000000E+00 0.  1.
         23    2    1    2    0    0  0.25050341695E+02 -0.28983467919E+01 -0.87978979233E+02  0.11974393529E+03  0.77216508713E+02 0.  0.
         23    2    1    2    0    0 -0.41629236311E+02 -0.88934776349E+01  0.30508804471E+03  0.32360858007E+03  0.99154983777E+02 0.  0.
        -11    1    3    3    0    0  0.46976795850E+02  0.10835342867E+02 -0.31411343809E+02  0.57540390364E+02  0.00000000000E+00 0.  1.
         11    1    3    3    0    0 -0.21926454155E+02 -0.13733689659E+02 -0.56567635424E+02  0.62203544922E+02  0.00000000000E+00 0. -1.
        -11    1    4    4    0    0 -0.26238047902E+02  0.40081231878E+02  0.84588627072E+02  0.97212016420E+02  0.00000000000E+00 0.  1.
         11    1    4    4    0    0 -0.15391188409E+02 -0.48974709512E+02  0.22049941764E+03  0.22639656365E+03  0.00000000000E+00 0. -1.
         21    1    1    2  502  501  0.16578894616E+02  0.11791824427E+02 -0.90422782078E+02  0.92683258406E+02  0.00000000000E+00 0.  1.
<scales pt_clust_5="13000.00000" pt_clust_6="13000.00000" pt_clust_7="13000.00000" pt_clust_8="13000.00000" pt_clust_9="20.34470"></scales>
<clustering>
<clus scale="   20.345">  2  9  1 -1</clus>
<clus scale="   77.217">  5  6 -1 -1</clus>
<clus scale="   87.448">  2  5  1 -1</clus>
<clus scale="   99.155">  7  8 -1 -1</clus>
<clus scale="  107.315">  1  5  2 -1</clus>
</clustering>
</event>
<event>
 9    1  0.1713970E-005  0.1025900E+03  0.7546771E-02  0.1276919E+00
         -1   -1    0    0    0  501 -0.00000000000E+00  0.00000000000E+00  0.15260204173E+03  0.15260204173E+03  0.00000000000E+00 0.  1.
          1   -1    0    0  502    0  0.00000000000E+00 -0.00000000000E+00 -0.13525806911E+03  0.13525806911E+03  0.00000000000E+00 0. -1.
         23    2    1    2    0    0 -0.57137152140E+01 -0.48769768702E+02  0.31017134323E+02  0.10710948078E+03  0.89995785295E+02 0.  0.
         23    2    1    2    0    0 -0.13315607728E+02  0.36443986089E+02 -0.67609049173E+02  0.12224319459E+03  0.94164460188E+02 0.  0.
        -11    1    3    3    0    0  0.12309570694E+02  0.21552500199E+02  0.23407314435E+02  0.34116537992E+02  0.00000000000E+00 0.  1.
         11    1    3    3    0    0 -0.18023285908E+02 -0.70322268901E+02  0.76098198883E+01  0.72992942789E+02  0.00000000000E+00 0. -1.
        -11    1    4    4    0    0  0.22195751556E+02  0.56666410836E+02 -0.37511109204E+02  0.71489977045E+02  0.00000000000E+00 0.  1.
         11    1    4    4    0    0 -0.35511359284E+02 -0.20222424747E+02 -0.30097939970E+02  0.50753217546E+02  0.00000000000E+00 0. -1.
         21    1    1    2  502  501  0.19029322942E+02  0.12325782613E+02  0.53935887472E+02  0.58507435476E+02  0.00000000000E+00 0. -1.
<scales pt_clust_5="13000.00000" pt_clust_6="13000.00000" pt_clust_7="13000.00000" pt_clust_8="13000.00000" pt_clust_9="22.67245"></scales>
<clustering>
<clus scale="   22.672">  1  9  2 -1</clus>
<clus scale="   89.996">  5  6 -1 -1</clus>
<clus scale="   94.164">  7  8 -1 -1</clus>
<clus scale="   98.778">  1  5  2 -1</clus>
<clus scale="  102.590">  2  5  1 -1</clus>
</clustering>
</event>
<event>
 9    1  0.1713970E-005  0.1021000E+03  0.7546771E-02  0.1276844E+00
         -1   -1    0    0    0  501 -0.00000000000E+00  0.00000000000E+00  0.13209068873E+03  0.13209068873E+03  0.00000000000E+00 0.  1.
          1   -1    0    0  502    0  0.00000000000E+00 -0.00000000000E+00 -0.10188504026E+03  0.10188504026E+03  0.00000000000E+00 0. -1.
         23    2    1    2    0    0  0.10925090488E+02 -0.49629266723E+02  0.14513419764E+02  0.10569999933E+03  0.91539219947E+02 0.  0.
         23    2    1    2    0    0 -0.19475543542E+02  0.28575754097E+02 -0.16974583851E+01  0.99661714585E+02  0.93454296159E+02 0.  0.
        -11    1    3    3    0    0  0.29128240896E+02  0.17954935968E+02 -0.46770440341E-02  0.34217454101E+02  0.00000000000E+00 0.  1.
         11    1    3    3    0    0 -0.18203150408E+02 -0.67584202691E+02  0.14518096808E+02  0.71482545233E+02  0.00000000000E+00 0. -1.
        -13    1    4    4    0    0 -0.25421343549E+02 -0.17289076849E+02  0.30502493839E+02  0.43307724675E+02  0.00000000000E+00 0.  1.
         13    1    4    4    0    0  0.59458000074E+01  0.45864830946E+02 -0.32199952225E+02  0.56353989909E+02  0.00000000000E+00 0. -1.
         21    1    1    2  502  501  0.85504530537E+01  0.21053512626E+02  0.17389687094E+02  0.28614015072E+02  0.00000000000E+00 0.  1.
<scales pt_clust_5="13000.00000" pt_clust_6="13000.00000" pt_clust_7="13000.00000" pt_clust_8="13000.00000" pt_clust_9="22.72357"></scales>
<clustering>
<clus scale="   22.724">  1  9  2 -1</clus>
<clus scale="   91.539">  5  6 -1 -1</clus>
<clus scale="   93.454">  7  8 -1 -1</clus>
<clus scale="  100.350">  1  5  2 -1</clus>
<clus scale="  102.100">  2  5  1 -1</clus>
</clustering>
</event>
<event>
 9    1  0.1713970E-005  0.1223877E+03  0.7546771E-02  0.1241321E+00
          1   -1    0    0  502    0  0.00000000000E+00  0.00000000000E+00  0.17529262911E+03  0.17529262911E+03  0.00000000000E+00 0. -1.
         -1   -1    0    0    0  501 -0.00000000000E+00 -0.00000000000E+00 -0.14283311863E+03  0.14283311863E+03  0.00000000000E+00 0.  1.
         23    2    1    2    0    0 -0.62260674875E+02  0.14055804109E+02  0.57012957567E+01  0.11653601797E+03  0.97335406952E+02 0.  0.
         23    2    1    2    0    0  0.64914734356E+02 -0.53023854717E+02  0.71049116750E+02  0.14253689748E+03  0.90792831470E+02 0.  0.
        -11    1    4    4    0    0 -0.14188649593E+02 -0.35810572055E+02  0.66434623406E+01  0.39087727486E+02  0.00000000000E+00 0.  1.
         11    1    4    4    0    0  0.79103383949E+02 -0.17213282662E+02  0.64405654410E+02  0.10344916999E+03  0.00000000000E+00 0. -1.
        -13    1    3    3    0    0 -0.67318340131E+02 -0.28560116171E+02 -0.80502066321E+00  0.73130617473E+02  0.00000000000E+00 0. -1.
         13    1    3    3    0    0  0.50576652555E+01  0.42615920280E+02  0.65063164199E+01  0.43405400499E+02  0.00000000000E+00 0.  1.
         21    1    1    2  502  501 -0.26540594802E+01  0.38968050608E+02 -0.44290902028E+02  0.59052832298E+02  0.00000000000E+00 0. -1.
<scales pt_clust_5="13000.00000" pt_clust_6="13000.00000" pt_clust_7="13000.00000" pt_clust_8="13000.00000" pt_clust_9="39.05833"></scales>
<clustering>
<clus scale="   39.058">  2  9  1 -1</clus>
<clus scale="   90.793">  5  6 -1 -1</clus>
<clus scale="   97.335">  7  8 -1 -1</clus>
<clus scale="  117.251">  1  5  2 -1</clus>
<clus scale="  117.251">  1  5  2 -1</clus>
</clustering>
</event>
<event>
 9    1  0.1713970E-005  0.1387911E+03  0.7546771E-02  0.1233724E+00
          1   -1    0    0  502    0  0.00000000000E+00  0.00000000000E+00  0.74294514802E+03  0.74294514802E+03  0.00000000000E+00 0. -1.
         -1   -1    0    0    0  501 -0.00000000000E+00 -0.00000000000E+00 -0.14060058598E+03  0.14060058598E+03  0.00000000000E+00 0.  1.
         23    2    1    2    0    0  0.68018307867E+00  0.12348925826E+03  0.57357559898E+03  0.59300438353E+03  0.86111390551E+02 0.  0.
         23    2    1    2    0    0  0.17968427727E+02 -0.16830294353E+02  0.11761207134E+03  0.15048063808E+03  0.90585318392E+02 0.  0.
        -11    1    3    3    0    0  0.30321738860E+02  0.43505809224E+02  0.11600813196E+03  0.12755410602E+03  0.00000000000E+00 0.  1.
         11    1    3    3    0    0 -0.29641555781E+02  0.79983449038E+02  0.45756746703E+03  0.46545027751E+03  0.00000000000E+00 0. -1.
        -13    1    4    4    0    0 -0.33643697470E+02 -0.24104656412E+02  0.45553810143E+02  0.61547400097E+02  0.00000000000E+00 0.  1.
         13    1    4    4    0    0  0.51612125198E+02  0.72743620590E+01  0.72058261197E+02  0.88933237980E+02  0.00000000000E+00 0. -1.
         21    1    1    2  502  501 -0.18648610806E+02 -0.10665896391E+03 -0.88843108277E+02  0.14006071239E+03  0.00000000000E+00 0.  1.
<scales pt_clust_5="13000.00000" pt_clust_6="13000.00000" pt_clust_7="13000.00000" pt_clust_8="13000.00000" pt_clust_9="108.84754"></scales>
<clustering>
<clus scale="   86.111">  5  6 -1 -1</clus>
<clus scale="   90.585">  7  8 -1 -1</clus>
<clus scale="   93.871">  1  7  2 -1</clus>
<clus scale="  108.848">  2  9  1 -1</clus>
<clus scale="   93.871">  1  5  2 -1</clus>
</clustering>
</event>
<event>
 9    1  0.1713970E-005  0.1124108E+03  0.7546771E-02  0.1259886E+00
          1   -1    0    0  502    0  0.00000000000E+00  0.00000000000E+00  0.90167946246E+02  0.90167946246E+02  0.00000000000E+00 0. -1.
         -1   -1    0    0    0  501 -0.00000000000E+00 -0.00000000000E+00 -0.16288629729E+03  0.16288629729E+03  0.00000000000E+00 0.  1.
         23    2    1    2    0    0 -0.41119149110E+02 -0.12229338715E+02 -0.49486752465E+02  0.12100638958E+03  0.10175100245E+03 0.  0.
         23    2    1    2    0    0  0.44326247454E+02  0.33617227778E+02 -0.21055503671E+02  0.11031164759E+03  0.92899898504E+02 0.  0.
        -11    1    3    3    0    0  0.94316991081E+01  0.33534203498E+02  0.29891241755E+01  0.34963332445E+02  0.00000000000E+00 0.  1.
         11    1    3    3    0    0 -0.50550848218E+02 -0.45763542213E+02 -0.52475876640E+02  0.86043057132E+02  0.00000000000E+00 0. -1.
        -11    1    4    4    0    0  0.70493725609E+02  0.25343413753E+02  0.12879752126E+01  0.74922045160E+02  0.00000000000E+00 0. -1.
         11    1    4    4    0    0 -0.26167478154E+02  0.82738140248E+01 -0.22343478883E+02  0.35389602429E+02  0.00000000000E+00 0.  1.
         21    1    1    2  502  501 -0.32070983440E+01 -0.21387889063E+02 -0.21760949091E+01  0.21736206371E+02  0.00000000000E+00 0. -1.
<scales pt_clust_5="13000.00000" pt_clust_6="13000.00000" pt_clust_7="13000.00000" pt_clust_8="13000.00000" pt_clust_9="21.62700"></scales>
<clustering>
<clus scale="   21.627">  1  9  2 -1</clus>
<clus scale="   92.900">  7  8 -1 -1</clus>
<clus scale="  101.751">  5  6 -1 -1</clus>
<clus scale="  104.467">  1  7  2 -1</clus>
<clus scale="   21.627">  1  5  2 -1</clus>
</clustering>
</event>
<event>
 9    1  0.1713970E-005  0.1589554E+03  0.7546771E-02  0.1190295E+00
          2   -1    0    0  502    0  0.00000000000E+00  0.00000000000E+00  0.63188476248E+03  0.63188476248E+03  0.00000000000E+00 0. -1.
         -2   -1    0    0    0  501 -0.00000000000E+00 -0.00000000000E+00 -0.72153873668E+02  0.72153873668E+02  0.00000000000E+00 0.  1.
         23    2    1    2    0    0 -0.35319472187E+02  0.13627765469E+03  0.90763300601E+02  0.19047939611E+03  0.90693766717E+02 0.  0.
         23    2    1    2    0    0  0.14093638457E+02 -0.12516653699E+03  0.46310951790E+03  0.48889529993E+03  0.93182058867E+02 0.  0.
        -11    1    4    4    0    0  0.25983252907E+02 -0.39481282105E+02  0.58830696476E+02  0.75464905195E+02  0.00000000000E+00 0.  1.
         11    1    4    4    0    0 -0.11889614450E+02 -0.85685254886E+02  0.40427882143E+03  0.41343039474E+03  0.00000000000E+00 0. -1.
        -13    1    3    3    0    0 -0.63838398243E+02  0.10955485500E+03  0.57791935707E+02  0.13934674441E+03  0.00000000000E+00 0.  1.
         13    1    3    3    0    0  0.28518926055E+02  0.26722799687E+02  0.32971364894E+02  0.51132651696E+02  0.00000000000E+00 0. -1.
         21    1    1    2  502  501  0.21225833730E+02 -0.11111117698E+02  0.58580703058E+01  0.24663940110E+02  0.00000000000E+00 0.  1.
<scales pt_clust_5="13000.00000" pt_clust_6="13000.00000" pt_clust_7="13000.00000" pt_clust_8="13000.00000" pt_clust_9="23.95815"></scales>
<clustering>
<clus scale="   23.958">  2  9  1 -1</clus>
<clus scale="   90.694">  7  8 -1 -1</clus>
<clus scale="   93.182">  5  6 -1 -1</clus>
<clus scale="  157.510">  2  7  1 -1</clus>
<clus scale="  158.955">  1  5  2 -1</clus>
</clustering>
</event>
<event>
 9    1  0.1713970E-005  0.1267858E+03  0.7546771E-02  0.1233824E+00
         -1   -1    0    0    0  501 -0.00000000000E+00  0.00000000000E+00  0.26788279831E+03  0.26788279831E+03  0.00000000000E+00 0.  1.
          1   -1    0    0  502    0  0.00000000000E+00 -0.00000000000E+00 -0.70467624281E+02  0.70467624281E+02  0.00000000000E+00 0. -1.
         23    2    1    2    0    0  0.88940731981E+01 -0.93839540614E+02  0.85950412835E+02  0.15701660311E+03  0.91552041292E+02 0.  0.
         23    2    1    2    0    0  0.10701682624E+02  0.81818596887E+02  0.85929934815E+02  0.14697506379E+03  0.86075007245E+02 0.  0.
        -11    1    4    4    0    0  0.20001361760E+02 -0.27065351818E+01  0.51356175386E+02  0.55180037652E+02  0.00000000000E+00 0.  1.
         11    1    4    4    0    0 -0.92996791359E+01  0.84525132069E+02  0.34573759428E+02  0.91795026142E+02  0.00000000000E+00 0. -1.
        -13    1    3    3    0    0  0.33214415618E+02 -0.99564845116E+02  0.59583060009E+02  0.12069174300E+03  0.00000000000E+00 0.  1.
         13    1    3    3    0    0 -0.24320342420E+02  0.57253045022E+01  0.26367352826E+02  0.36324860111E+02  0.00000000000E+00 0. -1.
         21    1    1    2  502  501 -0.19595755822E+02  0.12020943726E+02  0.25534826382E+02  0.34358755691E+02  0.00000000000E+00 0. -1.
<scales pt_clust_5="13000.00000" pt_clust_6="13000.00000" pt_clust_7="13000.00000" pt_clust_8="13000.00000" pt_clust_9="22.98906"></scales>
<clustering>
<clus scale="   22.989">  1  9  2 -1</clus>
<clus scale="   86.075">  5  6 -1 -1</clus>
<clus scale="   91.552">  7  8 -1 -1</clus>
<clus scale="  122.889">  2  5  1 -1</clus>
<clus scale="  122.889">  2  5  1 -1</clus>
</clustering>
</event>
<event>
 9    1  0.1713970E-005  0.9679765E+02  0.7546771E-02  0.1288187E+00
         -1   -1    0    0    0  501 -0.00000000000E+00  0.00000000000E+00  0.72646728694E+03  0.72646728694E+03  0.00000000000E+00 0.  1.
          1   -1    0    0  502    0  0.00000000000E+00 -0.00000000000E+00 -0.20513590428E+02  0.20513590428E+02  0.00000000000E+00 0. -1.
         23    2    1    2    0    0 -0.38781098142E+01  0.15079927085E+02  0.31423587984E+03  0.32798083459E+03  0.92654172832E+02 0.  0.
         23    2    1    2    0    0  0.33929212910E+02 -0.17310182884E+02  0.18002004802E+03  0.20516836110E+03  0.90752436806E+02 0.  0.
        -11    1    3    3    0    0  0.30246688356E+02 -0.26418803253E+02  0.12836351657E+03  0.13449909928E+03  0.00000000000E+00 0. -1.
         11    1    3    3    0    0 -0.34124798170E+02  0.41498730338E+02  0.18587236327E+03  0.19348173531E+03  0.00000000000E+00 0.  1.
        -11    1    4    4    0    0  0.38102972447E+01  0.34344521479E+02  0.96109408669E+02  0.10213267330E+03  0.00000000000E+00 0.  1.
         11    1    4    4    0    0  0.30118915665E+02 -0.51654704363E+02  0.83910639351E+02  0.10303568780E+03  0.00000000000E+00 0. -1.
         21    1    1    2  502  501 -0.30051103096E+02  0.22302557991E+01  0.21169776865E+03  0.21383168168E+03  0.00000000000E+00 0.  1.
<scales pt_clust_5="13000.00000" pt_clust_6="13000.00000" pt_clust_7="13000.00000" pt_clust_8="13000.00000" pt_clust_9="30.13375"></scales>
<clustering>
<clus scale="   30.134">  1  9  2 -1</clus>
<clus scale="   90.752">  7  8 -1 -1</clus>
<clus scale="   92.654">  5  6 -1 -1</clus>
<clus scale="   94.979">  2  7  1 -1</clus>
<clus scale="   94.979">  2  5  1 -1</clus>
</clustering>
</event>
<event>
 9    1  0.1713970E-005  0.9601102E+02  0.7546771E-02  0.1290305E+00
         -3   -1    0    0    0  501 -0.00000000000E+00  0.00000000000E+00  0.13280502742E+03  0.13280502742E+03  0.00000000000E+00 0.  1.
          3   -1    0    0  502    0  0.00000000000E+00 -0.00000000000E+00 -0.12339897989E+03  0.12339897989E+03  0.00000000000E+00 0. -1.
         23    2    1    2    0    0 -0.88913359622E+01 -0.53212710518E+00  0.32059863420E+02  0.97509156632E+02  0.91656215120E+02 0.  0.
         23    2    1    2    0    0 -0.54695365933E+01  0.42205243426E+02 -0.45900411391E+02  0.10886225606E+03  0.89067079359E+02 0.  0.
        -11    1    3    3    0    0 -0.28679991083E+00  0.36948940338E+02 -0.12166600031E+02  0.38901575837E+02  0.00000000000E+00 0. -1.
         11    1    3    3    0    0 -0.86045360514E+01 -0.37481067443E+02  0.44226463451E+02  0.58607580795E+02  0.00000000000E+00 0.  1.
        -13    1    4    4    0    0  0.28568871452E+02  0.32574645573E+02 -0.57172181981E+02  0.71735251744E+02  0.00000000000E+00 0.  1.
         13    1    4    4    0    0 -0.34038408045E+02  0.96305978528E+01  0.11271770590E+02  0.37127004316E+02  0.00000000000E+00 0. -1.
         21    1    1    2  502  501  0.14360872556E+02 -0.41673116321E+02  0.23246595498E+02  0.49832594622E+02  0.00000000000E+00 0. -1.
<scales pt_clust_5="13000.00000" pt_clust_6="13000.00000" pt_clust_7="13000.00000" pt_clust_8="13000.00000" pt_clust_9="44.07815"></scales>
<clustering>
<clus scale="   44.078">  1  9  2 -1</clus>
<clus scale="   89.067">  7  8 -1 -1</clus>
<clus scale="   91.656">  5  6 -1 -1</clus>
<clus scale="   93.543">  2  7  1 -1</clus>
<clus scale="   93.543">  2  5  1 -1</clus>
</clustering>
</event>
<event>
 9    1  0.1713970E-005  0.1169167E+03  0.7546771E-02  0.1249567E+00
          1   -1    0    0  502    0  0.00000000000E+00  0.00000000000E+00  0.20402995571E+03  0.20402995571E+03  0.00000000000E+00 0. -1.
         -1   -1    0    0    0  501 -0.00000000000E+00 -0.00000000000E+00 -0.14962254415E+03  0.14962254415E+03  0.00000000000E+00 0.  1.
         23    2    1    2    0    0  0.68957411622E+01  0.11161053697E+02 -0.50396628286E+02  0.10487747015E+03  0.91034846281E+02 0.  0.
         23    2    1    2    0    0 -0.65414011356E+02 -0.62538806452E+02  0.10950519317E+03  0.17076117025E+03  0.94751753224E+02 0.  0.
        -11    1    4    4    0    0 -0.30704492722E+02 -0.78653032554E+01  0.10049720650E+03  0.10537702493E+03  0.00000000000E+00 0. -1.
         11    1    4    4    0    0 -0.34709518634E+02 -0.54673503197E+02  0.90079866758E+01  0.65384145323E+02  0.00000000000E+00 0.  1.
        -13    1    3    3    0    0  0.21974786332E+02 -0.36153708415E+02 -0.22508918332E+02  0.47923201802E+02  0.00000000000E+00 0. -1.
         13    1    3    3    0    0 -0.15079045170E+02  0.47314762112E+02 -0.27887709953E+02  0.56954268351E+02  0.00000000000E+00 0.  1.
         21    1    1    2  502  501  0.58518270194E+02  0.51377752755E+02 -0.47011533301E+01  0.78013859457E+02  0.00000000000E+00 0.  1.
<scales pt_clust_5="13000.00000" pt_clust_6="13000.00000" pt_clust_7="13000.00000" pt_clust_8="13000.00000" pt_clust_9="77.87208"></scales>
<clustering>
<clus scale="   77.872">  2  9  1 -1</clus>
<clus scale="   91.035">  7  8 -1 -1</clus>
<clus scale="   94.752">  5  6 -1 -1</clus>
<clus scale="  113.925">  2  7  1 -1</clus>
<clus scale="  116.917">  1  5  2 -1</clus>
</clustering>
</event>
<event>
 9    1  0.1713970E-005  0.1308117E+03  0.7546771E-02  0.1233891E+00
         -1   -1    0    0    0  501 -0.00000000000E+00  0.00000000000E+00  0.33155087264E+03  0.33155087264E+03  0.00000000000E+00 0.  1.
          1   -1    0    0  502    0  0.00000000000E+00 -0.00000000000E+00 -0.45026651668E+03  0.45026651668E+03  0.00000000000E+00 0. -1.
         23    2    1    2    0    0  0.73729999322E+02 -0.17950844308E+02  0.24577627833E+03  0.28176446942E+03  0.11500822417E+03 0.  0.
         23    2    1    2    0    0 -0.61071372152E+02 -0.11440747639E+02 -0.42076306276E+03  0.43531847960E+03  0.92736295437E+02 0.  0.
        -11    1    3    3    0    0  0.83364058903E+02 -0.39384877121E+02  0.24065651754E+03  0.25771358966E+03  0.00000000000E+00 0.  1.
         11    1    3    3    0    0 -0.96340595810E+01  0.21434032814E+02  0.51197607904E+01  0.24050879760E+02  0.00000000000E+00 0. -1.
        -11    1    4    4    0    0 -0.44778336250E+02  0.37690214353E+02 -0.25649505689E+03  0.26308813327E+03  0.00000000000E+00 0. -1.
         11    1    4    4    0    0 -0.16293035902E+02 -0.49130961991E+02 -0.16426800587E+03  0.17223034633E+03  0.00000000000E+00 0.  1.
         21    1    1    2  502  501 -0.12658627170E+02  0.29391591947E+02  0.56271140399E+02  0.64734440299E+02  0.00000000000E+00 0.  1.
<scales pt_clust_5="13000.00000" pt_clust_6="13000.00000" pt_clust_7="13000.00000" pt_clust_8="13000.00000" pt_clust_9="32.00166"></scales>
<clustering>
<clus scale="   32.002">  1  9  2 -1</clus>
<clus scale="   92.736">  7  8 -1 -1</clus>
<clus scale="  111.735">  2  7  1 -1</clus>
<clus scale="  115.008">  5  6 -1 -1</clus>
<clus scale="  111.735">  2  5  1 -1</clus>
</clustering>
</event>
<event>
 9    1  0.1713970E-005  0.1494306E+03  0.7546771E-02  0.1203699E+00
         -1   -1    0    0    0  501 -0.00000000000E+00  0.00000000000E+00  0.13709670006E+03  0.13709670006E+03  0.00000000000E+00 0.  1.
          1   -1    0    0  502    0  0.00000000000E+00 -0.00000000000E+00 -0.30043839507E+03  0.30043839507E+03  0.00000000000E+00 0. -1.
         23    2    1    2    0    0 -0.10489628536E+03 -0.11518941787E+03 -0.44180349650E+02  0.19222873588E+03  0.10357678761E+03 0.  0.
         23    2    1    2    0    0  0.61099535381E+02  0.66174505179E+02 -0.12499668896E+03  0.17931644933E+03  0.91749650626E+02 0.  0.
        -11    1    3    3    0    0 -0.25660398426E+02 -0.28811611997E+02  0.33924002766E+02  0.51375120408E+02  0.00000000000E+00 0. -1.
         11    1    3    3    0    0 -0.79235886936E+02 -0.86377805874E+02 -0.78104352415E+02  0.14085361547E+03  0.00000000000E+00 0.  1.
        -13    1    4    4    0    0  0.51869945171E+02  0.28309343600E+01 -0.18655569166E+02  0.55195431534E+02  0.00000000000E+00 0.  1.
         13    1    4    4    0    0  0.92295902103E+01  0.63343570819E+02 -0.10634111980E+03  0.12412101780E+03  0.00000000000E+00 0. -1.
         21    1    1    2  502  501  0.43796749980E+02  0.49014912692E+02  0.58353436020E+01  0.65989909911E+02  0.00000000000E+00 0.  1.
<scales pt_clust_5="13000.00000" pt_clust_6="13000.00000" pt_clust_7="13000.00000" pt_clust_8="13000.00000" pt_clust_9="65.73140"></scales>
<clustering>
<clus scale="   65.731">  1  9  2 -1</clus>
<clus scale="   91.750">  7  8 -1 -1</clus>
<clus scale="  103.577">  5  6 -1 -1</clus>
<clus scale="  141.490">  2  7  1 -1</clus>
<clus scale="  141.490">  2  5  1 -1</clus>
</clustering>
</event>
<event>
 9    1  0.1713970E-005  0.9197115E+02  0.7546771E-02  0.1298387E+00
          3   -1    0    0  502    0  0.00000000000E+00  0.00000000000E+00  0.21818086899E+03  0.21818086899E+03  0.00000000000E+00 0. -1.
         -3   -1    0    0    0  501 -0.00000000000E+00 -0.00000000000E+00 -0.17679581648E+03  0.17679581648E+03  0.00000000000E+00 0.  1.
         23    2    1    2    0    0 -0.35713653495E+02  0.35756217559E+01 -0.44360978888E+02  0.10751702954E+03  0.91124996984E+02 0.  0.
         23    2    1    2    0    0  0.39170535187E+01  0.49695955381E+01  0.17210621330E+03  0.19503603596E+03  0.91533963531E+02 0.  0.
        -11    1    3    3    0    0 -0.36611197541E+02  0.34133170253E+02 -0.55722857299E+02  0.74903203686E+02  0.00000000000E+00 0. -1.
         11    1    3    3    0    0  0.89754404517E+00 -0.30557548497E+02  0.11361878412E+02  0.32613825849E+02  0.00000000000E+00 0.  1.
        -13    1    4    4    0    0  0.43943359728E+02 -0.47250803685E+01  0.12437089974E+03  0.13199040098E+03  0.00000000000E+00 0.  1.
         13    1    4    4    0    0 -0.40026306210E+02  0.96946759066E+01  0.47735313559E+02  0.63045634983E+02  0.00000000000E+00 0. -1.
         21    1    1    2  502  501  0.31796599977E+02 -0.85452172940E+01 -0.86360181906E+02  0.92423619965E+02  0.00000000000E+00 0.  1.
<scales pt_clust_5="13000.00000" pt_clust_6="13000.00000" pt_clust_7="13000.00000" pt_clust_8="13000.00000" pt_clust_9="32.92483"></scales>
<clustering>
<clus scale="   32.925">  2  9  1 -1</clus>
<clus scale="   91.125">  5  6 -1 -1</clus>
<clus scale="   91.534">  7  8 -1 -1</clus>
<clus scale="   91.564">  2  5  1 -1</clus>
<clus scale="   91.971">  1  5  2 -1</clus>
</clustering>
</event>
<event>
 9    1  0.1713970E-005  0.9755347E+02  0.7546771E-02  0.1285817E+00
         -1   -1    0    0    0  501 -0.00000000000E+00  0.00000000000E+00  0.46390708039E+02  0.46390708039E+02  0.00000000000E+00 0.  1.
          1   -1    0    0  502    0  0.00000000000E+00 -0.00000000000E+00 -0.44051212418E+03  0.44051212418E+03  0.00000000000E+00 0. -1.
         23    2    1    2    0    0 -0.11484041138E+02  0.80728832324E+01 -0.55924661838E+02  0.10717360764E+03  0.90341351150E+02 0.  0.
         23    2    1    2    0    0  0.35586013694E+02 -0.21162162679E+02 -0.33783965854E+03  0.35230000960E+03  0.90914577365E+02 0.  0.
        -11    1    4    4    0    0 -0.27622397844E+02 -0.15206946826E+01 -0.16339178495E+03  0.16571718307E+03  0.00000000000E+00 0. -1.
         11    1    4    4    0    0  0.63208411538E+02 -0.19641467996E+02 -0.17444787360E+03  0.18658282653E+03  0.00000000000E+00 0.  1.
        -11    1    3    3    0    0  0.22892417384E+02 -0.20020361021E+02 -0.54906579683E+02  0.62766313590E+02  0.00000000000E+00 0.  1.
         11    1    3    3    0    0 -0.34376458523E+02  0.28093244254E+02 -0.10180821549E+01  0.44407294047E+02  0.00000000000E+00 0. -1.
         21    1    1    2  502  501 -0.24101972556E+02  0.13089279446E+02 -0.35709576329E+00  0.27429214989E+02  0.00000000000E+00 0.  1.
<scales pt_clust_5="13000.00000" pt_clust_6="13000.00000" pt_clust_7="13000.00000" pt_clust_8="13000.00000" pt_clust_9="27.42689"></scales>
<clustering>
<clus scale="   27.427">  1  9  2 -1</clus>
<clus scale="   90.341">  7  8 -1 -1</clus>
<clus scale="   90.915">  5  6 -1 -1</clus>
<clus scale="   97.019">  1  7  2 -1</clus>
<clus scale="   97.553">  2  5  1 -1</clus>
</clustering>
</event>
<event>
 9    1  0.1713970E-005  0.1173114E+03  0.7546771E-02  0.1247696E+00
          1   -1    0    0  502    0  0.00000000000E+00  0.00000000000E+00  0.12251691013E+03  0.12251691013E+03  0.00000000000E+00 0. -1.
         -1   -1    0    0    0  501 -0.00000000000E+00 -0.00000000000E+00 -0.16174809022E+03  0.16174809022E+03  0.00000000000E+00 0.  1.
         23    2    1    2    0    0 -0.40996425843E+02  0.60928048372E+02 -0.19810069333E+02  0.11844730698E+03  0.90798632553E+02 0.  0.
         23    2    1    2    0    0  0.22255301091E+02 -0.72255799515E+02  0.20635707918E+02  0.12016578842E+03  0.91092180105E+02 0.  0.
        -11    1    4    4    0    0 -0.29845524599E+02 -0.56584108030E+02  0.10891950690E+02  0.64893383407E+02  0.00000000000E+00 0. -1.
         11    1    4    4    0    0  0.52100825690E+02 -0.15671691485E+02  0.97437572276E+01  0.55272405018E+02  0.00000000000E+00 0.  1.
        -13    1    3    3    0    0 -0.69355556860E+02  0.53130339722E+02 -0.14897030778E+02  0.88628143342E+02  0.00000000000E+00 0. -1.
         13    1    3    3    0    0  0.28359131016E+02  0.77977086499E+01 -0.49130385554E+01  0.29819163637E+02  0.00000000000E+00 0.  1.
         21    1    1    2  502  501  0.18741124753E+02  0.11327751143E+02 -0.40056818677E+02  0.45651904949E+02  0.00000000000E+00 0.  1.
<scales pt_clust_5="13000.00000" pt_clust_6="13000.00000" pt_clust_7="13000.00000" pt_clust_8="13000.00000" pt_clust_9="21.89858"></scales>
<clustering>
<clus scale="   21.899">  2  9  1 -1</clus>
<clus scale="   90.799">  7  8 -1 -1</clus>
<clus scale="   91.092">  5  6 -1 -1</clus>
<clus scale="  117.084">  2  7  1 -1</clus>
<clus scale="  117.311">  1  5  2 -1</clus>
</clustering>
</event>
<event>
 9    1  0.1713970E-005  0.1647316E+03  0.7546771E-02  0.1186968E+00
         -2   -1    0    0    0  501 -0.00000000000E+00  0.00000000000E+00  0.28417555576E+03  0.28417555576E+03  0.00000000000E+00 0.  1.
          2   -1    0    0  502    0  0.00000000000E+00 -0.00000000000E+00 -0.13348985252E+03  0.13348985252E+03  0.00000000000E+00 0. -1.
         23    2    1    2    0    0 -0.10679425806E+03  0.35891154860E+02  0.16234588918E+03  0.22728682842E+03  0.11229392721E+03 0.  0.
         23    2    1    2    0    0  0.12137685220E+03 -0.21696835444E+02 -0.35975690876E+02  0.15867093827E+03  0.93161812977E+02 0.  0.
        -11    1    4    4    0    0  0.11376523533E+03  0.17012499186E+02 -0.24887738311E+02  0.11769177294E+03  0.00000000000E+00 0. -1.
         11    1    4    4    0    0  0.76116168698E+01 -0.38709334630E+02 -0.11087952565E+02  0.40979165328E+02  0.00000000000E+00 0.  1.
        -13    1    3    3    0    0 -0.64383878854E+01  0.56157768003E+02  0.52885432134E+02  0.77408117647E+02  0.00000000000E+00 0. -1.
         13    1    3    3    0    0 -0.10035587018E+03 -0.20266613143E+02  0.10946045705E+03  0.14987871078E+03  0.00000000000E+00 0.  1.
         21    1    1    2  502  501 -0.14582594141E+02 -0.14194319416E+02  0.24315504930E+02  0.31707641596E+02  0.00000000000E+00 0. -1.
<scales pt_clust_5="13000.00000" pt_clust_6="13000.00000" pt_clust_7="13000.00000" pt_clust_8="13000.00000" pt_clust_9="20.35020"></scales>
<clustering>
<clus scale="   20.350">  1  9  2 -1</clus>
<clus scale="   93.162">  5  6 -1 -1</clus>
<clus scale="  112.294">  7  8 -1 -1</clus>
<clus scale="  152.334">  2  5  1 -1</clus>
<clus scale="  152.334">  2  5  1 -1</clus>
</clustering>
</event>
<event>
 9    1  0.1713970E-005  0.1068864E+03  0.7546771E-02  0.1267392E+00
          1   -1    0    0  502    0  0.00000000000E+00  0.00000000000E+00  0.32894072166E+03  0.32894072166E+03  0.00000000000E+00 0. -1.
         -1   -1    0    0    0  501 -0.00000000000E+00 -0.00000000000E+00 -0.74469301682E+02  0.74469301682E+02  0.00000000000E+00 0.  1.
         23    2    1    2    0    0 -0.48315247293E+02  0.26835681273E+02  0.53915032020E+02  0.11987100272E+03  0.91693564140E+02 0.  0.
         23    2    1    2    0    0  0.29096448222E+02 -0.48822307227E+02  0.22287996362E+03  0.24678149093E+03  0.89417029157E+02 0.  0.
        -11    1    4    4    0    0 -0.21108438940E+02  0.10377443502E+02  0.25522582396E+02  0.34708208543E+02  0.00000000000E+00 0.  1.
         11    1    4    4    0    0  0.50204887162E+02 -0.59199750729E+02  0.19735738122E+03  0.21207328239E+03  0.00000000000E+00 0. -1.
        -13    1    3    3    0    0 -0.74898931772E+02  0.24573312454E+02  0.31008076326E+02  0.84706543212E+02  0.00000000000E+00 0. -1.
         13    1    3    3    0    0  0.26583684479E+02  0.22623688196E+01  0.22906955694E+02  0.35164459506E+02  0.00000000000E+00 0.  1.
         21    1    1    2  502  501  0.19218799071E+02  0.21986625954E+02 -0.22323575660E+02  0.36757529689E+02  0.00000000000E+00 0.  1.
<scales pt_clust_5="13000.00000" pt_clust_6="13000.00000" pt_clust_7="13000.00000" pt_clust_8="13000.00000" pt_clust_9="29.20229"></scales>
<clustering>
<clus scale="   29.202">  2  9  1 -1</clus>
<clus scale="   89.417">  5  6 -1 -1</clus>
<clus scale="   91.694">  7  8 -1 -1</clus>
<clus scale="  104.940">  1  5  2 -1</clus>
<clus scale="  104.940">  1  5  2 -1</clus>
</clustering>
</event>
<event>
 9    1  0.1713970E-005  0.1838106E+03  0.7546771E-02  0.1164412E+00
         -1   -1    0    0    0  501 -0.00000000000E+00  0.00000000000E+00  0.57554348961E+03  0.57554348961E+03  0.00000000000E+00 0.  1.
          1   -1    0    0  502    0  0.00000000000E+00 -0.00000000000E+00 -0.75135450428E+02  0.75135450428E+02  0.00000000000E+00 0. -1.
         23    2    1    2    0    0 -0.36691284053E+02 -0.16116814639E+03  0.34136522859E+03  0.38988548923E+03  0.90327480253E+02 0.  0.
         23    2    1    2    0    0  0.59093955273E+02  0.14050586584E+03  0.13855518682E+03  0.22407081143E+03  0.88182735564E+02 0.  0.
        -11    1    3    3    0    0 -0.15210944164E+02 -0.14142193302E+03  0.19927610621E+03  0.24483157980E+03  0.00000000000E+00 0.  1.
         11    1    3    3    0    0 -0.21480339889E+02 -0.19746213375E+02  0.14208912237E+03  0.14505390943E+03  0.00000000000E+00 0. -1.
        -13    1    4    4    0    0  0.44146945699E+02  0.17420675189E+02  0.62994463557E+02  0.78871637344E+02  0.00000000000E+00 0.  1.
         13    1    4    4    0    0  0.14947009574E+02  0.12308519066E+03  0.75560723268E+02  0.14519917408E+03  0.00000000000E+00 0. -1.
         21    1    1    2  502  501 -0.22402671220E+02  0.20662280545E+02  0.20487623768E+02  0.36722639376E+02  0.00000000000E+00 0. -1.
<scales pt_clust_5="13000.00000" pt_clust_6="13000.00000" pt_clust_7="13000.00000" pt_clust_8="13000.00000" pt_clust_9="30.47638"></scales>
<clustering>
<clus scale="   30.476">  2  9  1 -1</clus>
<clus scale="   88.183">  7  8 -1 -1</clus>
<clus scale="   90.327">  5  6 -1 -1</clus>
<clus scale="  182.766">  2  7  1 -1</clus>
<clus scale="   30.476">  2  5  1 -1</clus>
</clustering>
</event>
<event>
 9    1  0.1713970E-005  0.9291899E+02  0.7546771E-02  0.1296180E+00
          1   -1    0    0  502    0  0.00000000000E+00  0.00000000000E+00  0.55471095038E+02  0.55471095038E+02  0.00000000000E+00 0. -1.
         -1   -1    0    0    0  501 -0.00000000000E+00 -0.00000000000E+00 -0.38247679895E+03  0.38247679895E+03  0.00000000000E+00 0.  1.
         23    2    1    2    0    0 -0.37478497641E+02  0.48573394308E+01 -0.24763388386E+03  0.26679026686E+03  0.91794741262E+02 0.  0.
         23    2    1    2    0    0  0.18325772994E+00 -0.14493724989E+02 -0.11638476360E+02  0.93237150397E+02  0.91365258357E+02 0.  0.
        -11    1    3    3    0    0 -0.33289157623E+02  0.39751681768E+02 -0.78736912379E+02  0.94275477138E+02  0.00000000000E+00 0. -1.
         11    1    3    3    0    0 -0.41893400182E+01 -0.34894342337E+02 -0.16889697149E+03  0.17251478973E+03  0.00000000000E+00 0.  1.
        -13    1    4    4    0    0  0.27626821579E+02  0.29364809663E+02 -0.53194257702E+00  0.40321412178E+02  0.00000000000E+00 0. -1.
         13    1    4    4    0    0 -0.27443563849E+02 -0.43858534652E+02 -0.11106533783E+02  0.52915738219E+02  0.00000000000E+00 0.  1.
         21    1    1    2  502  501  0.37295239911E+02  0.96363855580E+01 -0.67733343691E+02  0.77920476732E+02  0.00000000000E+00 0.  1.
<scales pt_clust_5="13000.00000" pt_clust_6="13000.00000" pt_clust_7="13000.00000" pt_clust_8="13000.00000" pt_clust_9="38.52006"></scales>
<clustering>
<clus scale="   38.520">  2  9  1 -1</clus>
<clus scale="   91.365">  7  8 -1 -1</clus>
<clus scale="   91.795">  5  6 -1 -1</clus>
<clus scale="   92.495">  1  7  2 -1</clus>
<clus scale="   92.495">  1  5  2 -1</clus>
</clustering>
</event>
<event>
 9    1  0.1713970E-005  0.1017418E+03  0.7546771E-02  0.1277795E+00
         -1   -1    0    0    0  501 -0.00000000000E+00  0.00000000000E+00  0.58147781509E+02  0.58147781509E+02  0.00000000000E+00 0.  1.
          1   -1    0    0  502    0  0.00000000000E+00 -0.00000000000E+00 -0.23934062422E+03  0.23934062422E+03  0.00000000000E+00 0. -1.
         23    2    1    2    0    0  0.51807730578E+02 -0.19542163889E+02 -0.95796380034E+02  0.14204107697E+03  0.89066177653E+02 0.  0.
         23    2    1    2    0    0 -0.34560792112E+02  0.50567029168E+01 -0.89382992950E+02  0.13257424655E+03  0.91469081250E+02 0.  0.
        -11    1    4    4    0    0 -0.59325673920E+02 -0.20001662076E+02 -0.54711354684E+02  0.83144058135E+02  0.00000000000E+00 0. -1.
         11    1    4    4    0    0  0.24764881808E+02  0.25058364992E+02 -0.34671638266E+02  0.49430188419E+02  0.00000000000E+00 0.  1.
        -13    1    3    3    0    0  0.31987409270E+02  0.14094009710E+02  0.37086957577E+01  0.35150958532E+02  0.00000000000E+00 0.  1.
         13    1    3    3    0    0  0.19820321308E+02 -0.33636173599E+02 -0.99505075791E+02  0.10689011844E+03  0.00000000000E+00 0. -1.
         21    1    1    2  502  501 -0.17246938466E+02  0.14485460972E+02  0.39865302724E+01  0.22873082207E+02  0.00000000000E+00 0.  1.
<scales pt_clust_5="13000.00000" pt_clust_6="13000.00000" pt_clust_7="13000.00000" pt_clust_8="13000.00000" pt_clust_9="22.52300"></scales>
<clustering>
<clus scale="   22.523">  1  9  2 -1</clus>
<clus scale="   89.066">  7  8 -1 -1</clus>
<clus scale="   91.469">  5  6 -1 -1</clus>
<clus scale="   99.587">  1  7  2 -1</clus>
<clus scale="  101.742">  2  5  1 -1</clus>
</clustering>
</event>
<event>
 9    1  0.1713970E-005  0.1268644E+03  0.7546771E-02  0.1241583E+00
          1   -1    0    0  502    0  0.00000000000E+00  0.00000000000E+00  0.35962083984E+03  0.35962083984E+03  0.00000000000E+00 0. -1.
         -1   -1    0    0    0  501 -0.00000000000E+00 -0.00000000000E+00 -0.11639974891E+03  0.11639974891E+03  0.00000000000E+00 0.  1.
         23    2    1    2    0    0  0.88279156127E+02 -0.15305929017E+02  0.16841263596E+02  0.12924972116E+03  0.91620856752E+02 0.  0.
         23    2    1    2    0    0 -0.40734711959E+02  0.54889267813E+01  0.25996319118E+03  0.28773960442E+03  0.11629176285E+03 0.  0.
        -11    1    4    4    0    0  0.10100142580E+02 -0.39623878183E+02  0.38802537378E+02  0.56371105270E+02  0.00000000000E+00 0.  1.
         11    1    4    4    0    0 -0.50834854540E+02  0.45112804964E+02  0.22116065381E+03  0.23136849915E+03  0.00000000000E+00 0. -1.
        -13    1    3    3    0    0  0.79218375055E+02  0.15851764089E+02  0.39246940334E+02  0.89817324034E+02  0.00000000000E+00 0. -1.
         13    1    3    3    0    0  0.90607810720E+01 -0.31157693107E+02 -0.22405676738E+02  0.39432397130E+02  0.00000000000E+00 0.  1.
         21    1    1    2  502  501 -0.47544444167E+02  0.98170022358E+01 -0.33583363846E+02  0.59031263168E+02  0.00000000000E+00 0.  1.
<scales pt_clust_5="13000.00000" pt_clust_6="13000.00000" pt_clust_7="13000.00000" pt_clust_8="13000.00000" pt_clust_9="48.54738"></scales>
<clustering>
<clus scale="   48.547">  2  9  1 -1</clus>
<clus scale="   91.621">  7  8 -1 -1</clus>
<clus scale="  104.715">  2  7  1 -1</clus>
<clus scale="  116.292">  5  6 -1 -1</clus>
<clus scale="  126.864">  1  5  2 -1</clus>
</clustering>
</event>
<event>
 9    1  0.1713970E-005  0.2396631E+03  0.7546771E-02  0.1142347E+00
         -4   -1    0    0    0  501 -0.00000000000E+00  0.00000000000E+00  0.18792353249E+03  0.18792353249E+03  0.00000000000E+00 0.  1.
          4   -1    0    0  502    0  0.00000000000E+00 -0.00000000000E+00 -0.81150293649E+03  0.81150293649E+03  0.00000000000E+00 0. -1.
         23    2    1    2    0    0  0.21574430375E+03  0.11988454763E+02 -0.73328798567E+02  0.24731341504E+03  0.95380736588E+02 0.  0.
         23    2    1    2    0    0 -0.12406728125E+02  0.10742561227E+03 -0.48928441780E+03  0.50855040266E+03  0.86776042022E+02 0.  0.
        -11    1    3    3    0    0  0.20225251030E+03  0.37976240146E+02 -0.55926174326E+02  0.21325104856E+03  0.00000000000E+00 0.  1.
         11    1    3    3    0    0  0.13491793449E+02 -0.25987785383E+02 -0.17402624241E+02  0.34062366478E+02  0.00000000000E+00 0. -1.
        -11    1    4    4    0    0  0.82249076016E+01  0.11601084167E+03 -0.41164222163E+03  0.42775633615E+03  0.00000000000E+00 0.  1.
         11    1    4    4    0    0 -0.20631635727E+02 -0.85852294018E+01 -0.77642196174E+02  0.80794066511E+02  0.00000000000E+00 0. -1.
         21    1    1    2  502  501 -0.20333757562E+03 -0.11941406703E+03 -0.60966187627E+02  0.24356265128E+03  0.00000000000E+00 0. -1.
<scales pt_clust_5="13000.00000" pt_clust_6="13000.00000" pt_clust_7="13000.00000" pt_clust_8="13000.00000" pt_clust_9="219.86567"></scales>
<clustering>
<clus scale="   86.776">  7  8 -1 -1</clus>
<clus scale="   95.381">  5  6 -1 -1</clus>
<clus scale="  138.652">  2  7  1 -1</clus>
<clus scale="  219.866">  2  9  1 -1</clus>
<clus scale="  138.652">  2  5  1 -1</clus>
</clustering>
</event>
<event>
 9    1  0.1713970E-005  0.1048017E+03  0.7546771E-02  0.1271756E+00
         -1   -1    0    0    0  501 -0.00000000000E+00  0.00000000000E+00  0.16252982376E+03  0.16252982376E+03  0.00000000000E+00 0.  1.
          1   -1    0    0  502    0  0.00000000000E+00 -0.00000000000E+00 -0.10194259763E+03  0.10194259763E+03  0.00000000000E+00 0. -1.
         23    2    1    2    0    0 -0.34594414189E+02  0.43227519379E+02  0.67688764779E+02  0.12779317586E+03  0.93187633271E+02 0.  0.
         23    2    1    2    0    0 -0.20099987105E+01 -0.42465746417E+02 -0.56251182610E+01  0.10003715008E+03  0.90379254957E+02 0.  0.
        -11    1    4    4    0    0  0.38062898432E+02  0.35519941245E+01 -0.76374702642E+01  0.38983738293E+02  0.00000000000E+00 0.  1.
         11    1    4    4    0    0 -0.40072897142E+02 -0.46017740542E+02  0.20123520032E+01  0.61053411785E+02  0.00000000000E+00 0. -1.
        -11    1    3    3    0    0  0.56983432302E+01  0.60377388529E+02  0.22014117932E+02  0.64517606508E+02  0.00000000000E+00 0. -1.
         11    1    3    3    0    0 -0.40292757419E+02 -0.17149869151E+02  0.45674646847E+02  0.63275569353E+02  0.00000000000E+00 0.  1.
         21    1    1    2  502  501  0.36604412899E+02 -0.76177296130E+00 -0.14764203953E+01  0.36642095450E+02  0.00000000000E+00 0.  1.
<scales pt_clust_5="13000.00000" pt_clust_6="13000.00000" pt_clust_7="13000.00000" pt_clust_8="13000.00000" pt_clust_9="36.61234"></scales>
<clustering>
<clus scale="   36.612">  2  9  1 -1</clus>
<clus scale="   90.379">  5  6 -1 -1</clus>
<clus scale="   93.188">  7  8 -1 -1</clus>
<clus scale="  102.313">  2  5  1 -1</clus>
<clus scale="   36.612">  2  5  1 -1</clus>
</clustering>
</event>
<event>
 9    1  0.1713970E-005  0.1767517E+03  0.7546771E-02  0.1171244E+00
          2   -1    0    0  502    0  0.00000000000E+00  0.00000000000E+00  0.91563949819E+03  0.91563949819E+03  0.00000000000E+00 0. -1.
         -2   -1    0    0    0  501 -0.00000000000E+00 -0.00000000000E+00 -0.78615983721E+02  0.78615983721E+02  0.00000000000E+00 0.  1.
         23    2    1    2    0    0  0.16304728174E+03 -0.11565374837E+03  0.26849435474E+03  0.34655996880E+03  0.89746241452E+02 0.  0.
         23    2    1    2    0    0 -0.54989205867E+02  0.12916946396E+03  0.47636470465E+03  0.50502978804E+03  0.91777948271E+02 0.  0.
        -11    1    3    3    0    0  0.11612581856E+03 -0.11754944976E+03  0.24080479791E+03  0.29204456779E+03  0.00000000000E+00 0. -1.
         11    1    3    3    0    0  0.46921463179E+02  0.18957013949E+01  0.27689556826E+02  0.54515401015E+02  0.00000000000E+00 0.  1.
        -11    1    4    4    0    0 -0.75350461348E+02  0.10908118910E+03  0.32525186825E+03  0.35123379057E+03  0.00000000000E+00 0.  1.
         11    1    4    4    0    0  0.20361255481E+02  0.20088274863E+02  0.15111283640E+03  0.15379599746E+03  0.00000000000E+00 0. -1.
         21    1    1    2  502  501 -0.10805807588E+03 -0.13515715593E+02  0.92164455092E+02  0.14266572508E+03  0.00000000000E+00 0.  1.
<scales pt_clust_5="13000.00000" pt_clust_6="13000.00000" pt_clust_7="13000.00000" pt_clust_8="13000.00000" pt_clust_9="108.90006"></scales>
<clustering>
<clus scale="   89.746">  5  6 -1 -1</clus>
<clus scale="   91.778">  7  8 -1 -1</clus>
<clus scale="  108.900">  2  9  1 -1</clus>
<clus scale="  175.705">  2  5  1 -1</clus>
<clus scale="  176.752">  1  5  2 -1</clus>
</clustering>
</event>
<event>
 9    1  0.1713970E-005  0.1147088E+03  0.7546771E-02  0.1255023E+00
         -1   -1    0    0    0  501 -0.00000000000E+00  0.00000000000E+00  0.36741359876E+03  0.36741359876E+03  0.00000000000E+00 0.  1.
          1   -1    0    0  502    0  0.00000000000E+00 -0.00000000000E+00 -0.83835338128E+02  0.83835338128E+02  0.00000000000E+00 0. -1.
         23    2    1    2    0    0  0.50943289419E+02  0.68669312868E+02  0.72438074999E+02  0.14458391557E+03  0.91359403822E+02 0.  0.
         23    2    1    2    0    0 -0.31257181192E+02 -0.52477083421E+02  0.96348424214E+01  0.10355388303E+03  0.83064558278E+02 0.  0.
        -11    1    3    3    0    0 -0.25740213731E+02  0.75659731292E+01  0.11897899897E+02  0.29348979101E+02  0.00000000000E+00 0.  1.
         11    1    3    3    0    0  0.76683503150E+02  0.61103339738E+02  0.60540175102E+02  0.11523493647E+03  0.00000000000E+00 0. -1.
        -13    1    4    4    0    0 -0.39337062710E+02 -0.22659741610E+02  0.39802446967E+02  0.60374689871E+02  0.00000000000E+00 0.  1.
         13    1    4    4    0    0  0.80798815179E+01 -0.29817341811E+02 -0.30167604545E+02  0.43179193161E+02  0.00000000000E+00 0. -1.
         21    1    1    2  502  501 -0.19686108227E+02 -0.16192229446E+02  0.20150534321E+03  0.20311113828E+03  0.00000000000E+00 0.  1.
<scales pt_clust_5="13000.00000" pt_clust_6="13000.00000" pt_clust_7="13000.00000" pt_clust_8="13000.00000" pt_clust_9="25.48982"></scales>
<clustering>
<clus scale="   25.490">  1  9  2 -1</clus>
<clus scale="   83.065">  7  8 -1 -1</clus>
<clus scale="   91.359">  5  6 -1 -1</clus>
<clus scale="  108.219">  2  7  1 -1</clus>
<clus scale="  108.219">  2  5  1 -1</clus>
</clustering>
</event>
<event>
 9    1  0.1713970E-005  0.9342818E+02  0.7546771E-02  0.1295753E+00
          2   -1    0    0  502    0  0.00000000000E+00  0.00000000000E+00  0.11035555725E+03  0.11035555725E+03  0.00000000000E+00 0. -1.
         -2   -1    0    0    0  501 -0.00000000000E+00 -0.00000000000E+00 -0.14581979126E+03  0.14581979126E+03  0.00000000000E+00 0.  1.
         23    2    1    2    0    0  0.40825048699E+02  0.33180819314E-01 -0.10471621012E+02  0.10066821496E+03  0.91420724972E+02 0.  0.
         23    2    1    2    0    0  0.39750257409E+01 -0.21196022987E+02  0.12911901200E+02  0.93123924632E+02  0.89667585705E+02 0.  0.
        -11    1    4    4    0    0 -0.32679752710E+02 -0.68843368815E+01  0.34686855346E+02  0.48151202116E+02  0.00000000000E+00 0. -1.
         11    1    4    4    0    0  0.36654778451E+02 -0.14311686106E+02 -0.21774954146E+02  0.44972722516E+02  0.00000000000E+00 0.  1.
        -13    1    3    3    0    0  0.18675664458E+02 -0.34133344178E+02 -0.35669436586E+02  0.52784224292E+02  0.00000000000E+00 0.  1.
         13    1    3    3    0    0  0.22149384242E+02  0.34166524998E+02  0.25197815574E+02  0.47883990669E+02  0.00000000000E+00 0. -1.
         21    1    1    2  502  501 -0.44800074440E+02  0.21162842168E+02 -0.37904514198E+02  0.62383208919E+02  0.00000000000E+00 0. -1.
<scales pt_clust_5="13000.00000" pt_clust_6="13000.00000" pt_clust_7="13000.00000" pt_clust_8="13000.00000" pt_clust_9="49.54707"></scales>
<clustering>
<clus scale="   49.547">  2  9  1 -1</clus>
<clus scale="   89.668">  5  6 -1 -1</clus>
<clus scale="   91.421">  7  8 -1 -1</clus>
<clus scale="   91.713">  1  5  2 -1</clus>
<clus scale="   91.713">  1  5  2 -1</clus>
</clustering>
</event>
<event>
 9    1  0.1713970E-005  0.1213475E+03  0.7546771E-02  0.1241685E+00
          2   -1    0    0  502    0  0.00000000000E+00  0.00000000000E+00  0.23211356381E+02  0.23211356381E+02  0.00000000000E+00 0. -1.
         -2   -1    0    0    0  501 -0.00000000000E+00 -0.00000000000E+00 -0.87779881288E+03  0.87779881288E+03  0.00000000000E+00 0.  1.
         23    2    1    2    0    0 -0.57841346062E+02  0.49226829024E+01 -0.47101195898E+03  0.48382641871E+03  0.94158822269E+02 0.  0.
         23    2    1    2    0    0  0.86492823848E+02 -0.41266039404E+01 -0.24351888051E+03  0.27422432664E+03  0.91648779125E+02 0.  0.
        -11    1    3    3    0    0 -0.21075570443E+02 -0.44049503436E+02 -0.23308621253E+03  0.23814642743E+03  0.00000000000E+00 0.  1.
         11    1    3    3    0    0 -0.36765775619E+02  0.48972186338E+02 -0.23792574645E+03  0.24567999128E+03  0.00000000000E+00 0. -1.
        -11    1    4    4    0    0  0.94056494578E+02 -0.28352087831E+02 -0.21278011127E+03  0.23436262673E+03  0.00000000000E+00 0. -1.
         11    1    4    4    0    0 -0.75636707296E+01  0.24225483891E+02 -0.30738769243E+02  0.39861699904E+02  0.00000000000E+00 0.  1.
         21    1    1    2  502  501 -0.28651477786E+02 -0.79607896205E+00 -0.14005661700E+03  0.14295942392E+03  0.00000000000E+00 0. -1.
<scales pt_clust_5="13000.00000" pt_clust_6="13000.00000" pt_clust_7="13000.00000" pt_clust_8="13000.00000" pt_clust_9="28.66254"></scales>
<clustering>
<clus scale="   28.663">  2  9  1 -1</clus>
<clus scale="   91.649">  7  8 -1 -1</clus>
<clus scale="   94.159">  5  6 -1 -1</clus>
<clus scale="  119.410">  1  7  2 -1</clus>
<clus scale="  119.410">  1  5  2 -1</clus>
</clustering>
</event>
<event>
 9    1  0.1713970E-005  0.1044352E+03  0.7546771E-02  0.1272809E+00
         -1   -1    0    0    0  501 -0.00000000000E+00  0.00000000000E+00  0.93073536903E+02  0.93073536903E+02  0.00000000000E+00 0.  1.
          1   -1    0    0  502    0  0.00000000000E+00 -0.00000000000E+00 -0.21798498727E+03  0.21798498727E+03  0.00000000000E+00 0. -1.
         23    2    1    2    0    0 -0.56488840205E+02  0.33844124955E+02 -0.43244342208E+02  0.11694544204E+03  0.86427712105E+02 0.  0.
         23    2    1    2    0    0  0.44700036845E+02 -0.13560773281E+02 -0.11499718137E+03  0.15335423008E+03  0.90062091338E+02 0.  0.
        -11    1    3    3    0    0 -0.26625261998E+02  0.60959407969E+02 -0.37029890632E+02  0.76132560686E+02  0.00000000000E+00 0.  1.
         11    1    3    3    0    0 -0.29863578207E+02 -0.27115283014E+02 -0.62144515768E+01  0.40812881357E+02  0.00000000000E+00 0. -1.
        -13    1    4    4    0    0 -0.24997419430E+02 -0.95221182150E+01 -0.12971902864E+02  0.29728975384E+02  0.00000000000E+00 0.  1.
         13    1    4    4    0    0  0.69697456275E+02 -0.40386550664E+01 -0.10202527850E+03  0.12362525470E+03  0.00000000000E+00 0. -1.
         21    1    1    2  502  501  0.11788803361E+02 -0.20283351674E+02  0.33330073211E+02  0.40758852045E+02  0.00000000000E+00 0. -1.
<scales pt_clust_5="13000.00000" pt_clust_6="13000.00000" pt_clust_7="13000.00000" pt_clust_8="13000.00000" pt_clust_9="23.46040"></scales>
<clustering>
<clus scale="   23.460">  1  9  2 -1</clus>
<clus scale="   86.428">  5  6 -1 -1</clus>
<clus scale="   90.062">  7  8 -1 -1</clus>
<clus scale="  101.318">  1  5  2 -1</clus>
<clus scale="  104.435">  2  5  1 -1</clus>
</clustering>
</event>
<event>
 9    1  0.1713970E-005  0.1056175E+03  0.7546771E-02  0.1269054E+00
         -1   -1    0    0    0  501 -0.00000000000E+00  0.00000000000E+00  0.17775682699E+03  0.17775682699E+03  0.00000000000E+00 0.  1.
          1   -1    0    0  502    0  0.00000000000E+00 -0.00000000000E+00 -0.11540407303E+03  0.11540407303E+03  0.00000000000E+00 0. -1.
         23    2    1    2    0    0 -0.46911374660E+02  0.48758665318E+02  0.25797773050E+02  0.11640549908E+03  0.91140718707E+02 0.  0.
         23    2    1    2    0    0  0.29027473479E+02 -0.34180991901E+02 -0.30084716092E+02  0.10623454090E+03  0.91486354800E+02 0.  0.
        -11    1    4    4    0    0  0.38235804012E+02  0.12086544556E+02 -0.41488724828E+02  0.57700741378E+02  0.00000000000E+00 0.  1.
         11    1    4    4    0    0 -0.92083305335E+01 -0.46267536457E+02  0.11404008736E+02  0.48533799524E+02  0.00000000000E+00 0. -1.
        -11    1    3    3    0    0 -0.12085032835E+02  0.40923969359E+02 -0.28579939975E+02  0.51357884066E+02  0.00000000000E+00 0. -1.
         11    1    3    3    0    0 -0.34826341825E+02  0.78346959596E+01  0.54377713025E+02  0.65047615017E+02  0.00000000000E+00 0.  1.
         21    1    1    2  502  501  0.17883901181E+02 -0.14577673418E+02  0.66639697000E+02  0.70520860034E+02  0.00000000000E+00 0.  1.
<scales pt_clust_5="13000.00000" pt_clust_6="13000.00000" pt_clust_7="13000.00000" pt_clust_8="13000.00000" pt_clust_9="23.07255"></scales>
<clustering>
<clus scale="   23.073">  1  9  2 -1</clus>
<clus scale="   91.141">  7  8 -1 -1</clus>
<clus scale="   91.486">  5  6 -1 -1</clus>
<clus scale="  105.318">  1  7  2 -1</clus>
<clus scale="  105.618">  2  5  1 -1</clus>
</clustering>
</event>
<event>
 9    1  0.1713970E-005  0.1670146E+03  0.7546771E-02  0.1181359E+00
         -2   -1    0    0    0  501 -0.00000000000E+00  0.00000000000E+00  0.10829399536E+03  0.10829399536E+03  0.00000000000E+00 0.  1.
          2   -1    0    0  502    0  0.00000000000E+00 -0.00000000000E+00 -0.71564610838E+03  0.71564610838E+03  0.00000000000E+00 0. -1.
         23    2    1    2    0    0 -0.46692023160E+02 -0.11458727932E+03 -0.19031599942E+03  0.24455855390E+03  0.90985257280E+02 0.  0.
         23    2    1    2    0    0  0.37020223380E+02  0.14505621548E+03 -0.47903654464E+03  0.50962516496E+03  0.88487259350E+02 0.  0.
        -11    1    4    4    0    0  0.36663238995E+02  0.24828119631E+02 -0.66241550159E+02  0.79677924079E+02  0.00000000000E+00 0.  1.
         11    1    4    4    0    0  0.35698438450E+00  0.12022809585E+03 -0.41279499449E+03  0.42994724088E+03  0.00000000000E+00 0. -1.
        -11    1    3    3    0    0 -0.71993140041E+02 -0.97917928251E+02 -0.16585518849E+03  0.20561827845E+03  0.00000000000E+00 0.  1.
         11    1    3    3    0    0  0.25301116881E+02 -0.16669351068E+02 -0.24460810933E+02  0.38940275448E+02  0.00000000000E+00 0. -1.
         21    1    1    2  502  501  0.96717997807E+01 -0.30468936161E+02  0.62000431041E+02  0.69756384877E+02  0.00000000000E+00 0. -1.
<scales pt_clust_5="13000.00000" pt_clust_6="13000.00000" pt_clust_7="13000.00000" pt_clust_8="13000.00000" pt_clust_9="31.96717"></scales>
<clustering>
<clus scale="   31.967">  1  9  2 -1</clus>
<clus scale="   88.487">  5  6 -1 -1</clus>
<clus scale="   90.985">  7  8 -1 -1</clus>
<clus scale="  165.667">  2  5  1 -1</clus>
<clus scale="  165.667">  2  5  1 -1</clus>
</clustering>
</event>
<event>
 9    1  0.1713970E-005  0.1126119E+03  0.7546771E-02  0.1256687E+00
          1   -1    0    0  502    0  0.00000000000E+00  0.00000000000E+00  0.12415953840E+03  0.12415953840E+03  0.00000000000E+00 0. -1.
         -1   -1    0    0    0  501 -0.00000000000E+00 -0.00000000000E+00 -0.13765422638E+03  0.13765422638E+03  0.00000000000E+00 0.  1.
         23    2    1    2    0    0 -0.48201589943E+02 -0.43425049262E+02 -0.24463296325E+02  0.11393293426E+03  0.90405378527E+02 0.  0.
         23    2    1    2    0    0  0.61591290285E+02  0.21351974766E+02  0.28205180839E+02  0.11683885692E+03  0.92770644037E+02 0.  0.
        -13    1    4    4    0    0  0.68717456066E+02 -0.16254237840E+02  0.33573687504E+02  0.78188755640E+02  0.00000000000E+00 0. -1.
         13    1    4    4    0    0 -0.71261657801E+01  0.37606212606E+02 -0.53685066641E+01  0.38650101282E+02  0.00000000000E+00 0.  1.
        -13    1    3    3    0    0 -0.45049835723E+02 -0.59955595182E+01 -0.50720930575E+02  0.68103210138E+02  0.00000000000E+00 0.  1.
         13    1    3    3    0    0 -0.31517542202E+01 -0.37429489744E+02  0.26257634250E+02  0.45829724127E+02  0.00000000000E+00 0. -1.
         21    1    1    2  502  501 -0.13389700342E+02  0.22073074496E+02 -0.17236572496E+02  0.31041973590E+02  0.00000000000E+00 0.  1.
<scales pt_clust_5="13000.00000" pt_clust_6="13000.00000" pt_clust_7="13000.00000" pt_clust_8="13000.00000" pt_clust_9="25.81675"></scales>
<clustering>
<clus scale="   25.817">  2  9  1 -1</clus>
<clus scale="   90.405">  7  8 -1 -1</clus>
<clus scale="   92.771">  5  6 -1 -1</clus>
<clus scale="  110.672">  2  7  1 -1</clus>
<clus scale="  112.612">  1  5  2 -1</clus>
</clustering>
</event>
<event>
 9    1  0.1713970E-005  0.1780838E+03  0.7546771E-02  0.1170016E+00
          1   -1    0    0  502    0  0.00000000000E+00  0.00000000000E+00  0.66783867864E+03  0.66783867864E+03  0.00000000000E+00 0. -1.
         -1   -1    0    0    0  501 -0.00000000000E+00 -0.00000000000E+00 -0.71873527075E+03  0.71873527075E+03  0.00000000000E+00 0.  1.
         23    2    1    2    0    0  0.87694796204E+02  0.12176306209E+03 -0.45532204333E+01  0.17758238991E+03  0.94858593799E+02 0.  0.
         23    2    1    2    0    0 -0.14402753187E+03 -0.54928192695E+02  0.56426267202E+03  0.59216093648E+03  0.92201818671E+02 0.  0.
        -13    1    3    3    0    0  0.10761466336E+03  0.10590060392E+03  0.30293523228E+01  0.15101334596E+03  0.00000000000E+00 0.  1.
         13    1    3    3    0    0 -0.19919867158E+02  0.15862458169E+02 -0.75825727561E+01  0.26569043949E+02  0.00000000000E+00 0. -1.
        -13    1    4    4    0    0 -0.10190777655E+03  0.33204869701E+01  0.25444880766E+03  0.27411752275E+03  0.00000000000E+00 0.  1.
         13    1    4    4    0    0 -0.42119755322E+02 -0.58248679665E+02  0.30981386436E+03  0.31804341373E+03  0.00000000000E+00 0. -1.
         21    1    1    2  502  501  0.56332735669E+02 -0.66834869396E+02 -0.61060604370E+03  0.61683062301E+03  0.00000000000E+00 0.  1.
<scales pt_clust_5="13000.00000" pt_clust_6="13000.00000" pt_clust_7="13000.00000" pt_clust_8="13000.00000" pt_clust_9="87.40868"></scales>
<clustering>
<clus scale="   87.409">  2  9  1 -1</clus>
<clus scale="   92.202">  7  8 -1 -1</clus>
<clus scale="   94.859">  5  6 -1 -1</clus>
<clus scale="  176.683">  1  7  2 -1</clus>
<clus scale="  176.683">  1  5  2 -1</clus>
</clustering>
</event>
<event>
 9    1  0.1713970E-005  0.1191182E+03  0.7546771E-02  0.1244703E+00
          1   -1    0    0  502    0  0.00000000000E+00  0.00000000000E+00  0.82685914415E+03  0.82685914415E+03  0.00000000000E+00 0. -1.
         -1   -1    0    0    0  501 -0.00000000000E+00 -0.00000000000E+00 -0.26232388877E+02  0.26232388877E+02  0.00000000000E+00 0.  1.
         23    2    1    2    0    0  0.36926711300E+02  0.33869201613E+02  0.17580955136E+03  0.20407873663E+03  0.90710680582E+02 0.  0.
         23    2    1    2    0    0 -0.74769378436E+02 -0.54761659129E+02  0.51486243295E+03  0.53086621839E+03  0.90256953738E+02 0.  0.
        -13    1    3    3    0    0  0.41074118979E+02 -0.16170108625E+02  0.41092740897E+02  0.60308946411E+02  0.00000000000E+00 0. -1.
         13    1    3    3    0    0 -0.41474076786E+01  0.50039310238E+02  0.13471681046E+03  0.14376979022E+03  0.00000000000E+00 0.  1.
        -13    1    4    4    0    0 -0.43983330134E+02 -0.77993348620E+02  0.39181308912E+03  0.40191416069E+03  0.00000000000E+00 0. -1.
         13    1    4    4    0    0 -0.30786048302E+02  0.23231689491E+02  0.12304934383E+03  0.12895205770E+03  0.00000000000E+00 0.  1.
         21    1    1    2  502  501  0.37842667136E+02  0.20892457516E+02  0.10995477096E+03  0.11814657801E+03  0.00000000000E+00 0.  1.
<scales pt_clust_5="13000.00000" pt_clust_6="13000.00000" pt_clust_7="13000.00000" pt_clust_8="13000.00000" pt_clust_9="43.22687"></scales>
<clustering>
<clus scale="   43.227">  2  9  1 -1</clus>
<clus scale="   90.257">  7  8 -1 -1</clus>
<clus scale="   90.711">  5  6 -1 -1</clus>
<clus scale="  118.773">  1  7  2 -1</clus>
<clus scale="  118.773">  1  5  2 -1</clus>
</clustering>
</event>
<event>
 9    1  0.1713970E-005  0.1005514E+03  0.7546771E-02  0.1279372E+00
          1   -1    0    0  502    0  0.00000000000E+00  0.00000000000E+00  0.99899580544E+02  0.99899580544E+02  0.00000000000E+00 0. -1.
         -1   -1    0    0    0  501 -0.00000000000E+00 -0.00000000000E+00 -0.28522457550E+03  0.28522457550E+03  0.00000000000E+00 0.  1.
         23    2    1    2    0    0  0.12521128721E+02 -0.52565553085E+02 -0.97428626949E+02  0.14441879153E+03  0.91894145420E+02 0.  0.
         23    2    1    2    0    0  0.15387985283E+02  0.34730414216E+02  0.40742325096E+02  0.10787116641E+03  0.92375644654E+02 0.  0.
        -13    1    3    3    0    0 -0.24945694333E+02 -0.62922905434E+02 -0.63890312222E+02  0.93078202012E+02  0.00000000000E+00 0. -1.
         13    1    3    3    0    0  0.37466823054E+02  0.10357352349E+02 -0.33538314727E+02  0.51340589519E+02  0.00000000000E+00 0.  1.
        -13    1    4    4    0    0 -0.27923942848E+01  0.64520338904E+02  0.31011041142E+02  0.71640465317E+02  0.00000000000E+00 0.  1.
         13    1    4    4    0    0  0.18180379568E+02 -0.29789924688E+02  0.97312839541E+01  0.36230701091E+02  0.00000000000E+00 0. -1.
         21    1    1    2  502  501 -0.27909114004E+02  0.17835138869E+02 -0.12863869310E+03  0.13283419810E+03  0.00000000000E+00 0.  1.
<scales pt_clust_5="13000.00000" pt_clust_6="13000.00000" pt_clust_7="13000.00000" pt_clust_8="13000.00000" pt_clust_9="33.12115"></scales>
<clustering>
<clus scale="   33.121">  2  9  1 -1</clus>
<clus scale="   91.894">  5  6 -1 -1</clus>
<clus scale="   92.376">  7  8 -1 -1</clus>
<clus scale="  100.109">  2  5  1 -1</clus>
<clus scale="  100.551">  1  5  2 -1</clus>
</clustering>
</event>
<event>
 9    1  0.1713970E-005  0.9590089E+02  0.7546771E-02  0.1291580E+00
         -3   -1    0    0    0  501 -0.00000000000E+00  0.00000000000E+00  0.44242327816E+02  0.44242327816E+02  0.00000000000E+00 0.  1.
          3   -1    0    0  502    0  0.00000000000E+00 -0.00000000000E+00 -0.35700325868E+03  0.35700325868E+03  0.00000000000E+00 0. -1.
         23    2    1    2    0    0 -0.11860658434E+02 -0.14517905229E+02 -0.77954508321E+02  0.12270531288E+03  0.92888339698E+02 0.  0.
         23    2    1    2    0    0 -0.72946585575E+01  0.27393748354E+02 -0.23775712689E+03  0.25527183659E+03  0.88496495290E+02 0.  0.
        -13    1    4    4    0    0  0.28472445002E+02  0.26977314679E+02 -0.19776510040E+03  0.20161718817E+03  0.00000000000E+00 0. -1.
         13    1    4    4    0    0 -0.35767103559E+02  0.41643367502E+00 -0.39992026487E+02  0.53654648415E+02  0.00000000000E+00 0.  1.
        -13    1    3    3    0    0  0.40125962625E+01  0.37872613677E+02 -0.44406224099E+02  0.58500842167E+02  0.00000000000E+00 0. -1.
         13    1    3    3    0    0 -0.15873254697E+02 -0.52390518906E+02 -0.33548284223E+02  0.64204470718E+02  0.00000000000E+00 0.  1.
         21    1    1    2  502  501  0.19155316992E+02 -0.12875843125E+02  0.29507043446E+01  0.23268437020E+02  0.00000000000E+00 0. -1.
<scales pt_clust_5="13000.00000" pt_clust_6="13000.00000" pt_clust_7="13000.00000" pt_clust_8="13000.00000" pt_clust_9="23.08059"></scales>
<clustering>
<clus scale="   23.081">  1  9  2 -1</clus>
<clus scale="   88.496">  5  6 -1 -1</clus>
<clus scale="   91.654">  2  5  1 -1</clus>
<clus scale="   92.888">  7  8 -1 -1</clus>
<clus scale="   91.654">  2  5  1 -1</clus>
</clustering>
</event>
<event>
 9    1  0.1713970E-005  0.1957263E+03  0.7546771E-02  0.1154049E+00
         -3   -1    0    0    0  501 -0.00000000000E+00  0.00000000000E+00  0.13544034356E+03  0.13544034356E+03  0.00000000000E+00 0.  1.
          3   -1    0    0  502    0  0.00000000000E+00 -0.00000000000E+00 -0.69181375084E+03  0.69181375084E+03  0.00000000000E+00 0. -1.
         23    2    1    2    0    0  0.28993504974E+02  0.15671491511E+03 -0.16903265449E+03  0.25184212388E+03  0.97222575195E+02 0.  0.
         23    2    1    2    0    0 -0.52230827937E+02 -0.16747032297E+03 -0.45876793700E+03  0.49953381411E+03  0.91058459013E+02 0.  0.
        -11    1    4    4    0    0 -0.13805714003E+01 -0.12267582403E+03 -0.22662131454E+03  0.25769843613E+03  0.00000000000E+00 0. -1.
         11    1    4    4    0    0 -0.50850256537E+02 -0.44794498946E+02 -0.23214662246E+03  0.24183537799E+03  0.00000000000E+00 0.  1.
        -11    1    3    3    0    0 -0.62183232817E+01  0.42127645154E+02  0.24037398801E+01  0.42651893230E+02  0.00000000000E+00 0.  1.
         11    1    3    3    0    0  0.35211828256E+02  0.11458726996E+03 -0.17143639437E+03  0.20919023065E+03  0.00000000000E+00 0. -1.
         21    1    1    2  502  501  0.23237322963E+02  0.10755407857E+02  0.71427184203E+02  0.75878156408E+02  0.00000000000E+00 0. -1.
<scales pt_clust_5="13000.00000" pt_clust_6="13000.00000" pt_clust_7="13000.00000" pt_clust_8="13000.00000" pt_clust_9="25.60570"></scales>
<clustering>
<clus scale="   25.606">  1  9  2 -1</clus>
<clus scale="   91.058">  5  6 -1 -1</clus>
<clus scale="   97.223">  7  8 -1 -1</clus>
<clus scale="  192.739">  2  5  1 -1</clus>
<clus scale="  192.739">  2  5  1 -1</clus>
</clustering>
</event>
<event>
 9    1  0.1713970E-005  0.1057413E+03  0.7546771E-02  0.1276262E+00
          3   -1    0    0  502    0  0.00000000000E+00  0.00000000000E+00  0.16916238835E+03  0.16916238835E+03  0.00000000000E+00 0. -1.
         -3   -1    0    0    0  501 -0.00000000000E+00 -0.00000000000E+00 -0.10227049675E+03  0.10227049675E+03  0.00000000000E+00 0.  1.
         23    2    1    2    0    0 -0.26629895725E+02 -0.70053314811E+01  0.66922334045E+01  0.10916895205E+03  0.10542697989E+03 0.  0.
         23    2    1    2    0    0 -0.24232499224E+02  0.24927307881E+01  0.59091058903E+02  0.11118971472E+03  0.90983359422E+02 0.  0.
        -11    1    4    4    0    0 -0.41052829136E+02  0.37339532410E+02  0.34932813950E+02  0.65573446998E+02  0.00000000000E+00 0.  1.
         11    1    4    4    0    0  0.16820329912E+02 -0.34846801622E+02  0.24158244953E+02  0.45616267722E+02  0.00000000000E+00 0. -1.
        -13    1    3    3    0    0 -0.23300599813E+02 -0.49266928858E+02  0.28494402227E+02  0.61498611277E+02  0.00000000000E+00 0. -1.
         13    1    3    3    0    0 -0.33292959127E+01  0.42261597377E+02 -0.21802168822E+02  0.47670340773E+02  0.00000000000E+00 0.  1.
         21    1    1    2  502  501  0.50862394949E+02  0.45126006931E+01  0.11085992945E+01  0.51074218323E+02  0.00000000000E+00 0.  1.
<scales pt_clust_5="13000.00000" pt_clust_6="13000.00000" pt_clust_7="13000.00000" pt_clust_8="13000.00000" pt_clust_9="51.06219"></scales>
<clustering>
<clus scale="   51.062">  2  9  1 -1</clus>
<clus scale="   90.983">  5  6 -1 -1</clus>
<clus scale="   91.347">  1  5  2 -1</clus>
<clus scale="  105.427">  7  8 -1 -1</clus>
<clus scale="   91.347">  1  5  2 -1</clus>
</clustering>
</event>
<event>
 9    1  0.1713970E-005  0.9480059E+02  0.7546771E-02  0.1292634E+00
          2   -1    0    0  502    0  0.00000000000E+00  0.00000000000E+00  0.48637066518E+03  0.48637066518E+03  0.00000000000E+00 0. -1.
         -2   -1    0    0    0  501 -0.00000000000E+00 -0.00000000000E+00 -0.29242489876E+02  0.29242489876E+02  0.00000000000E+00 0.  1.
         23    2    1    2    0    0  0.75614451037E+01 -0.41298739220E+01  0.19949979930E+03  0.21954592836E+03  0.91246991340E+02 0.  0.
         23    2    1    2    0    0 -0.27354972086E+02 -0.10767765220E+01  0.25796627656E+03  0.27559756387E+03  0.93048177970E+02 0.  0.
        -13    1    3    3    0    0 -0.19601026662E+02 -0.19899854161E+02  0.13701634346E+02  0.31111721675E+02  0.00000000000E+00 0. -1.
         13    1    3    3    0    0  0.27162471766E+02  0.15769980239E+02  0.18579816496E+03  0.18843420669E+03  0.00000000000E+00 0.  1.
        -13    1    4    4    0    0 -0.36388730560E+02  0.36815393025E+02  0.19324376275E+03  0.20005665377E+03  0.00000000000E+00 0. -1.
         13    1    4    4    0    0  0.90337584740E+01 -0.37892169547E+02  0.64722513810E+02  0.75540910102E+02  0.00000000000E+00 0.  1.
         21    1    1    2  502  501  0.19793526982E+02  0.52066504440E+01 -0.33790056042E+00  0.20469662821E+02  0.00000000000E+00 0.  1.
<scales pt_clust_5="13000.00000" pt_clust_6="13000.00000" pt_clust_7="13000.00000" pt_clust_8="13000.00000" pt_clust_9="20.46687"></scales>
<clustering>
<clus scale="   20.467">  2  9  1 -1</clus>
<clus scale="   91.247">  5  6 -1 -1</clus>
<clus scale="   93.033">  2  5  1 -1</clus>
<clus scale="   93.048">  7  8 -1 -1</clus>
<clus scale="   94.801">  1  5  2 -1</clus>
</clustering>
</event>
<event>
 9    1  0.1713970E-005  0.1044664E+03  0.7546771E-02  0.1273787E+00
         -1   -1    0    0    0  501 -0.00000000000E+00  0.00000000000E+00  0.36560810070E+02  0.36560810070E+02  0.00000000000E+00 0.  1.
          1   -1    0    0  502    0  0.00000000000E+00 -0.00000000000E+00 -0.56055810301E+03  0.56055810301E+03  0.00000000000E+00 0. -1.
         23    2    1    2    0    0 -0.29450502222E+02 -0.34661076821E+02 -0.10935673561E+03  0.14657234685E+03  0.86347176628E+02 0.  0.
         23    2    1    2    0    0  0.56531851128E+02 -0.40679738836E+01 -0.37012546408E+03  0.38562405585E+03  0.92198995014E+02 0.  0.
        -13    1    3    3    0    0  0.64817394233E+01  0.24507325959E+02 -0.47015004435E+02  0.53413786737E+02  0.00000000000E+00 0. -1.
         13    1    3    3    0    0 -0.35932241645E+02 -0.59168402780E+02 -0.62341731174E+02  0.93158560116E+02  0.00000000000E+00 0.  1.
        -13    1    4    4    0    0 -0.25955283862E+01  0.26658270104E+02 -0.35732465621E+02  0.44656569863E+02  0.00000000000E+00 0. -1.
         13    1    4    4    0    0  0.59127379514E+02 -0.30726243988E+02 -0.33439299846E+03  0.34096748598E+03  0.00000000000E+00 0.  1.
         21    1    1    2  502  501 -0.27081348907E+02  0.38729050705E+02 -0.44515093245E+02  0.64922510377E+02  0.00000000000E+00 0. -1.
<scales pt_clust_5="13000.00000" pt_clust_6="13000.00000" pt_clust_7="13000.00000" pt_clust_8="13000.00000" pt_clust_9="47.25821"></scales>
<clustering>
<clus scale="   47.258">  1  9  2 -1</clus>
<clus scale="   86.347">  5  6 -1 -1</clus>
<clus scale="   92.199">  7  8 -1 -1</clus>
<clus scale="   99.340">  1  5  2 -1</clus>
<clus scale="  104.466">  2  5  1 -1</clus>
</clustering>
</event>
<event>
 9    1  0.1713970E-005  0.1128933E+03  0.7546771E-02  0.1255316E+00
         -2   -1    0    0    0  501 -0.00000000000E+00  0.00000000000E+00  0.14923094039E+03  0.14923094039E+03  0.00000000000E+00 0.  1.
          2   -1    0    0  502    0  0.00000000000E+00 -0.00000000000E+00 -0.17251007863E+03  0.17251007863E+03  0.00000000000E+00 0. -1.
         23    2    1    2    0    0 -0.27421795949E+02 -0.68053439542E+02 -0.32413592608E+02  0.12112209556E+03  0.90756242327E+02 0.  0.
         23    2    1    2    0    0  0.53660592743E+02  0.39775609331E+02 -0.55277075934E+02  0.12553926326E+03  0.90790931178E+02 0.  0.
        -11    1    3    3    0    0  0.11450919444E+02 -0.26421122124E+02  0.26530325119E+02  0.39154276923E+02  0.00000000000E+00 0.  1.
         11    1    3    3    0    0 -0.38872715393E+02 -0.41632317418E+02 -0.58943917728E+02  0.81967818641E+02  0.00000000000E+00 0. -1.
        -13    1    4    4    0    0 -0.22971884806E+02  0.22014937083E+02 -0.50710427831E+01  0.32219255442E+02  0.00000000000E+00 0. -1.
         13    1    4    4    0    0  0.76632477549E+02  0.17760672248E+02 -0.50206033150E+02  0.93320007815E+02  0.00000000000E+00 0.  1.
         21    1    1    2  502  501 -0.26238796794E+02  0.28277830211E+02  0.64411530302E+02  0.75079660191E+02  0.00000000000E+00 0.  1.
<scales pt_clust_5="13000.00000" pt_clust_6="13000.00000" pt_clust_7="13000.00000" pt_clust_8="13000.00000" pt_clust_9="38.57603"></scales>
<clustering>
<clus scale="   38.576">  1  9  2 -1</clus>
<clus scale="   90.756">  5  6 -1 -1</clus>
<clus scale="   90.791">  7  8 -1 -1</clus>
<clus scale="  112.865">  1  5  2 -1</clus>
<clus scale="  112.893">  2  5  1 -1</clus>
</clustering>
</event>
<event>
 9    1  0.1713970E-005  0.1418953E+03  0.7546771E-02  0.1211879E+00
         -2   -1    0    0    0  501 -0.00000000000E+00  0.00000000000E+00  0.44356867386E+03  0.44356867386E+03  0.00000000000E+00 0. -1.
          2   -1    0    0  502    0  0.00000000000E+00 -0.00000000000E+00 -0.37665219641E+03  0.37665219641E+03  0.00000000000E+00 0.  1.
         23    2    1    2    0    0 -0.13627624597E+03 -0.43407572312E+02  0.33959286120E+03  0.37964248684E+03  0.91376550009E+02 0.  0.
         23    2    1    2    0    0  0.10742775132E+03  0.25046609504E+01 -0.33406218725E+03  0.36137295007E+03  0.86289449008E+02 0.  0.
        -11    1    4    4    0    0  0.43404064080E+02  0.21437979670E+02 -0.24678107146E+03  0.25148438716E+03  0.00000000000E+00 0.  1.
         11    1    4    4    0    0  0.64023687242E+02 -0.18933318720E+02 -0.87281115788E+02  0.10988856291E+03  0.00000000000E+00 0. -1.
        -13    1    3    3    0    0 -0.92801298868E+02  0.17117300900E+02  0.20821149182E+03  0.22859813732E+03  0.00000000000E+00 0. -1.
         13    1    3    3    0    0 -0.43474947104E+02 -0.60524873213E+02  0.13138136938E+03  0.15104434952E+03  0.00000000000E+00 0.  1.
         21    1    1    2  502  501  0.28848494649E+02  0.40902911362E+02  0.61385803510E+02  0.79205433361E+02  0.00000000000E+00 0.  1.
<scales pt_clust_5="13000.00000" pt_clust_6="13000.00000" pt_clust_7="13000.00000" pt_clust_8="13000.00000" pt_clust_9="50.05281"></scales>
<clustering>
<clus scale="   50.053">  1  9  2 -1</clus>
<clus scale="   86.289">  5  6 -1 -1</clus>
<clus scale="   91.377">  7  8 -1 -1</clus>
<clus scale="  138.674">  2  5  1 -1</clus>
<clus scale="  138.674">  2  5  1 -1</clus>
</clustering>
</event>
<event>
 9    1  0.1713970E-005  0.1634986E+03  0.7546771E-02  0.1184934E+00
         -2   -1    0    0    0  501 -0.00000000000E+00  0.00000000000E+00  0.52371039994E+03  0.52371039994E+03  0.00000000000E+00 0.  1.
          2   -1    0    0  502    0  0.00000000000E+00 -0.00000000000E+00 -0.62039608063E+03  0.62039608063E+03  0.00000000000E+00 0. -1.
         23    2    1    2    0    0  0.56035299711E+02  0.10301163821E+03  0.40111894809E+03  0.42785753909E+03  0.91729552601E+02 0.  0.
         23    2    1    2    0    0 -0.33833483925E+01 -0.13613084932E+03 -0.58593643005E+03  0.60837714481E+03  0.90874611935E+02 0.  0.
        -13    1    3    3    0    0  0.49252703597E+02  0.11847280495E+02  0.86657304023E+02  0.10037766289E+03  0.00000000000E+00 0. -1.
         13    1    3    3    0    0  0.67825961136E+01  0.91164357718E+02  0.31446164406E+03  0.32747987620E+03  0.00000000000E+00 0.  1.
        -13    1    4    4    0    0  0.19957978074E+02 -0.11282613523E+03 -0.53879093977E+03  0.55083911849E+03  0.00000000000E+00 0. -1.
         13    1    4    4    0    0 -0.23341326467E+02 -0.23304714089E+02 -0.47145490277E+02  0.57538026325E+02  0.00000000000E+00 0.  1.
         21    1    1    2  502  501 -0.52651951318E+02  0.33119211107E+02  0.88131801267E+02  0.10787179667E+03  0.00000000000E+00 0. -1.
<scales pt_clust_5="13000.00000" pt_clust_6="13000.00000" pt_clust_7="13000.00000" pt_clust_8="13000.00000" pt_clust_9="62.20217"></scales>
<clustering>
<clus scale="   62.202">  1  9  2 -1</clus>
<clus scale="   90.875">  7  8 -1 -1</clus>
<clus scale="   91.730">  5  6 -1 -1</clus>
<clus scale="  163.020">  2  7  1 -1</clus>
<clus scale="  163.020">  2  5  1 -1</clus>
</clustering>
</event>
<event>
 9    1  0.1713970E-005  0.3022010E+03  0.7546771E-02  0.1084729E+00
          1   -1    0    0  502    0  0.00000000000E+00  0.00000000000E+00  0.37269164760E+03  0.37269164760E+03  0.00000000000E+00 0. -1.
         -1   -1    0    0    0  501 -0.00000000000E+00 -0.00000000000E+00 -0.55694553356E+03  0.55694553356E+03  0.00000000000E+00 0.  1.
         23    2    1    2    0    0  0.24567216092E+03 -0.35955406863E+01 -0.38287176660E+03  0.46105178698E+03  0.74901415564E+02 0.  0.
         23    2    1    2    0    0 -0.29530812106E+03  0.47881167058E+01  0.24960154711E+03  0.39742019887E+03  0.91717335990E+02 0.  0.
        -11    1    3    3    0    0  0.21686037344E+03  0.10912895433E+02 -0.36352676856E+03  0.42343739126E+03  0.00000000000E+00 0.  1.
         11    1    3    3    0    0  0.28811787475E+02 -0.14508436119E+02 -0.19344998039E+02  0.37614395718E+02  0.00000000000E+00 0. -1.
        -13    1    4    4    0    0 -0.26583713610E+03  0.23872364750E+02  0.24445256865E+03  0.36193415292E+03  0.00000000000E+00 0. -1.
         13    1    4    4    0    0 -0.29470984951E+02 -0.19084248045E+02  0.51489784618E+01  0.35486045943E+02  0.00000000000E+00 0.  1.
         21    1    1    2  502  501  0.49635960137E+02 -0.11925760195E+01 -0.50983666483E+02  0.71165195316E+02  0.00000000000E+00 0. -1.
<scales pt_clust_5="13000.00000" pt_clust_6="13000.00000" pt_clust_7="13000.00000" pt_clust_8="13000.00000" pt_clust_9="49.65028"></scales>
<clustering>
<clus scale="   49.650">  2  9  1 -1</clus>
<clus scale="   74.901">  5  6 -1 -1</clus>
<clus scale="   91.717">  7  8 -1 -1</clus>
<clus scale="  297.529">  2  5  1 -1</clus>
<clus scale="  302.201">  1  5  2 -1</clus>
</clustering>
</event>
<event>
 9    1  0.1713970E-005  0.1058126E+03  0.7546771E-02  0.1268570E+00
         -1   -1    0    0    0  501 -0.00000000000E+00  0.00000000000E+00  0.24705550291E+03  0.24705550291E+03  0.00000000000E+00 0.  1.
          1   -1    0    0  502    0  0.00000000000E+00 -0.00000000000E+00 -0.81612322210E+02  0.81612322210E+02  0.00000000000E+00 0. -1.
         23    2    1    2    0    0 -0.15772966514E+02  0.57163034583E+02  0.38234464457E+02  0.11466089153E+03  0.90381672799E+02 0.  0.
         23    2    1    2    0    0  0.35272591659E+02 -0.40400953792E+02  0.24328262977E+02  0.10796170552E+03  0.90484654440E+02 0.  0.
        -13    1    4    4    0    0  0.24807723484E+02  0.23969256424E+02 -0.76413959156E+01  0.35331845826E+02  0.00000000000E+00 0. -1.
         13    1    4    4    0    0  0.10464868175E+02 -0.64370210215E+02  0.31969658892E+02  0.72629859691E+02  0.00000000000E+00 0.  1.
        -13    1    3    3    0    0 -0.15433753256E+02 -0.21375607272E+02  0.22277909847E+02  0.34516989918E+02  0.00000000000E+00 0.  1.
         13    1    3    3    0    0 -0.33921325798E+00  0.78538641855E+02  0.15956554609E+02  0.80143901608E+02  0.00000000000E+00 0. -1.
         21    1    1    2  502  501 -0.19499625144E+02 -0.16762080791E+02  0.10288045327E+03  0.10604522808E+03  0.00000000000E+00 0. -1.
<scales pt_clust_5="13000.00000" pt_clust_6="13000.00000" pt_clust_7="13000.00000" pt_clust_8="13000.00000" pt_clust_9="25.71386"></scales>
<clustering>
<clus scale="   25.714">  1  9  2 -1</clus>
<clus scale="   90.382">  7  8 -1 -1</clus>
<clus scale="   90.485">  5  6 -1 -1</clus>
<clus scale="  105.725">  1  7  2 -1</clus>
<clus scale="  105.813">  2  5  1 -1</clus>
</clustering>
</event>
<event>
 9    1  0.1713970E-005  0.1117791E+03  0.7546771E-02  0.1257418E+00
          3   -1    0    0  502    0  0.00000000000E+00  0.00000000000E+00  0.19512089150E+03  0.19512089150E+03  0.00000000000E+00 0. -1.
         -3   -1    0    0    0  501 -0.00000000000E+00 -0.00000000000E+00 -0.12326999766E+03  0.12326999766E+03  0.00000000000E+00 0.  1.
         23    2    1    2    0    0  0.63437968814E+02  0.22752470680E+02  0.29938202906E+01  0.11358888109E+03  0.91386104732E+02 0.  0.
         23    2    1    2    0    0 -0.47688444453E+02 -0.43628246089E+02  0.10953605773E+03  0.15644267318E+03  0.91096380055E+02 0.  0.
        -13    1    3    3    0    0  0.62428038876E+02  0.53268467849E+02  0.87066219909E+01  0.82526328959E+02  0.00000000000E+00 0. -1.
         13    1    3    3    0    0  0.10099299377E+01 -0.30515997169E+02 -0.57128017004E+01  0.31062552132E+02  0.00000000000E+00 0.  1.
        -13    1    4    4    0    0 -0.50478971197E+02  0.15252765935E+02  0.53068080453E+02  0.74813064131E+02  0.00000000000E+00 0.  1.
         13    1    4    4    0    0  0.27905267439E+01 -0.58881012024E+02  0.56467977276E+02  0.81629609053E+02  0.00000000000E+00 0. -1.
         21    1    1    2  502  501 -0.15749524361E+02  0.20875775408E+02 -0.40678984178E+02  0.48359334883E+02  0.00000000000E+00 0.  1.
<scales pt_clust_5="13000.00000" pt_clust_6="13000.00000" pt_clust_7="13000.00000" pt_clust_8="13000.00000" pt_clust_9="26.15044"></scales>
<clustering>
<clus scale="   26.150">  2  9  1 -1</clus>
<clus scale="   91.096">  7  8 -1 -1</clus>
<clus scale="   91.386">  5  6 -1 -1</clus>
<clus scale="  111.542">  1  7  2 -1</clus>
<clus scale="  111.542">  1  5  2 -1</clus>
</clustering>
</event>
<event>
 9    1  0.1713970E-005  0.1496503E+03  0.7546771E-02  0.1201234E+00
          1   -1    0    0  502    0  0.00000000000E+00  0.00000000000E+00  0.67749180010E+03  0.67749180010E+03  0.00000000000E+00 0. -1.
         -1   -1    0    0    0  501 -0.00000000000E+00 -0.00000000000E+00 -0.12299475092E+03  0.12299475092E+03  0.00000000000E+00 0.  1.
         23    2    1    2    0    0 -0.98388857480E+02 -0.90628505598E+02  0.26757861931E+03  0.31247965513E+03  0.90284683409E+02 0.  0.
         23    2    1    2    0    0  0.73364194232E+02  0.80505696526E+02  0.37218665928E+03  0.39856766522E+03  0.92031528534E+02 0.  0.
        -11    1    4    4    0    0  0.48408290355E+02 -0.33840709004E+01  0.80128111177E+02  0.93676724493E+02  0.00000000000E+00 0.  1.
         11    1    4    4    0    0  0.24955903877E+02  0.83889767426E+02  0.29205854810E+03  0.30489094073E+03  0.00000000000E+00 0. -1.
        -13    1    3    3    0    0 -0.14293823591E+02 -0.33421357398E+02  0.13458131623E+02  0.38761086543E+02  0.00000000000E+00 0.  1.
         13    1    3    3    0    0 -0.84095033889E+02 -0.57207148200E+02  0.25412048769E+03  0.27371856859E+03  0.00000000000E+00 0. -1.
         21    1    1    2  502  501  0.25024663248E+02  0.10122809072E+02 -0.85268229409E+02  0.89439230658E+02  0.00000000000E+00 0.  1.
<scales pt_clust_5="13000.00000" pt_clust_6="13000.00000" pt_clust_7="13000.00000" pt_clust_8="13000.00000" pt_clust_9="26.99454"></scales>
<clustering>
<clus scale="   26.995">  2  9  1 -1</clus>
<clus scale="   90.285">  7  8 -1 -1</clus>
<clus scale="   92.032">  5  6 -1 -1</clus>
<clus scale="  148.582">  2  7  1 -1</clus>
<clus scale="  149.650">  1  5  2 -1</clus>
</clustering>
</event>
<event>
 9    1  0.1713970E-005  0.1734121E+03  0.7546771E-02  0.1174666E+00
         -1   -1    0    0    0  501 -0.00000000000E+00  0.00000000000E+00  0.20921399861E+03  0.20921399861E+03  0.00000000000E+00 0.  1.
          1   -1    0    0  502    0  0.00000000000E+00 -0.00000000000E+00 -0.76432837010E+03  0.76432837010E+03  0.00000000000E+00 0. -1.
         23    2    1    2    0    0  0.13264905167E+03 -0.35506263832E+02  0.93386621730E+02  0.18872443500E+03  0.89662620800E+02 0.  0.
         23    2    1    2    0    0 -0.14720445657E+03  0.13096844651E+02 -0.70293130627E+03  0.72418212862E+03  0.92123041115E+02 0.  0.
        -11    1    3    3    0    0  0.30812231247E+02 -0.23027400780E+02 -0.13308185921E+02  0.40703348679E+02  0.00000000000E+00 0. -1.
         11    1    3    3    0    0  0.10183682042E+03 -0.12478863051E+02  0.10669480765E+03  0.14802108633E+03  0.00000000000E+00 0.  1.
        -11    1    4    4    0    0 -0.46137202406E+02 -0.32921764316E+02 -0.15325106673E+03  0.16339636919E+03  0.00000000000E+00 0.  1.
         11    1    4    4    0    0 -0.10106725417E+03  0.46018608967E+02 -0.54968023954E+03  0.56078575943E+03  0.00000000000E+00 0. -1.
         21    1    1    2  502  501  0.14555404900E+02  0.22409419181E+02  0.54430313053E+02  0.60635805090E+02  0.00000000000E+00 0.  1.
<scales pt_clust_5="13000.00000" pt_clust_6="13000.00000" pt_clust_7="13000.00000" pt_clust_8="13000.00000" pt_clust_9="26.72156"></scales>
<clustering>
<clus scale="   26.722">  1  9  2 -1</clus>
<clus scale="   89.663">  5  6 -1 -1</clus>
<clus scale="   92.123">  7  8 -1 -1</clus>
<clus scale="  172.118">  1  5  2 -1</clus>
<clus scale="  173.412">  2  5  1 -1</clus>
</clustering>
</event>
<event>
 9    1  0.1713970E-005  0.2686179E+03  0.7546771E-02  0.1102216E+00
         -2   -1    0    0    0  501 -0.00000000000E+00  0.00000000000E+00  0.33494627534E+03  0.33494627534E+03  0.00000000000E+00 0.  1.
          2   -1    0    0  502    0  0.00000000000E+00 -0.00000000000E+00 -0.30365940703E+03  0.30365940703E+03  0.00000000000E+00 0. -1.
         23    2    1    2    0    0  0.13085936650E+02  0.25117382313E+03  0.65086341654E+02  0.27549518667E+03  0.91661523275E+02 0.  0.
         23    2    1    2    0    0 -0.93336182226E+02 -0.24119130377E+03  0.30010317307E+00  0.27534641576E+03  0.94502225811E+02 0.  0.
        -11    1    3    3    0    0 -0.26084696417E+02  0.21619540154E+02  0.16171349229E+02  0.37541023421E+02  0.00000000000E+00 0.  1.
         11    1    3    3    0    0  0.39170633067E+02  0.22955428297E+03  0.48914992425E+02  0.23795416325E+03  0.00000000000E+00 0. -1.
        -13    1    4    4    0    0 -0.59252268430E+02 -0.11938813785E+03 -0.45487901860E+02  0.14083148792E+03  0.00000000000E+00 0. -1.
         13    1    4    4    0    0 -0.34083913796E+02 -0.12180316592E+03  0.45788005033E+02  0.13451492784E+03  0.00000000000E+00 0.  1.
         21    1    1    2  502  501  0.80250245575E+02 -0.99825193564E+01 -0.34099576519E+02  0.87764079932E+02  0.00000000000E+00 0.  1.
<scales pt_clust_5="13000.00000" pt_clust_6="13000.00000" pt_clust_7="13000.00000" pt_clust_8="13000.00000" pt_clust_9="80.86874"></scales>
<clustering>
<clus scale="   80.869">  2  9  1 -1</clus>
<clus scale="   91.662">  5  6 -1 -1</clus>
<clus scale="   94.502">  7  8 -1 -1</clus>
<clus scale="  267.632">  1  5  2 -1</clus>
<clus scale="   80.869">  2  5  1 -1</clus>
</clustering>
</event>
<event>
 9    1  0.1713970E-005  0.9435536E+02  0.7546771E-02  0.1294186E+00
          1   -1    0    0  502    0  0.00000000000E+00  0.00000000000E+00  0.11807467294E+03  0.11807467294E+03  0.00000000000E+00 0. -1.
         -1   -1    0    0    0  501 -0.00000000000E+00 -0.00000000000E+00 -0.96542843972E+02  0.96542843972E+02  0.00000000000E+00 0.  1.
         23    2    1    2    0    0 -0.37042133896E+01 -0.81364835847E+01 -0.12444353335E+02  0.93794249933E+02  0.92534187350E+02 0.  0.
         23    2    1    2    0    0  0.24261723304E+02  0.82017291775E+01  0.36202231131E+02  0.10014548267E+03  0.89792074150E+02 0.  0.
        -11    1    4    4    0    0  0.36847621854E+02  0.41717314849E+02  0.31722202146E+02  0.64065432985E+02  0.00000000000E+00 0.  1.
         11    1    4    4    0    0 -0.12585898550E+02 -0.33515585672E+02  0.44800289857E+01  0.36080049680E+02  0.00000000000E+00 0. -1.
        -11    1    3    3    0    0 -0.14060468913E+02  0.17734724047E+02 -0.45344156154E+02  0.50678493668E+02  0.00000000000E+00 0.  1.
         11    1    3    3    0    0  0.10356255523E+02 -0.25871207632E+02  0.32899802819E+02  0.43115756265E+02  0.00000000000E+00 0. -1.
         21    1    1    2  502  501 -0.20557509915E+02 -0.65245592779E-01 -0.22260488250E+01  0.20677784317E+02  0.00000000000E+00 0.  1.
<scales pt_clust_5="13000.00000" pt_clust_6="13000.00000" pt_clust_7="13000.00000" pt_clust_8="13000.00000" pt_clust_9="20.55761"></scales>
<clustering>
<clus scale="   20.558">  2  9  1 -1</clus>
<clus scale="   89.792">  5  6 -1 -1</clus>
<clus scale="   91.668">  1  5  2 -1</clus>
<clus scale="   92.534">  7  8 -1 -1</clus>
<clus scale="   91.668">  1  5  2 -1</clus>
</clustering>
</event>
<event>
 9    1  0.1713970E-005  0.2150985E+03  0.7546771E-02  0.1137592E+00
          1   -1    0    0  502    0  0.00000000000E+00  0.00000000000E+00  0.52941439795E+03  0.52941439795E+03  0.00000000000E+00 0. -1.
         -1   -1    0    0    0  501 -0.00000000000E+00 -0.00000000000E+00 -0.19044402009E+03  0.19044402009E+03  0.00000000000E+00 0.  1.
         23    2    1    2    0    0 -0.39983018333E+02 -0.14709044192E+03  0.10086861990E+03  0.20430500008E+03  0.91278774746E+02 0.  0.
         23    2    1    2    0    0  0.45742190653E+02  0.22492516883E+03  0.31879494395E+03  0.40329121130E+03  0.91268314592E+02 0.  0.
        -11    1    4    4    0    0  0.16350390239E+01  0.18246279829E+03  0.20790602161E+03  0.27662295626E+03  0.00000000000E+00 0. -1.
         11    1    4    4    0    0  0.44107151629E+02  0.42462370543E+02  0.11088892234E+03  0.12666825504E+03  0.00000000000E+00 0.  1.
        -13    1    3    3    0    0 -0.60152511672E+02 -0.14516719969E+03  0.85633507376E+02  0.17895512877E+03  0.00000000000E+00 0.  1.
         13    1    3    3    0    0  0.20169493340E+02 -0.19232422331E+01  0.15235112523E+02  0.25349871319E+02  0.00000000000E+00 0. -1.
         21    1    1    2  502  501 -0.57591723204E+01 -0.77834726907E+02 -0.80693185982E+02  0.11226220665E+03  0.00000000000E+00 0.  1.
<scales pt_clust_5="13000.00000" pt_clust_6="13000.00000" pt_clust_7="13000.00000" pt_clust_8="13000.00000" pt_clust_9="78.04750"></scales>
<clustering>
<clus scale="   78.048">  2  9  1 -1</clus>
<clus scale="   91.268">  5  6 -1 -1</clus>
<clus scale="   91.279">  7  8 -1 -1</clus>
<clus scale="  215.094">  1  5  2 -1</clus>
<clus scale="  215.094">  1  5  2 -1</clus>
</clustering>
</event>
<event>
 9    1  0.1713970E-005  0.9566646E+02  0.7546771E-02  0.1290577E+00
         -2   -1    0    0    0  501 -0.00000000000E+00  0.00000000000E+00  0.36723578603E+02  0.36723578603E+02  0.00000000000E+00 0.  1.
          2   -1    0    0  502    0  0.00000000000E+00 -0.00000000000E+00 -0.44230044734E+03  0.44230044734E+03  0.00000000000E+00 0. -1.
         23    2    1    2    0    0  0.10540157191E+02  0.37095413446E+01 -0.10436811435E+03  0.13964558642E+03  0.92104999334E+02 0.  0.
         23    2    1    2    0    0  0.24381743944E+02 -0.19066882413E+02 -0.27732926201E+03  0.29437158161E+03  0.93728827202E+02 0.  0.
        -11    1    4    4    0    0  0.25987589887E+02 -0.45405737213E+02 -0.25341742013E+03  0.25876132753E+03  0.00000000000E+00 0.  1.
         11    1    4    4    0    0 -0.16058459435E+01  0.26338854800E+02 -0.23911841880E+02  0.35610254078E+02  0.00000000000E+00 0. -1.
        -11    1    3    3    0    0 -0.27816753173E+02 -0.21098039199E+02 -0.12564131674E+02  0.37104668437E+02  0.00000000000E+00 0.  1.
         11    1    3    3    0    0  0.38356910364E+02  0.24807580543E+02 -0.91803982675E+02  0.10254091798E+03  0.00000000000E+00 0. -1.
         21    1    1    2  502  501 -0.34921901135E+02  0.15357341068E+02 -0.23879492381E+02  0.45006857921E+02  0.00000000000E+00 0.  1.
<scales pt_clust_5="13000.00000" pt_clust_6="13000.00000" pt_clust_7="13000.00000" pt_clust_8="13000.00000" pt_clust_9="38.14954"></scales>
<clustering>
<clus scale="   38.150">  1  9  2 -1</clus>
<clus scale="   92.105">  7  8 -1 -1</clus>
<clus scale="   93.729">  5  6 -1 -1</clus>
<clus scale="   94.076">  1  7  2 -1</clus>
<clus scale="   95.666">  2  5  1 -1</clus>
</clustering>
</event>
<event>
 9    1  0.1713970E-005  0.1117012E+03  0.7546771E-02  0.1257736E+00
          1   -1    0    0  502    0  0.00000000000E+00  0.00000000000E+00  0.62796325484E+02  0.62796325484E+02  0.00000000000E+00 0. -1.
         -1   -1    0    0    0  501 -0.00000000000E+00 -0.00000000000E+00 -0.33395426371E+03  0.33395426371E+03  0.00000000000E+00 0.  1.
         23    2    1    2    0    0 -0.12581351218E+02  0.65361973208E+02 -0.13380869598E+03  0.17569386049E+03  0.92374712736E+02 0.  0.
         23    2    1    2    0    0 -0.72806901020E+01 -0.61556188622E+02 -0.33964164618E+02  0.11571225112E+03  0.91616525667E+02 0.  0.
        -11    1    3    3    0    0 -0.46337873879E+02  0.64855462898E+02 -0.87174063485E+02  0.11812174638E+03  0.00000000000E+00 0.  1.
         11    1    3    3    0    0  0.33756522662E+02  0.50651031042E+00 -0.46634632497E+02  0.57572114109E+02  0.00000000000E+00 0. -1.
        -13    1    4    4    0    0  0.28496608720E+02 -0.55385024599E+02 -0.46035860075E+02  0.77452295455E+02  0.00000000000E+00 0. -1.
         13    1    4    4    0    0 -0.35777298822E+02 -0.61711640233E+01  0.12071695457E+02  0.38259955666E+02  0.00000000000E+00 0.  1.
         21    1    1    2  502  501  0.19862041319E+02 -0.38057845860E+01 -0.10338507763E+03  0.10534447759E+03  0.00000000000E+00 0. -1.
<scales pt_clust_5="13000.00000" pt_clust_6="13000.00000" pt_clust_7="13000.00000" pt_clust_8="13000.00000" pt_clust_9="20.22337"></scales>
<clustering>
<clus scale="   20.223">  2  9  1 -1</clus>
<clus scale="   91.617">  7  8 -1 -1</clus>
<clus scale="   92.375">  5  6 -1 -1</clus>
<clus scale="  111.075">  1  7  2 -1</clus>
<clus scale="  111.075">  1  5  2 -1</clus>
</clustering>
</event>
<event>
 9    1  0.1713970E-005  0.1427541E+03  0.7546771E-02  0.1211508E+00
          3   -1    0    0  502    0  0.00000000000E+00  0.00000000000E+00  0.46393904248E+03  0.46393904248E+03  0.00000000000E+00 0. -1.
         -3   -1    0    0    0  501 -0.00000000000E+00 -0.00000000000E+00 -0.21264077874E+03  0.21264077874E+03  0.00000000000E+00 0.  1.
         23    2    1    2    0    0  0.22249989514E+02 -0.12150851748E+03 -0.59967945978E+01  0.15892900679E+03  0.99815258364E+02 0.  0.
         23    2    1    2    0    0  0.11068974957E+02  0.98976367455E+02  0.37211021476E+03  0.39599403771E+03  0.91795546989E+02 0.  0.
        -11    1    4    4    0    0  0.32825943258E+02  0.10414790673E+03  0.26579462480E+03  0.28735189507E+03  0.00000000000E+00 0.  1.
         11    1    4    4    0    0 -0.21756968301E+02 -0.51715392706E+01  0.10631558997E+03  0.10864214264E+03  0.00000000000E+00 0. -1.
        -13    1    3    3    0    0  0.16773033989E+02 -0.16862424776E+02  0.38362677787E+02  0.45137247208E+02  0.00000000000E+00 0. -1.
         13    1    3    3    0    0  0.54769555255E+01 -0.10464609270E+03 -0.44359472385E+02  0.11379175959E+03  0.00000000000E+00 0.  1.
         21    1    1    2  502  501 -0.33318964471E+02  0.22532150023E+02 -0.11481515642E+03  0.12165677672E+03  0.00000000000E+00 0.  1.
<scales pt_clust_5="13000.00000" pt_clust_6="13000.00000" pt_clust_7="13000.00000" pt_clust_8="13000.00000" pt_clust_9="40.22252"></scales>
<clustering>
<clus scale="   40.223">  2  9  1 -1</clus>
<clus scale="   91.796">  5  6 -1 -1</clus>
<clus scale="   99.815">  7  8 -1 -1</clus>
<clus scale="  137.266">  1  5  2 -1</clus>
<clus scale="  137.266">  1  5  2 -1</clus>
</clustering>
</event>
<event>
 9    1  0.1713970E-005  0.5042545E+03  0.7546771E-02  0.1012688E+00
         -1   -1    0    0    0  501 -0.00000000000E+00  0.00000000000E+00  0.18582213813E+03  0.18582213813E+03  0.00000000000E+00 0.  1.
          1   -1    0    0  502    0  0.00000000000E+00 -0.00000000000E+00 -0.23222720960E+04  0.23222720960E+04  0.00000000000E+00 0. -1.
         23    2    1    2    0    0  0.47443574908E+03 -0.19346640537E+03 -0.31433228907E+03  0.60789043141E+03  0.90595025471E+02 0.  0.
         23    2    1    2    0    0 -0.45530087143E+03  0.18647475109E+03 -0.18064604038E+04  0.18745098984E+04  0.91741224550E+02 0.  0.
        -11    1    3    3    0    0  0.36192333396E+03 -0.18724316076E+03 -0.24041403404E+03  0.47312515118E+03  0.00000000000E+00 0.  1.
         11    1    3    3    0    0  0.11251241512E+03 -0.62232446103E+01 -0.73918255027E+02  0.13476528024E+03  0.00000000000E+00 0. -1.
        -11    1    4    4    0    0 -0.44331125884E+03  0.15997284564E+03 -0.17102248675E+04  0.17739744308E+04  0.00000000000E+00 0. -1.
         11    1    4    4    0    0 -0.11989612591E+02  0.26501905443E+02 -0.96235536316E+02  0.10053546763E+03  0.00000000000E+00 0.  1.
         21    1    1    2  502  501 -0.19134877657E+02  0.69916542814E+01 -0.15657264965E+02  0.25693904310E+02  0.00000000000E+00 0.  1.
<scales pt_clust_5="13000.00000" pt_clust_6="13000.00000" pt_clust_7="13000.00000" pt_clust_8="13000.00000" pt_clust_9="20.37221"></scales>
<clustering>
<clus scale="   20.372">  1  9  2 -1</clus>
<clus scale="   90.595">  5  6 -1 -1</clus>
<clus scale="   91.741">  7  8 -1 -1</clus>
<clus scale="  504.047">  1  5  2 -1</clus>
<clus scale="  504.254">  2  5  1 -1</clus>
</clustering>
</event>
<event>
 9    1  0.1713970E-005  0.1116727E+03  0.7546771E-02  0.1259494E+00
          1   -1    0    0  502    0  0.00000000000E+00  0.00000000000E+00  0.17135755963E+03  0.17135755963E+03  0.00000000000E+00 0. -1.
         -1   -1    0    0    0  501 -0.00000000000E+00 -0.00000000000E+00 -0.86015307686E+02  0.86015307686E+02  0.00000000000E+00 0.  1.
         23    2    1    2    0    0 -0.45512540789E+02  0.42287149652E+02  0.33367739579E+02  0.11835139590E+03  0.95047632649E+02 0.  0.
         23    2    1    2    0    0  0.52972136141E+02 -0.21205473425E+02  0.41538826825E+02  0.11434382631E+03  0.89962865509E+02 0.  0.
        -11    1    3    3    0    0 -0.61035860243E+02  0.40867821623E+01  0.44494152613E+02  0.75642631107E+02  0.00000000000E+00 0. -1.
         11    1    3    3    0    0  0.15523319454E+02  0.38200367490E+02 -0.11126413033E+02  0.42708764794E+02  0.00000000000E+00 0.  1.
        -13    1    4    4    0    0  0.59052013339E+02  0.21559460185E+02  0.29872600819E+02  0.69601170123E+02  0.00000000000E+00 0. -1.
         13    1    4    4    0    0 -0.60798771978E+01 -0.42764933610E+02  0.11666226006E+02  0.44742656186E+02  0.00000000000E+00 0.  1.
         21    1    1    2  502  501 -0.74595953524E+01 -0.21081676227E+02  0.10435685542E+02  0.24677645109E+02  0.00000000000E+00 0.  1.
<scales pt_clust_5="13000.00000" pt_clust_6="13000.00000" pt_clust_7="13000.00000" pt_clust_8="13000.00000" pt_clust_9="22.36253"></scales>
<clustering>
<clus scale="   22.363">  1  9  2 -1</clus>
<clus scale="   89.963">  7  8 -1 -1</clus>
<clus scale="   95.048">  5  6 -1 -1</clus>
<clus scale="  107.378">  1  7  2 -1</clus>
<clus scale="   22.363">  1  5  2 -1</clus>
</clustering>
</event>
<event>
 9    1  0.1713970E-005  0.1276594E+03  0.7546771E-02  0.1232398E+00
         -2   -1    0    0    0  501 -0.00000000000E+00  0.00000000000E+00  0.20402849017E+03  0.20402849017E+03  0.00000000000E+00 0.  1.
          2   -1    0    0  502    0  0.00000000000E+00 -0.00000000000E+00 -0.39477784256E+03  0.39477784256E+03  0.00000000000E+00 0. -1.
         23    2    1    2    0    0 -0.71148835772E+02  0.70534653289E+02 -0.50593026692E+02  0.14172113657E+03  0.86532838009E+02 0.  0.
         23    2    1    2    0    0  0.47375790648E+02 -0.71647586254E+02 -0.28437799850E+03  0.31091308117E+03  0.91751053708E+02 0.  0.
        -11    1    3    3    0    0 -0.80140405469E+02  0.32751422994E+02 -0.55101104326E+02  0.10262198592E+03  0.00000000000E+00 0. -1.
         11    1    3    3    0    0  0.89915696977E+01  0.37783230295E+02  0.45080776334E+01  0.39099150645E+02  0.00000000000E+00 0.  1.
        -13    1    4    4    0    0 -0.22301878984E+02 -0.46520706063E+02 -0.11386755722E+03  0.12500948159E+03  0.00000000000E+00 0.  1.
         13    1    4    4    0    0  0.69677669632E+02 -0.25126880191E+02 -0.17051044128E+03  0.18590359958E+03  0.00000000000E+00 0. -1.
         21    1    1    2  502  501  0.23773045123E+02  0.11129329645E+01  0.14422167280E+03  0.14617211499E+03  0.00000000000E+00 0.  1.
<scales pt_clust_5="13000.00000" pt_clust_6="13000.00000" pt_clust_7="13000.00000" pt_clust_8="13000.00000" pt_clust_9="23.79908"></scales>
<clustering>
<clus scale="   23.799">  1  9  2 -1</clus>
<clus scale="   86.533">  5  6 -1 -1</clus>
<clus scale="   91.751">  7  8 -1 -1</clus>
<clus scale="  123.962">  1  5  2 -1</clus>
<clus scale="  127.659">  2  5  1 -1</clus>
</clustering>
</event>
<event>
 9    1  0.1713970E-005  0.1014450E+03  0.7546771E-02  0.1277453E+00
          1   -1    0    0  502    0  0.00000000000E+00  0.00000000000E+00  0.14105749442E+04  0.14105749442E+04  0.00000000000E+00 0. -1.
         -1   -1    0    0    0  501 -0.00000000000E+00 -0.00000000000E+00 -0.11038973032E+02  0.11038973032E+02  0.00000000000E+00 0.  1.
         23    2    1    2    0    0 -0.12632593040E+02  0.22988118033E+02  0.54369043535E+03  0.55202807034E+03  0.91911179791E+02 0.  0.
         23    2    1    2    0    0  0.52952688449E+02 -0.34047002147E+02  0.57386423273E+03  0.58452188161E+03  0.91555922303E+02 0.  0.
        -13    1    4    4    0    0  0.22644353307E+02  0.31016991382E+02  0.16546284149E+03  0.16986103851E+03  0.00000000000E+00 0.  1.
         13    1    4    4    0    0  0.30308335142E+02 -0.65063993530E+02  0.40840139124E+03  0.41466084310E+03  0.00000000000E+00 0. -1.
        -13    1    3    3    0    0 -0.44007068458E+02  0.40185996022E+02  0.35702825808E+03  0.36196783479E+03  0.00000000000E+00 0.  1.
         13    1    3    3    0    0  0.31374475417E+02 -0.17197877989E+02  0.18666217727E+03  0.19006023555E+03  0.00000000000E+00 0. -1.
         21    1    1    2  502  501 -0.40320095408E+02  0.11058884115E+02  0.28198130314E+03  0.28506396533E+03  0.00000000000E+00 0.  1.
<scales pt_clust_5="13000.00000" pt_clust_6="13000.00000" pt_clust_7="13000.00000" pt_clust_8="13000.00000" pt_clust_9="41.80920"></scales>
<clustering>
<clus scale="   41.809">  1  9  2 -1</clus>
<clus scale="   91.556">  5  6 -1 -1</clus>
<clus scale="   91.911">  7  8 -1 -1</clus>
<clus scale="  101.123">  1  5  2 -1</clus>
<clus scale="   41.809">  1  5  2 -1</clus>
</clustering>
</event>
<event>
 9    1  0.1713970E-005  0.9265717E+02  0.7546771E-02  0.1297839E+00
         -1   -1    0    0    0  501 -0.00000000000E+00  0.00000000000E+00  0.16528838993E+03  0.16528838993E+03  0.00000000000E+00 0.  1.
          1   -1    0    0  502    0  0.00000000000E+00 -0.00000000000E+00 -0.71700646202E+02  0.71700646202E+02  0.00000000000E+00 0. -1.
         23    2    1    2    0    0  0.82019289861E+00 -0.34143834059E+01  0.31854283771E+02  0.95272462313E+02  0.89720766549E+02 0.  0.
         23    2    1    2    0    0 -0.21443092394E+02 -0.73887334472E+01  0.24514553318E+02  0.97816023381E+02  0.91938085212E+02 0.  0.
        -11    1    4    4    0    0 -0.21757943463E+02  0.34849611821E+02 -0.11109657194E+02  0.42559699609E+02  0.00000000000E+00 0.  1.
         11    1    4    4    0    0  0.31485106902E+00 -0.42238345269E+02  0.35624210511E+02  0.55256323772E+02  0.00000000000E+00 0. -1.
        -13    1    3    3    0    0 -0.11256221730E+02 -0.44053637692E+02  0.66556180198E+01  0.45953484882E+02  0.00000000000E+00 0. -1.
         13    1    3    3    0    0  0.12076414628E+02  0.40639254286E+02  0.25198665752E+02  0.49318977431E+02  0.00000000000E+00 0.  1.
         21    1    1    2  502  501  0.20622899496E+02  0.10803116853E+02  0.37218906635E+02  0.43900550434E+02  0.00000000000E+00 0.  1.
<scales pt_clust_5="13000.00000" pt_clust_6="13000.00000" pt_clust_7="13000.00000" pt_clust_8="13000.00000" pt_clust_9="23.28114"></scales>
<clustering>
<clus scale="   23.281">  1  9  2 -1</clus>
<clus scale="   89.721">  7  8 -1 -1</clus>
<clus scale="   90.457">  1  7  2 -1</clus>
<clus scale="   91.938">  5  6 -1 -1</clus>
<clus scale="   92.657">  2  5  1 -1</clus>
</clustering>
</event>
<event>
 9    1  0.1713970E-005  0.1030441E+03  0.7546771E-02  0.1276329E+00
          2   -1    0    0  502    0  0.00000000000E+00  0.00000000000E+00  0.12882766654E+03  0.12882766654E+03  0.00000000000E+00 0. -1.
         -2   -1    0    0    0  501 -0.00000000000E+00 -0.00000000000E+00 -0.41613786825E+03  0.41613786825E+03  0.00000000000E+00 0.  1.
         23    2    1    2    0    0  0.34308083580E+02  0.24446077069E+02 -0.33998230601E+03  0.35556494583E+03  0.95204028382E+02 0.  0.
         23    2    1    2    0    0 -0.13167931804E+02 -0.37447723713E+02  0.97137528917E+02  0.13847787478E+03  0.90358706501E+02 0.  0.
        -11    1    3    3    0    0  0.60515850448E+02  0.26383381042E+02 -0.30353731361E+03  0.31063346843E+03  0.00000000000E+00 0.  1.
         11    1    3    3    0    0 -0.26207766868E+02 -0.19373039728E+01 -0.36444992396E+02  0.44931477403E+02  0.00000000000E+00 0. -1.
        -13    1    4    4    0    0 -0.30475588165E+02  0.13842099830E+00 -0.25111268127E+01  0.30579182334E+02  0.00000000000E+00 0.  1.
         13    1    4    4    0    0  0.17307656361E+02 -0.37586144711E+02  0.99648655730E+02  0.10789869245E+03  0.00000000000E+00 0. -1.
         21    1    1    2  502  501 -0.21140151776E+02  0.13001646644E+02 -0.44465424621E+02  0.50922714179E+02  0.00000000000E+00 0.  1.
<scales pt_clust_5="13000.00000" pt_clust_6="13000.00000" pt_clust_7="13000.00000" pt_clust_8="13000.00000" pt_clust_9="24.81832"></scales>
<clustering>
<clus scale="   24.818">  2  9  1 -1</clus>
<clus scale="   90.359">  7  8 -1 -1</clus>
<clus scale="   95.204">  5  6 -1 -1</clus>
<clus scale="   98.585">  1  7  2 -1</clus>
<clus scale="   98.585">  1  5  2 -1</clus>
</clustering>
</event>
<event>
 9    1  0.1713970E-005  0.1078850E+03  0.7546771E-02  0.1266068E+00
         -2   -1    0    0    0  501 -0.00000000000E+00  0.00000000000E+00  0.11980444621E+03  0.11980444621E+03  0.00000000000E+00 0.  1.
          2   -1    0    0  502    0  0.00000000000E+00 -0.00000000000E+00 -0.32596310529E+03  0.32596310529E+03  0.00000000000E+00 0. -1.
         23    2    1    2    0    0  0.29859586159E+02  0.35037982331E+02  0.48466859869E+02  0.11673255498E+03  0.95698473313E+02 0.  0.
         23    2    1    2    0    0 -0.48742709165E+02 -0.15075114654E+02 -0.27523333585E+03  0.29468720856E+03  0.92108908066E+02 0.  0.
        -13    1    3    3    0    0 -0.17554655704E+02 -0.16935077680E+02  0.38644874280E+02  0.45698896059E+02  0.00000000000E+00 0.  1.
         13    1    3    3    0    0  0.47414241863E+02  0.51973060011E+02  0.98219855891E+01  0.71033658918E+02  0.00000000000E+00 0. -1.
        -13    1    4    4    0    0 -0.73872989162E+02 -0.25227745415E+02 -0.21054165147E+03  0.22454719921E+03  0.00000000000E+00 0.  1.
         13    1    4    4    0    0  0.25130279997E+02  0.10152630761E+02 -0.64691684383E+02  0.70140009355E+02  0.00000000000E+00 0. -1.
         21    1    1    2  502  501  0.18883123006E+02 -0.19962867676E+02  0.20607816903E+02  0.34347787961E+02  0.00000000000E+00 0.  1.
<scales pt_clust_5="13000.00000" pt_clust_6="13000.00000" pt_clust_7="13000.00000" pt_clust_8="13000.00000" pt_clust_9="27.47887"></scales>
<clustering>
<clus scale="   27.479">  1  9  2 -1</clus>
<clus scale="   92.109">  7  8 -1 -1</clus>
<clus scale="   95.698">  5  6 -1 -1</clus>
<clus scale="  104.714">  2  7  1 -1</clus>
<clus scale="  104.714">  2  5  1 -1</clus>
</clustering>
</event>
<event>
 9    1  0.1713970E-005  0.9982864E+02  0.7546771E-02  0.1281155E+00
          1   -1    0    0  502    0  0.00000000000E+00  0.00000000000E+00  0.34751473751E+03  0.34751473751E+03  0.00000000000E+00 0. -1.
         -1   -1    0    0    0  501 -0.00000000000E+00 -0.00000000000E+00 -0.64053769018E+02  0.64053769018E+02  0.00000000000E+00 0.  1.
         23    2    1    2    0    0 -0.49864243868E+02  0.11134092894E+02  0.89607216934E+01  0.10440570802E+03  0.90608203232E+02 0.  0.
         23    2    1    2    0    0  0.36257926781E+02  0.13347254313E+02  0.25303395197E+03  0.27187441459E+03  0.91633672896E+02 0.  0.
        -13    1    3    3    0    0  0.43442001603E+01  0.38935368958E+02 -0.10306093141E+02  0.40509882581E+02  0.00000000000E+00 0. -1.
         13    1    3    3    0    0 -0.54208444029E+02 -0.27801276064E+02  0.19266814834E+02  0.63895825440E+02  0.00000000000E+00 0.  1.
        -13    1    4    4    0    0  0.49034239470E+02  0.43880105908E+02  0.15445371243E+03  0.16788618055E+03  0.00000000000E+00 0. -1.
         13    1    4    4    0    0 -0.12776312689E+02 -0.30532851595E+02  0.98580239536E+02  0.10398823404E+03  0.00000000000E+00 0.  1.
         21    1    1    2  502  501  0.13606317087E+02 -0.24481347208E+02  0.21466294833E+02  0.35288383919E+02  0.00000000000E+00 0.  1.
<scales pt_clust_5="13000.00000" pt_clust_6="13000.00000" pt_clust_7="13000.00000" pt_clust_8="13000.00000" pt_clust_9="28.00836"></scales>
<clustering>
<clus scale="   28.008">  2  9  1 -1</clus>
<clus scale="   90.608">  5  6 -1 -1</clus>
<clus scale="   91.634">  7  8 -1 -1</clus>
<clus scale="   98.888">  2  5  1 -1</clus>
<clus scale="   99.829">  1  5  2 -1</clus>
</clustering>
</event>
<event>
 9    1  0.1713970E-005  0.9795783E+02  0.7546771E-02  0.1285128E+00
         -1   -1    0    0    0  501 -0.00000000000E+00  0.00000000000E+00  0.57816705435E+02  0.57816705435E+02  0.00000000000E+00 0.  1.
          1   -1    0    0  502    0  0.00000000000E+00 -0.00000000000E+00 -0.51485947668E+03  0.51485947668E+03  0.00000000000E+00 0. -1.
         23    2    1    2    0    0  0.35752026175E+02 -0.38969623184E+02 -0.88505967142E+02  0.13723650651E+03  0.90574353945E+02 0.  0.
         23    2    1    2    0    0  0.50302491382E+02 -0.87518083378E+01 -0.29155561150E+03  0.31050441624E+03  0.93815686955E+02 0.  0.
        -11    1    4    4    0    0  0.36827691466E+02 -0.47706296627E+02 -0.21810434383E+03  0.22627786987E+03  0.00000000000E+00 0.  1.
         11    1    4    4    0    0  0.13474799915E+02  0.38954488289E+02 -0.73451267675E+02  0.84226546372E+02  0.00000000000E+00 0. -1.
        -13    1    3    3    0    0  0.66497367617E+02 -0.24724278530E+02 -0.57834224498E+02  0.91531346391E+02  0.00000000000E+00 0. -1.
         13    1    3    3    0    0 -0.30745341442E+02 -0.14245344654E+02 -0.30671742644E+02  0.45705160119E+02  0.00000000000E+00 0.  1.
         21    1    1    2  502  501 -0.86054517556E+02  0.47721431521E+02 -0.76981192602E+02  0.12493525937E+03  0.00000000000E+00 0.  1.
<scales pt_clust_5="13000.00000" pt_clust_6="13000.00000" pt_clust_7="13000.00000" pt_clust_8="13000.00000" pt_clust_9="98.40079"></scales>
<clustering>
<clus scale="   90.574">  7  8 -1 -1</clus>
<clus scale="   93.816">  5  6 -1 -1</clus>
<clus scale="   98.401">  1  9  2 -1</clus>
<clus scale="   98.401">  1  7  2 -1</clus>
<clus scale="   97.517">  2  5  1 -1</clus>
</clustering>
</event>
<event>
 9    1  0.1713970E-005  0.9993706E+02  0.7546771E-02  0.1280776E+00
         -3   -1    0    0    0  501 -0.00000000000E+00  0.00000000000E+00  0.73525727798E+03  0.73525727798E+03  0.00000000000E+00 0.  1.
          3   -1    0    0  502    0  0.00000000000E+00 -0.00000000000E+00 -0.32336207895E+02  0.32336207895E+02  0.00000000000E+00 0. -1.
         23    2    1    2    0    0 -0.41896311208E+02  0.10099986890E+02  0.38612237354E+03  0.39892212109E+03  0.90504479004E+02 0.  0.
         23    2    1    2    0    0  0.24015430352E+02 -0.35114878092E+02  0.76539902082E+02  0.12645295302E+03  0.91226077180E+02 0.  0.
        -11    1    4    4    0    0 -0.10073884572E+02 -0.53891513187E+02  0.66641983189E+02  0.86295609780E+02  0.00000000000E+00 0.  1.
         11    1    4    4    0    0  0.34089314924E+02  0.18776635095E+02  0.98979188936E+01  0.40157343237E+02  0.00000000000E+00 0. -1.
        -13    1    3    3    0    0  0.28264784150E+02 -0.42941903956E+01  0.11461375318E+03  0.11812557095E+03  0.00000000000E+00 0. -1.
         13    1    3    3    0    0 -0.70161095358E+02  0.14394177286E+02  0.27150862035E+03  0.28079655013E+03  0.00000000000E+00 0.  1.
         21    1    1    2  502  501  0.17880880856E+02  0.25014891202E+02  0.24025879446E+03  0.24221841177E+03  0.00000000000E+00 0. -1.
<scales pt_clust_5="13000.00000" pt_clust_6="13000.00000" pt_clust_7="13000.00000" pt_clust_8="13000.00000" pt_clust_9="30.74851"></scales>
<clustering>
<clus scale="   30.749">  1  9  2 -1</clus>
<clus scale="   90.504">  7  8 -1 -1</clus>
<clus scale="   91.226">  5  6 -1 -1</clus>
<clus scale="   99.279">  1  7  2 -1</clus>
<clus scale="   99.937">  2  5  1 -1</clus>
</clustering>
</event>
<event>
 9    1  0.1713970E-005  0.9379546E+02  0.7546771E-02  0.1294135E+00
          1   -1    0    0  502    0  0.00000000000E+00  0.00000000000E+00  0.46099208657E+03  0.46099208657E+03  0.00000000000E+00 0. -1.
         -1   -1    0    0    0  501 -0.00000000000E+00 -0.00000000000E+00 -0.51837084135E+02  0.51837084135E+02  0.00000000000E+00 0.  1.
         23    2    1    2    0    0  0.47905588600E+02 -0.49783909147E+01  0.33848272140E+02  0.10753184483E+03  0.89987012007E+02 0.  0.
         23    2    1    2    0    0 -0.19700989259E+02  0.90071814371E+01  0.36219984191E+03  0.37393618591E+03  0.90389641868E+02 0.  0.
        -13    1    3    3    0    0  0.57843840776E+02 -0.30478714595E+02  0.43477825734E+02  0.78518681151E+02  0.00000000000E+00 0.  1.
         13    1    3    3    0    0 -0.99382521763E+01  0.25500323680E+02 -0.96295535939E+01  0.29013163677E+02  0.00000000000E+00 0. -1.
        -13    1    4    4    0    0 -0.28258041994E+02  0.45617384701E+02  0.24680179707E+03  0.25256799037E+03  0.00000000000E+00 0. -1.
         13    1    4    4    0    0  0.85570527352E+01 -0.36610203264E+02  0.11539804484E+03  0.12136819553E+03  0.00000000000E+00 0.  1.
         21    1    1    2  502  501 -0.28204599341E+02 -0.40287905224E+01  0.13106888387E+02  0.31361139970E+02  0.00000000000E+00 0. -1.
<scales pt_clust_5="13000.00000" pt_clust_6="13000.00000" pt_clust_7="13000.00000" pt_clust_8="13000.00000" pt_clust_9="28.49089"></scales>
<clustering>
<clus scale="   28.491">  2  9  1 -1</clus>
<clus scale="   89.987">  5  6 -1 -1</clus>
<clus scale="   90.390">  7  8 -1 -1</clus>
<clus scale="   93.408">  2  5  1 -1</clus>
<clus scale="   93.795">  1  5  2 -1</clus>
</clustering>
</event>
<event>
 9    1  0.1713970E-005  0.1477364E+03  0.7546771E-02  0.1203699E+00
         -1   -1    0    0    0  501 -0.00000000000E+00  0.00000000000E+00  0.11982249572E+03  0.11982249572E+03  0.00000000000E+00 0.  1.
          1   -1    0    0  502    0  0.00000000000E+00 -0.00000000000E+00 -0.31255433763E+03  0.31255433763E+03  0.00000000000E+00 0. -1.
         23    2    1    2    0    0 -0.43021093083E+01  0.13039416069E+03 -0.48273711053E+02  0.16710139818E+03  0.92581752033E+02 0.  0.
         23    2    1    2    0    0  0.33848703904E+02 -0.10188018902E+03 -0.16577193060E+03  0.21901177889E+03  0.94660016102E+02 0.  0.
        -11    1    4    4    0    0 -0.32079317284E+00 -0.10266366578E+03 -0.92620609282E+02  0.13826969459E+03  0.00000000000E+00 0.  1.
         11    1    4    4    0    0  0.34169497077E+02  0.78347676135E+00 -0.73151321314E+02  0.80742084295E+02  0.00000000000E+00 0. -1.
        -13    1    3    3    0    0  0.39469472346E+02  0.95560926034E+02 -0.38426715185E+02  0.11030114356E+03  0.00000000000E+00 0. -1.
         13    1    3    3    0    0 -0.43771581654E+02  0.34833234653E+02 -0.98469958683E+01  0.56800254616E+02  0.00000000000E+00 0.  1.
         21    1    1    2  502  501 -0.29546594596E+02 -0.28513971670E+02  0.21313799740E+02  0.46263656275E+02  0.00000000000E+00 0.  1.
<scales pt_clust_5="13000.00000" pt_clust_6="13000.00000" pt_clust_7="13000.00000" pt_clust_8="13000.00000" pt_clust_9="41.06151"></scales>
<clustering>
<clus scale="   41.062">  1  9  2 -1</clus>
<clus scale="   92.582">  7  8 -1 -1</clus>
<clus scale="   94.660">  5  6 -1 -1</clus>
<clus scale="  146.413">  1  7  2 -1</clus>
<clus scale="  147.736">  2  5  1 -1</clus>
</clustering>
</event>
<event>
 9    1  0.1713970E-005  0.9643702E+02  0.7546771E-02  0.1290057E+00
         -1   -1    0    0    0  501 -0.00000000000E+00  0.00000000000E+00  0.30386368460E+02  0.30386368460E+02  0.00000000000E+00 0.  1.
          1   -1    0    0  502    0  0.00000000000E+00 -0.00000000000E+00 -0.37406168755E+03  0.37406168755E+03  0.00000000000E+00 0. -1.
         23    2    1    2    0    0 -0.77509155760E+01 -0.15203491932E+02 -0.13477387337E+03  0.16578905240E+03  0.95030469289E+02 0.  0.
         23    2    1    2    0    0  0.21132628267E+02 -0.14572439250E+01 -0.17681213841E+03  0.20010548240E+03  0.91274094142E+02 0.  0.
        -11    1    4    4    0    0 -0.11537897647E+02 -0.34279496566E+02 -0.32786918120E+02  0.48817916452E+02  0.00000000000E+00 0. -1.
         11    1    4    4    0    0  0.32670525914E+02  0.32822252641E+02 -0.14402522029E+03  0.15128756595E+03  0.00000000000E+00 0.  1.
        -13    1    3    3    0    0 -0.34721625189E+02 -0.41646161015E+02 -0.10312767250E+03  0.11651313582E+03  0.00000000000E+00 0. -1.
         13    1    3    3    0    0  0.26970709613E+02  0.26442669083E+02 -0.31646200867E+02  0.49275916578E+02  0.00000000000E+00 0.  1.
         21    1    1    2  502  501 -0.13381712691E+02  0.16660735857E+02 -0.32089307315E+02  0.38553521211E+02  0.00000000000E+00 0.  1.
<scales pt_clust_5="13000.00000" pt_clust_6="13000.00000" pt_clust_7="13000.00000" pt_clust_8="13000.00000" pt_clust_9="21.36938"></scales>
<clustering>
<clus scale="   21.369">  1  9  2 -1</clus>
<clus scale="   91.274">  5  6 -1 -1</clus>
<clus scale="   92.738">  2  5  1 -1</clus>
<clus scale="   95.030">  7  8 -1 -1</clus>
<clus scale="   92.738">  2  5  1 -1</clus>
</clustering>
</event>
<event>
 9    1  0.1713970E-005  0.9432495E+02  0.7546771E-02  0.1293555E+00
          2   -1    0    0  502    0  0.00000000000E+00  0.00000000000E+00  0.57189738020E+03  0.57189738020E+03  0.00000000000E+00 0. -1.
         -2   -1    0    0    0  501 -0.00000000000E+00 -0.00000000000E+00 -0.29704023168E+02  0.29704023168E+02  0.00000000000E+00 0.  1.
         23    2    1    2    0    0 -0.96174266314E+01 -0.13482309824E+02  0.10891759020E+03  0.14342372673E+03  0.91831674064E+02 0.  0.
         23    2    1    2    0    0  0.22619451064E+02 -0.16391543655E+02  0.40217951135E+03  0.41313906136E+03  0.90306159269E+02 0.  0.
        -11    1    3    3    0    0 -0.42307333732E+02 -0.25978952902E+02  0.92025051987E+02  0.10456302728E+03  0.00000000000E+00 0. -1.
         11    1    3    3    0    0  0.32689907100E+02  0.12496643078E+02  0.16892538218E+02  0.38860699452E+02  0.00000000000E+00 0.  1.
        -13    1    4    4    0    0  0.28278643907E+02 -0.51262643790E+02  0.22660021858E+03  0.23404102079E+03  0.00000000000E+00 0.  1.
         13    1    4    4    0    0 -0.56591928430E+01  0.34871100135E+02  0.17557929277E+03  0.17909804057E+03  0.00000000000E+00 0. -1.
         21    1    1    2  502  501 -0.13002024432E+02  0.29873853479E+02  0.31096255479E+02  0.45038615274E+02  0.00000000000E+00 0. -1.
<scales pt_clust_5="13000.00000" pt_clust_6="13000.00000" pt_clust_7="13000.00000" pt_clust_8="13000.00000" pt_clust_9="32.58067"></scales>
<clustering>
<clus scale="   32.581">  2  9  1 -1</clus>
<clus scale="   90.306">  7  8 -1 -1</clus>
<clus scale="   91.832">  5  6 -1 -1</clus>
<clus scale="   92.840">  1  7  2 -1</clus>
<clus scale="   92.840">  1  5  2 -1</clus>
</clustering>
</event>
<event>
 9    1  0.1713970E-005  0.1543944E+03  0.7546771E-02  0.1195628E+00
         -2   -1    0    0    0  501 -0.00000000000E+00  0.00000000000E+00  0.16447047189E+03  0.16447047189E+03  0.00000000000E+00 0. -1.
          2   -1    0    0  502    0  0.00000000000E+00 -0.00000000000E+00 -0.37425134127E+03  0.37425134127E+03  0.00000000000E+00 0.  1.
         23    2    1    2    0    0  0.58151606943E+02  0.12912157983E+03 -0.42649445258E+02  0.17311500809E+03  0.89976880788E+02 0.  0.
         23    2    1    2    0    0 -0.36918348342E+02 -0.11196219388E+03 -0.24270665708E+03  0.28525189462E+03  0.92539854593E+02 0.  0.
        -11    1    4    4    0    0 -0.57052422285E+02 -0.44830302612E+02 -0.16701388367E+03  0.18209440480E+03  0.00000000000E+00 0. -1.
         11    1    4    4    0    0  0.20134073943E+02 -0.67131891267E+02 -0.75692773414E+02  0.10315748982E+03  0.00000000000E+00 0.  1.
        -13    1    3    3    0    0  0.19643972760E+02  0.34512712476E+02 -0.57515933876E+02  0.69893459192E+02  0.00000000000E+00 0.  1.
         13    1    3    3    0    0  0.38507634183E+02  0.94608867355E+02  0.14866488618E+02  0.10322154890E+03  0.00000000000E+00 0. -1.
         21    1    1    2  502  501 -0.21233258601E+02 -0.17159385953E+02  0.75575232957E+02  0.80354910451E+02  0.00000000000E+00 0.  1.
<scales pt_clust_5="13000.00000" pt_clust_6="13000.00000" pt_clust_7="13000.00000" pt_clust_8="13000.00000" pt_clust_9="27.30011"></scales>
<clustering>
<clus scale="   27.300">  1  9  2 -1</clus>
<clus scale="   89.977">  7  8 -1 -1</clus>
<clus scale="   92.540">  5  6 -1 -1</clus>
<clus scale="  152.872">  1  7  2 -1</clus>
<clus scale="  154.394">  2  5  1 -1</clus>
</clustering>
</event>
<event>
 9    1  0.1713970E-005  0.2063883E+03  0.7546771E-02  0.1145181E+00
          2   -1    0    0  502    0  0.00000000000E+00  0.00000000000E+00  0.53122302349E+03  0.53122302349E+03  0.00000000000E+00 0. -1.
         -2   -1    0    0    0  501 -0.00000000000E+00 -0.00000000000E+00 -0.20694310604E+03  0.20694310604E+03  0.00000000000E+00 0.  1.
         23    2    1    2    0    0 -0.19597628995E+03 -0.90853276709E+02 -0.76327858151E+02  0.24979270850E+03  0.99546125889E+02 0.  0.
         23    2    1    2    0    0  0.14860414170E+03  0.94141285687E+02  0.39298614949E+03  0.44027954805E+03  0.91990185029E+02 0.  0.
        -11    1    3    3    0    0 -0.25678134905E+02 -0.15642980402E+02  0.23855202273E+02  0.38381507573E+02  0.00000000000E+00 0. -1.
         11    1    3    3    0    0 -0.17029815505E+03 -0.75210296307E+02 -0.10018306042E+03  0.21141120093E+03  0.00000000000E+00 0.  1.
        -13    1    4    4    0    0  0.12010479558E+03  0.27506785248E+02  0.28179062288E+03  0.30755119948E+03  0.00000000000E+00 0. -1.
         13    1    4    4    0    0  0.28499346125E+02  0.66634500438E+02  0.11119552660E+03  0.13272834857E+03  0.00000000000E+00 0.  1.
         21    1    1    2  502  501  0.47372148249E+02 -0.32880089779E+01  0.76216261094E+01  0.48093872971E+02  0.00000000000E+00 0. -1.
<scales pt_clust_5="13000.00000" pt_clust_6="13000.00000" pt_clust_7="13000.00000" pt_clust_8="13000.00000" pt_clust_9="47.48612"></scales>
<clustering>
<clus scale="   47.486">  2  9  1 -1</clus>
<clus scale="   91.990">  7  8 -1 -1</clus>
<clus scale="   99.546">  5  6 -1 -1</clus>
<clus scale="  202.852">  1  7  2 -1</clus>
<clus scale="  202.852">  1  5  2 -1</clus>
</clustering>
</event>
<event>
 9    1  0.1713970E-005  0.1103972E+03  0.7546771E-02  0.1262041E+00
         -1   -1    0    0    0  501 -0.00000000000E+00  0.00000000000E+00  0.19741277063E+03  0.19741277063E+03  0.00000000000E+00 0.  1.
          1   -1    0    0  502    0  0.00000000000E+00 -0.00000000000E+00 -0.17688098616E+03  0.17688098616E+03  0.00000000000E+00 0. -1.
         23    2    1    2    0    0 -0.48920215261E+02 -0.44990069749E+02 -0.30602792527E+02  0.11833872096E+03  0.93006602625E+02 0.  0.
         23    2    1    2    0    0  0.39518791655E+02  0.13160154481E+02 -0.71779718214E+02  0.12863868087E+03  0.98288644861E+02 0.  0.
        -11    1    3    3    0    0 -0.27321145699E+02 -0.53766751714E+02  0.19246673283E+02  0.63306737593E+02  0.00000000000E+00 0.  1.
         11    1    3    3    0    0 -0.21599069563E+02  0.87766819656E+01 -0.49849465809E+02  0.55031983371E+02  0.00000000000E+00 0. -1.
        -13    1    4    4    0    0  0.50630051876E+02  0.33763594815E+02 -0.88491908795E+01  0.61495452409E+02  0.00000000000E+00 0.  1.
         13    1    4    4    0    0 -0.11111260220E+02 -0.20603440334E+02 -0.62930527334E+02  0.67143228458E+02  0.00000000000E+00 0. -1.
         21    1    1    2  502  501  0.94014236058E+01  0.31829915267E+02  0.12291429521E+03  0.12731635495E+03  0.00000000000E+00 0. -1.
<scales pt_clust_5="13000.00000" pt_clust_6="13000.00000" pt_clust_7="13000.00000" pt_clust_8="13000.00000" pt_clust_9="33.18931"></scales>
<clustering>
<clus scale="   33.189">  1  9  2 -1</clus>
<clus scale="   93.007">  5  6 -1 -1</clus>
<clus scale="   98.289">  7  8 -1 -1</clus>
<clus scale="  105.722">  1  5  2 -1</clus>
<clus scale="  110.397">  2  5  1 -1</clus>
</clustering>
</event>
<event>
 9    1  0.1713970E-005  0.2960434E+03  0.7546771E-02  0.1127060E+00
          2   -1    0    0  502    0  0.00000000000E+00  0.00000000000E+00  0.18832764972E+04  0.18832764972E+04  0.00000000000E+00 0. -1.
         -2   -1    0    0    0  501 -0.00000000000E+00 -0.00000000000E+00 -0.77131585191E+02  0.77131585191E+02  0.00000000000E+00 0.  1.
         23    2    1    2    0    0 -0.52882072885E+02 -0.13941020683E+02  0.99637957628E+02  0.14601871720E+03  0.91667210507E+02 0.  0.
         23    2    1    2    0    0 -0.20820786227E+03 -0.13160579959E+03  0.43292534744E+03  0.50619903474E+03  0.90235835028E+02 0.  0.
        -13    1    4    4    0    0 -0.14752236564E+03 -0.40815124232E+02  0.25767925956E+03  0.29971206772E+03  0.00000000000E+00 0.  1.
         13    1    4    4    0    0 -0.60685496628E+02 -0.90790675357E+02  0.17524608788E+03  0.20648696702E+03  0.00000000000E+00 0. -1.
        -13    1    3    3    0    0  0.17207485412E+02 -0.25604587280E+02  0.11773442096E+02  0.33019787746E+02  0.00000000000E+00 0. -1.
         13    1    3    3    0    0 -0.70089558297E+02  0.11663566598E+02  0.87864515532E+02  0.11299892945E+03  0.00000000000E+00 0.  1.
         21    1    1    2  502  501  0.26108993516E+03  0.14554682027E+03  0.12735816069E+04  0.13081903305E+04  0.00000000000E+00 0. -1.
<scales pt_clust_5="13000.00000" pt_clust_6="13000.00000" pt_clust_7="13000.00000" pt_clust_8="13000.00000" pt_clust_9="281.95604"></scales>
<clustering>
<clus scale="   90.236">  5  6 -1 -1</clus>
<clus scale="   91.667">  7  8 -1 -1</clus>
<clus scale="  106.741">  2  7  1 -1</clus>
<clus scale="  281.956">  1  9  2 -1</clus>
<clus scale="  281.956">  1  5  2 -1</clus>
</clustering>
</event>
<event>
 9    1  0.1713970E-005  0.2150723E+03  0.7546771E-02  0.1137759E+00
          3   -1    0    0  502    0  0.00000000000E+00  0.00000000000E+00  0.12790844912E+04  0.12790844912E+04  0.00000000000E+00 0. -1.
         -3   -1    0    0    0  501 -0.00000000000E+00 -0.00000000000E+00 -0.46541088513E+02  0.46541088513E+02  0.00000000000E+00 0.  1.
         23    2    1    2    0    0  0.18552489229E+03 -0.92913875891E+02  0.64095501014E+03  0.67997877655E+03  0.92170155384E+02 0.  0.
         23    2    1    2    0    0 -0.15278899555E+03  0.10076367840E+03  0.57052091932E+03  0.60593412553E+03  0.90356234183E+02 0.  0.
        -11    1    3    3    0    0  0.15632415256E+03 -0.47245935924E+02  0.55348625650E+03  0.57707577949E+03  0.00000000000E+00 0. -1.
         11    1    3    3    0    0  0.29200739728E+02 -0.45667939967E+02  0.87468753642E+02  0.10290299707E+03  0.00000000000E+00 0.  1.
        -13    1    4    4    0    0 -0.69275023032E+02  0.63171534219E+02  0.16109659832E+03  0.18639148463E+03  0.00000000000E+00 0.  1.
         13    1    4    4    0    0 -0.83513972514E+02  0.37592144184E+02  0.40942432099E+03  0.41954264090E+03  0.00000000000E+00 0. -1.
         21    1    1    2  502  501 -0.32735896739E+02 -0.78498025116E+01  0.21067473180E+02  0.39712677585E+02  0.00000000000E+00 0.  1.
<scales pt_clust_5="13000.00000" pt_clust_6="13000.00000" pt_clust_7="13000.00000" pt_clust_8="13000.00000" pt_clust_9="33.66390"></scales>
<clustering>
<clus scale="   33.664">  2  9  1 -1</clus>
<clus scale="   90.356">  7  8 -1 -1</clus>
<clus scale="   92.170">  5  6 -1 -1</clus>
<clus scale="  214.301">  1  7  2 -1</clus>
<clus scale="  214.301">  1  5  2 -1</clus>
</clustering>
</event>
<event>
 9    1  0.1713970E-005  0.9576433E+02  0.7546771E-02  0.1289761E+00
         -3   -1    0    0    0  501 -0.00000000000E+00  0.00000000000E+00  0.27875363455E+03  0.27875363455E+03  0.00000000000E+00 0.  1.
          3   -1    0    0  502    0  0.00000000000E+00 -0.00000000000E+00 -0.11986921743E+03  0.11986921743E+03  0.00000000000E+00 0. -1.
         23    2    1    2    0    0 -0.43449757986E+01  0.71075024827E+02  0.39546814692E+02  0.12292014039E+03  0.92059070121E+02 0.  0.
         23    2    1    2    0    0 -0.14066174767E+02 -0.42080267320E+01 -0.39988122695E+02  0.10193605028E+03  0.92608550510E+02 0.  0.
        -11    1    3    3    0    0  0.21317856135E+02  0.84338260444E+02  0.34564194982E+02  0.93605965299E+02  0.00000000000E+00 0. -1.
         11    1    3    3    0    0 -0.25662831934E+02 -0.13263235617E+02  0.49826197104E+01  0.29314175087E+02  0.00000000000E+00 0.  1.
        -13    1    4    4    0    0 -0.49940019827E+02  0.10491507638E+02 -0.37039252942E+02  0.63055400810E+02  0.00000000000E+00 0.  1.
         13    1    4    4    0    0  0.35873845060E+02 -0.14699534370E+02 -0.29488697527E+01  0.38880649466E+02  0.00000000000E+00 0. -1.
         21    1    1    2  502  501  0.18411150565E+02 -0.66866998095E+02  0.15932572512E+03  0.17376666131E+03  0.00000000000E+00 0.  1.
<scales pt_clust_5="13000.00000" pt_clust_6="13000.00000" pt_clust_7="13000.00000" pt_clust_8="13000.00000" pt_clust_9="69.35536"></scales>
<clustering>
<clus scale="   69.355">  1  9  2 -1</clus>
<clus scale="   92.059">  5  6 -1 -1</clus>
<clus scale="   92.609">  7  8 -1 -1</clus>
<clus scale="   95.233">  1  5  2 -1</clus>
<clus scale="   95.764">  2  5  1 -1</clus>
</clustering>
</event>
<event>
 9    1  0.1713970E-005  0.1250262E+03  0.7546771E-02  0.1235126E+00
          1   -1    0    0  502    0  0.00000000000E+00  0.00000000000E+00  0.45150075983E+03  0.45150075983E+03  0.00000000000E+00 0. -1.
         -1   -1    0    0    0  501 -0.00000000000E+00 -0.00000000000E+00 -0.46090842579E+02  0.46090842579E+02  0.00000000000E+00 0.  1.
         23    2    1    2    0    0  0.17531751294E+02 -0.81582463165E+02  0.15258889153E+03  0.19639986455E+03  0.91249528092E+02 0.  0.
         23    2    1    2    0    0 -0.47100438173E+02  0.75011101277E+02  0.23117768338E+03  0.26396373350E+03  0.91589381045E+02 0.  0.
        -11    1    4    4    0    0 -0.59861767216E+01  0.43724202588E+02  0.23585675536E+02  0.50039227554E+02  0.00000000000E+00 0.  1.
         11    1    4    4    0    0 -0.41114261452E+02  0.31286898689E+02  0.20759200784E+03  0.21392450594E+03  0.00000000000E+00 0. -1.
        -11    1    3    3    0    0 -0.25088530694E+01 -0.83218293647E+02  0.15520271715E+03  0.17612342875E+03  0.00000000000E+00 0. -1.
         11    1    3    3    0    0  0.20040604364E+02  0.16358304822E+01 -0.26138256200E+01  0.20276435806E+02  0.00000000000E+00 0.  1.
         21    1    1    2  502  501  0.29568686879E+02  0.65713618876E+01  0.21643342339E+02  0.37228004357E+02  0.00000000000E+00 0.  1.
<scales pt_clust_5="13000.00000" pt_clust_6="13000.00000" pt_clust_7="13000.00000" pt_clust_8="13000.00000" pt_clust_9="30.29010"></scales>
<clustering>
<clus scale="   30.290">  2  9  1 -1</clus>
<clus scale="   91.250">  7  8 -1 -1</clus>
<clus scale="   91.589">  5  6 -1 -1</clus>
<clus scale="  124.777">  2  7  1 -1</clus>
<clus scale="  125.026">  1  5  2 -1</clus>
</clustering>
</event>
<event>
 9    1  0.1713970E-005  0.1983371E+03  0.7546771E-02  0.1151175E+00
          4   -1    0    0  502    0  0.00000000000E+00  0.00000000000E+00  0.48049027568E+03  0.48049027568E+03  0.00000000000E+00 0. -1.
         -4   -1    0    0    0  501 -0.00000000000E+00 -0.00000000000E+00 -0.10949854583E+03  0.10949854583E+03  0.00000000000E+00 0.  1.
         23    2    1    2    0    0 -0.10827529873E+03  0.14222963535E+03  0.82824209091E+02  0.21694749993E+03  0.90849098103E+02 0.  0.
         23    2    1    2    0    0  0.89203084625E+02 -0.15100688680E+03  0.29109048472E+03  0.35184384031E+03  0.91105145331E+02 0.  0.
        -11    1    4    4    0    0  0.31111013573E+02 -0.12503685059E+03  0.23000179655E+03  0.26363409413E+03  0.00000000000E+00 0. -1.
         11    1    4    4    0    0  0.58092071052E+02 -0.25970036209E+02  0.61088688169E+02  0.88209746185E+02  0.00000000000E+00 0.  1.
        -13    1    3    3    0    0 -0.92552672897E+02  0.12256244138E+03  0.27312314306E+02  0.15599202483E+03  0.00000000000E+00 0. -1.
         13    1    3    3    0    0 -0.15722625837E+02  0.19667193967E+02  0.55511894785E+02  0.60955475097E+02  0.00000000000E+00 0.  1.
         21    1    1    2  502  501  0.19072214108E+02  0.87772514519E+01 -0.29229639527E+01  0.21197481273E+02  0.00000000000E+00 0. -1.
<scales pt_clust_5="13000.00000" pt_clust_6="13000.00000" pt_clust_7="13000.00000" pt_clust_8="13000.00000" pt_clust_9="20.99499"></scales>
<clustering>
<clus scale="   20.995">  2  9  1 -1</clus>
<clus scale="   90.849">  7  8 -1 -1</clus>
<clus scale="   91.105">  5  6 -1 -1</clus>
<clus scale="  198.220">  2  7  1 -1</clus>
<clus scale="  198.337">  1  5  2 -1</clus>
</clustering>
</event>
<event>
 9    1  0.1713970E-005  0.1388093E+03  0.7546771E-02  0.1226821E+00
         -1   -1    0    0    0  501 -0.00000000000E+00  0.00000000000E+00  0.93830452174E+03  0.93830452174E+03  0.00000000000E+00 0.  1.
          1   -1    0    0  502    0  0.00000000000E+00 -0.00000000000E+00 -0.45113916648E+02  0.45113916648E+02  0.00000000000E+00 0. -1.
         23    2    1    2    0    0 -0.23597151265E+02 -0.61392306028E+02  0.20625040164E+03  0.23540509675E+03  0.92468862951E+02 0.  0.
         23    2    1    2    0    0 -0.47486300225E+02 -0.35125374366E+02  0.94781434344E+02  0.14384405448E+03  0.90657879304E+02 0.  0.
        -11    1    3    3    0    0 -0.57657396615E+02 -0.52021241169E+02  0.13127882858E+03  0.15252775404E+03  0.00000000000E+00 0. -1.
         11    1    3    3    0    0  0.34060245350E+02 -0.93710648585E+01  0.74971573052E+02  0.82877342717E+02  0.00000000000E+00 0.  1.
        -13    1    4    4    0    0 -0.71131983454E+01 -0.58697615092E+02  0.37966608060E+02  0.70267139801E+02  0.00000000000E+00 0.  1.
         13    1    4    4    0    0 -0.40373101879E+02  0.23572240726E+02  0.56814826284E+02  0.73576914680E+02  0.00000000000E+00 0. -1.
         21    1    1    2  502  501  0.71083451490E+02  0.96517680393E+02  0.59215876911E+03  0.60416928716E+03  0.00000000000E+00 0.  1.
<scales pt_clust_5="13000.00000" pt_clust_6="13000.00000" pt_clust_7="13000.00000" pt_clust_8="13000.00000" pt_clust_9="103.52548"></scales>
<clustering>
<clus scale="   90.658">  7  8 -1 -1</clus>
<clus scale="   92.469">  5  6 -1 -1</clus>
<clus scale="  108.202">  2  7  1 -1</clus>
<clus scale="  103.525">  1  9  2 -1</clus>
<clus scale="  108.202">  2  5  1 -1</clus>
</clustering>
</event>
<event>
 9    1  0.1713970E-005  0.9707145E+02  0.7546771E-02  0.1287981E+00
         -1   -1    0    0    0  501 -0.00000000000E+00  0.00000000000E+00  0.46811096401E+02  0.46811096401E+02  0.00000000000E+00 0.  1.
          1   -1    0    0  502    0  0.00000000000E+00 -0.00000000000E+00 -0.26241116046E+03  0.26241116046E+03  0.00000000000E+00 0. -1.
         23    2    1    2    0    0  0.11761843524E+02 -0.33925213239E+02 -0.95070964107E+02  0.13619892585E+03  0.90677440031E+02 0.  0.
         23    2    1    2    0    0 -0.31260242892E+02  0.20217579283E+02 -0.11314059729E+03  0.14806983871E+03  0.87965499380E+02 0.  0.
        -11    1    3    3    0    0  0.24755986269E+02  0.99613950559E+00  0.84493114370E+01  0.26177127685E+02  0.00000000000E+00 0.  1.
         11    1    3    3    0    0 -0.12994142745E+02 -0.34921352745E+02 -0.10352027554E+03  0.11002179817E+03  0.00000000000E+00 0. -1.
        -13    1    4    4    0    0  0.26570028288E+02  0.20801989383E+02 -0.63259829617E+02  0.71697246870E+02  0.00000000000E+00 0.  1.
         13    1    4    4    0    0 -0.57830271180E+02 -0.58441010014E+00 -0.49880767677E+02  0.76372591838E+02  0.00000000000E+00 0. -1.
         21    1    1    2  502  501  0.19498399369E+02  0.13707633956E+02 -0.73885026621E+01  0.24953492305E+02  0.00000000000E+00 0. -1.
<scales pt_clust_5="13000.00000" pt_clust_6="13000.00000" pt_clust_7="13000.00000" pt_clust_8="13000.00000" pt_clust_9="23.83457"></scales>
<clustering>
<clus scale="   23.835">  1  9  2 -1</clus>
<clus scale="   87.965">  7  8 -1 -1</clus>
<clus scale="   90.677">  5  6 -1 -1</clus>
<clus scale="   94.543">  2  7  1 -1</clus>
<clus scale="   94.543">  2  5  1 -1</clus>
</clustering>
</event>
<event>
 9    1  0.1713970E-005  0.9646623E+02  0.7546771E-02  0.1289556E+00
         -2   -1    0    0    0  501 -0.00000000000E+00  0.00000000000E+00  0.18272645782E+02  0.18272645782E+02  0.00000000000E+00 0.  1.
          2   -1    0    0  502    0  0.00000000000E+00 -0.00000000000E+00 -0.78350082371E+03  0.78350082371E+03  0.00000000000E+00 0. -1.
         23    2    1    2    0    0  0.25102524224E+02  0.19615528091E+02 -0.17245829165E+03  0.19677198850E+03  0.89232546938E+02 0.  0.
         23    2    1    2    0    0 -0.46381647122E+02 -0.19618268506E+02 -0.48100937557E+03  0.49123323924E+03  0.86046163764E+02 0.  0.
        -11    1    4    4    0    0 -0.16397035660E+02  0.34139834481E+02 -0.16593365556E+03  0.17020096687E+03  0.00000000000E+00 0.  1.
         11    1    4    4    0    0 -0.29984611462E+02 -0.53758102987E+02 -0.31507572001E+03  0.32103227237E+03  0.00000000000E+00 0. -1.
        -13    1    3    3    0    0 -0.32250187961E+02  0.80381369138E+01 -0.87639221063E+02  0.93730034338E+02  0.00000000000E+00 0. -1.
         13    1    3    3    0    0  0.57352712185E+02  0.11577391177E+02 -0.84819070592E+02  0.10304195416E+03  0.00000000000E+00 0.  1.
         21    1    1    2  502  501  0.21279122898E+02  0.27404152860E-02 -0.11176051071E+03  0.11376824176E+03  0.00000000000E+00 0.  1.
<scales pt_clust_5="13000.00000" pt_clust_6="13000.00000" pt_clust_7="13000.00000" pt_clust_8="13000.00000" pt_clust_9="21.27912"></scales>
<clustering>
<clus scale="   21.279">  2  9  1 -1</clus>
<clus scale="   86.046">  5  6 -1 -1</clus>
<clus scale="   89.233">  7  8 -1 -1</clus>
<clus scale="   93.527">  2  5  1 -1</clus>
<clus scale="   21.279">  2  5  1 -1</clus>
</clustering>
</event>
<event>
 9    1  0.1713970E-005  0.1986889E+03  0.7546771E-02  0.1150977E+00
         -2   -1    0    0    0  501 -0.00000000000E+00  0.00000000000E+00  0.13840934432E+03  0.13840934432E+03  0.00000000000E+00 0.  1.
          2   -1    0    0  502    0  0.00000000000E+00 -0.00000000000E+00 -0.57152891703E+03  0.57152891703E+03  0.00000000000E+00 0. -1.
         23    2    1    2    0    0 -0.79276670676E+02  0.13213423548E+03 -0.12591155940E+03  0.21840268193E+03  0.90009799366E+02 0.  0.
         23    2    1    2    0    0  0.76443518797E+02 -0.17479061203E+03 -0.36367816185E+03  0.42070853030E+03  0.91315346127E+02 0.  0.
        -13    1    3    3    0    0 -0.48366698653E+02  0.10848642305E+03 -0.42142247073E+02  0.12603416407E+03  0.00000000000E+00 0.  1.
         13    1    3    3    0    0 -0.30909972023E+02  0.23647812436E+02 -0.83769312326E+02  0.92368517856E+02  0.00000000000E+00 0. -1.
        -13    1    4    4    0    0  0.29509398053E+02 -0.69978090477E+01 -0.23004856149E+02  0.38065697305E+02  0.00000000000E+00 0.  1.
         13    1    4    4    0    0  0.46934120744E+02 -0.16779280299E+03 -0.34067330571E+03  0.38264283300E+03  0.00000000000E+00 0. -1.
         21    1    1    2  502  501  0.28331518788E+01  0.42656376551E+02  0.56470148545E+02  0.70827049118E+02  0.00000000000E+00 0.  1.
<scales pt_clust_5="13000.00000" pt_clust_6="13000.00000" pt_clust_7="13000.00000" pt_clust_8="13000.00000" pt_clust_9="42.75036"></scales>
<clustering>
<clus scale="   42.750">  1  9  2 -1</clus>
<clus scale="   90.010">  5  6 -1 -1</clus>
<clus scale="   91.315">  7  8 -1 -1</clus>
<clus scale="  198.092">  1  5  2 -1</clus>
<clus scale="  198.689">  2  5  1 -1</clus>
</clustering>
</event>
<event>
 9    1  0.1713970E-005  0.1118111E+03  0.7546771E-02  0.1257757E+00
          2   -1    0    0  502    0  0.00000000000E+00  0.00000000000E+00  0.22148821032E+03  0.22148821032E+03  0.00000000000E+00 0. -1.
         -2   -1    0    0    0  501 -0.00000000000E+00 -0.00000000000E+00 -0.69092446778E+02  0.69092446778E+02  0.00000000000E+00 0.  1.
         23    2    1    2    0    0  0.70929027386E+02 -0.12108300069E+02  0.74610616558E+02  0.13823596006E+03  0.91459820103E+02 0.  0.
         23    2    1    2    0    0 -0.52862019415E+02  0.25271791462E+02  0.71624637440E+02  0.12915749883E+03  0.90102798384E+02 0.  0.
        -13    1    3    3    0    0  0.26462690183E-01  0.28915953382E+02  0.39884596477E+02  0.49263719879E+02  0.00000000000E+00 0. -1.
         13    1    3    3    0    0  0.70902564696E+02 -0.41024253451E+02  0.34726020081E+02  0.88972240178E+02  0.00000000000E+00 0.  1.
        -13    1    4    4    0    0  0.19580040703E+02  0.17795046893E+02 -0.77057824302E+00  0.26469519805E+02  0.00000000000E+00 0.  1.
         13    1    4    4    0    0 -0.72442060118E+02  0.74767445688E+01  0.72395215683E+02  0.10268797903E+03  0.00000000000E+00 0. -1.
         21    1    1    2  502  501 -0.18067007971E+02 -0.13163491393E+02  0.61605095419E+01  0.23187198203E+02  0.00000000000E+00 0. -1.
<scales pt_clust_5="13000.00000" pt_clust_6="13000.00000" pt_clust_7="13000.00000" pt_clust_8="13000.00000" pt_clust_9="22.35384"></scales>
<clustering>
<clus scale="   22.354">  2  9  1 -1</clus>
<clus scale="   90.103">  7  8 -1 -1</clus>
<clus scale="   91.460">  5  6 -1 -1</clus>
<clus scale="  110.704">  1  7  2 -1</clus>
<clus scale="  110.704">  1  5  2 -1</clus>
</clustering>
</event>
<event>
 9    1  0.1713970E-005  0.9511046E+02  0.7546771E-02  0.1292302E+00
         -1   -1    0    0    0  501 -0.00000000000E+00  0.00000000000E+00  0.82119723031E+02  0.82119723031E+02  0.00000000000E+00 0.  1.
          1   -1    0    0  502    0  0.00000000000E+00 -0.00000000000E+00 -0.18464730770E+03  0.18464730770E+03  0.00000000000E+00 0. -1.
         23    2    1    2    0    0 -0.17837154576E+02 -0.24765188613E+01 -0.22284711224E+02  0.96658725268E+02  0.92314698651E+02 0.  0.
         23    2    1    2    0    0 -0.16097152556E+02  0.36489948070E+02 -0.70832147743E+02  0.12114901293E+03  0.89829035113E+02 0.  0.
        -13    1    4    4    0    0  0.19630853892E+02 -0.59309976528E+01 -0.61600097132E+02  0.64923948774E+02  0.00000000000E+00 0.  1.
         13    1    4    4    0    0 -0.35728006448E+02  0.42420945723E+02 -0.92320506105E+01  0.56225064155E+02  0.00000000000E+00 0. -1.
        -13    1    3    3    0    0  0.20496887090E+02  0.16218540384E+02  0.22736981368E+02  0.34642946674E+02  0.00000000000E+00 0.  1.
         13    1    3    3    0    0 -0.38334041666E+02 -0.18695059245E+02 -0.45021692593E+02  0.62015778593E+02  0.00000000000E+00 0. -1.
         21    1    1    2  502  501  0.33934307132E+02 -0.34013429209E+02 -0.94107257017E+01  0.48959292533E+02  0.00000000000E+00 0.  1.
<scales pt_clust_5="13000.00000" pt_clust_6="13000.00000" pt_clust_7="13000.00000" pt_clust_8="13000.00000" pt_clust_9="48.04634"></scales>
<clustering>
<clus scale="   48.046">  1  9  2 -1</clus>
<clus scale="   89.829">  5  6 -1 -1</clus>
<clus scale="   92.315">  7  8 -1 -1</clus>
<clus scale="   92.700">  2  5  1 -1</clus>
<clus scale="   92.700">  2  5  1 -1</clus>
</clustering>
</event>
<event>
 9    1  0.1713970E-005  0.9287174E+02  0.7546771E-02  0.1296401E+00
          1   -1    0    0  502    0  0.00000000000E+00  0.00000000000E+00  0.18459790266E+03  0.18459790266E+03  0.00000000000E+00 0. -1.
         -1   -1    0    0    0  501 -0.00000000000E+00 -0.00000000000E+00 -0.60093029483E+02  0.60093029483E+02  0.00000000000E+00 0.  1.
         23    2    1    2    0    0 -0.10855460872E+02 -0.90582408390E+01  0.49854393287E+02  0.10290227801E+03  0.88901774622E+02 0.  0.
         23    2    1    2    0    0  0.21240650344E+02  0.30313775783E+02  0.59969159337E+02  0.11394640029E+03  0.89539889649E+02 0.  0.
        -11    1    3    3    0    0 -0.30846966421E+02 -0.27149420839E+02 -0.53751079519E+01  0.41442950845E+02  0.00000000000E+00 0.  1.
         11    1    3    3    0    0  0.19991505550E+02  0.18091180000E+02  0.55229501239E+02  0.61459327161E+02  0.00000000000E+00 0. -1.
        -13    1    4    4    0    0 -0.12068698243E+02  0.29989310874E+02  0.71683709164E+02  0.78635656056E+02  0.00000000000E+00 0. -1.
         13    1    4    4    0    0  0.33309348587E+02  0.32446490950E+00 -0.11714549826E+02  0.35310744235E+02  0.00000000000E+00 0.  1.
         21    1    1    2  502  501 -0.10385189472E+02 -0.21255534944E+02  0.14681320554E+02  0.27842253848E+02  0.00000000000E+00 0.  1.
<scales pt_clust_5="13000.00000" pt_clust_6="13000.00000" pt_clust_7="13000.00000" pt_clust_8="13000.00000" pt_clust_9="23.65692"></scales>
<clustering>
<clus scale="   23.657">  1  9  2 -1</clus>
<clus scale="   88.902">  5  6 -1 -1</clus>
<clus scale="   89.540">  7  8 -1 -1</clus>
<clus scale="   92.257">  2  5  1 -1</clus>
<clus scale="   23.657">  1  5  2 -1</clus>
</clustering>
</event>
<event>
 9    1  0.1713970E-005  0.1191502E+03  0.7546771E-02  0.1244643E+00
          2   -1    0    0  502    0  0.00000000000E+00  0.00000000000E+00  0.70832606398E+03  0.70832606398E+03  0.00000000000E+00 0. -1.
         -2   -1    0    0    0  501 -0.00000000000E+00 -0.00000000000E+00 -0.16517494653E+03  0.16517494653E+03  0.00000000000E+00 0.  1.
         23    2    1    2    0    0 -0.50178297356E+02  0.20035718302E+01  0.80564615634E+02  0.13186082838E+03  0.91513632553E+02 0.  0.
         23    2    1    2    0    0  0.80670529711E+02 -0.15968773620E+02  0.59366201387E+03  0.60634201896E+03  0.91941944496E+02 0.  0.
        -11    1    3    3    0    0 -0.71016298169E+02 -0.13510899624E+02  0.37175777917E+02  0.81288975132E+02  0.00000000000E+00 0.  1.
         11    1    3    3    0    0  0.20838000813E+02  0.15514471455E+02  0.43388837716E+02  0.50571853247E+02  0.00000000000E+00 0. -1.
        -13    1    4    4    0    0  0.55536159898E+02 -0.52737931516E+02  0.42794372084E+03  0.43474289262E+03  0.00000000000E+00 0. -1.
         13    1    4    4    0    0  0.25134369813E+02  0.36769157897E+02  0.16571829303E+03  0.17159912634E+03  0.00000000000E+00 0.  1.
         21    1    1    2  502  501 -0.30492232355E+02  0.13965201790E+02 -0.13107551205E+03  0.13529816316E+03  0.00000000000E+00 0.  1.
<scales pt_clust_5="13000.00000" pt_clust_6="13000.00000" pt_clust_7="13000.00000" pt_clust_8="13000.00000" pt_clust_9="33.53808"></scales>
<clustering>
<clus scale="   33.538">  2  9  1 -1</clus>
<clus scale="   91.514">  5  6 -1 -1</clus>
<clus scale="   91.942">  7  8 -1 -1</clus>
<clus scale="  118.820">  2  5  1 -1</clus>
<clus scale="  119.150">  1  5  2 -1</clus>
</clustering>
</event>
<event>
 9    1  0.1713970E-005  0.1562116E+03  0.7546771E-02  0.1193397E+00
          2   -1    0    0  502    0  0.00000000000E+00  0.00000000000E+00  0.83264994642E+03  0.83264994642E+03  0.00000000000E+00 0. -1.
         -2   -1    0    0    0  501 -0.00000000000E+00 -0.00000000000E+00 -0.57410573813E+02  0.57410573813E+02  0.00000000000E+00 0.  1.
         23    2    1    2    0    0 -0.52755542673E+02  0.10675767933E+03  0.29414330412E+03  0.33096007255E+03  0.93989025328E+02 0.  0.
         23    2    1    2    0    0  0.39515181322E+02 -0.12286969195E+03  0.50388015038E+03  0.52821325765E+03  0.91954493399E+02 0.  0.
        -13    1    3    3    0    0 -0.55166316021E+02  0.70521425123E+02  0.27640170983E+03  0.29054173370E+03  0.00000000000E+00 0. -1.
         13    1    3    3    0    0  0.24107733480E+01  0.36236254210E+02  0.17741594295E+02  0.40418338851E+02  0.00000000000E+00 0.  1.
        -13    1    4    4    0    0  0.47773314212E+02 -0.30349068886E+02  0.11217080936E+03  0.12564094080E+03  0.00000000000E+00 0.  1.
         13    1    4    4    0    0 -0.82581328900E+01 -0.92520623066E+02  0.39170934102E+03  0.40257231685E+03  0.00000000000E+00 0. -1.
         21    1    1    2  502  501  0.13240361351E+02  0.16112012618E+02 -0.22784081904E+02  0.30887190024E+02  0.00000000000E+00 0.  1.
<scales pt_clust_5="13000.00000" pt_clust_6="13000.00000" pt_clust_7="13000.00000" pt_clust_8="13000.00000" pt_clust_9="20.85435"></scales>
<clustering>
<clus scale="   20.854">  2  9  1 -1</clus>
<clus scale="   91.954">  7  8 -1 -1</clus>
<clus scale="   93.989">  5  6 -1 -1</clus>
<clus scale="  154.996">  1  7  2 -1</clus>
<clus scale="  154.996">  1  5  2 -1</clus>
</clustering>
</event>
<event>
 9    1  0.1713970E-005  0.2019308E+03  0.7546771E-02  0.1148179E+00
         -2   -1    0    0    0  501 -0.00000000000E+00  0.00000000000E+00  0.16951872221E+03  0.16951872221E+03  0.00000000000E+00 0.  1.
          2   -1    0    0  502    0  0.00000000000E+00 -0.00000000000E+00 -0.27979887732E+03  0.27979887732E+03  0.00000000000E+00 0. -1.
         23    2    1    2    0    0 -0.98688363068E+02 -0.13433546059E+03 -0.30004138765E+02  0.19178045743E+03  0.89967141395E+02 0.  0.
         23    2    1    2    0    0  0.10935539579E+03  0.15863046325E+03 -0.87267536972E+02  0.23009786183E+03  0.90593468578E+02 0.  0.
        -11    1    3    3    0    0 -0.58979793805E+02 -0.13740065597E+03 -0.25777002151E+02  0.15173005693E+03  0.00000000000E+00 0.  1.
         11    1    3    3    0    0 -0.39708569264E+02  0.30651953773E+01 -0.42271366137E+01  0.40050400493E+02  0.00000000000E+00 0. -1.
        -13    1    4    4    0    0 -0.15136378947E+02  0.22848450871E+02 -0.20229495978E+02  0.34064559037E+02  0.00000000000E+00 0.  1.
         13    1    4    4    0    0  0.12449177474E+03  0.13578201238E+03 -0.67038040994E+02  0.19603330279E+03  0.00000000000E+00 0. -1.
         21    1    1    2  502  501 -0.10667032722E+02 -0.24295002661E+02  0.69915206203E+01  0.27439280275E+02  0.00000000000E+00 0.  1.
<scales pt_clust_5="13000.00000" pt_clust_6="13000.00000" pt_clust_7="13000.00000" pt_clust_8="13000.00000" pt_clust_9="26.53362"></scales>
<clustering>
<clus scale="   26.534">  1  9  2 -1</clus>
<clus scale="   89.967">  5  6 -1 -1</clus>
<clus scale="   90.593">  7  8 -1 -1</clus>
<clus scale="  201.651">  1  5  2 -1</clus>
<clus scale="  201.931">  2  5  1 -1</clus>
</clustering>
</event>
<event>
 9    1  0.3925074E-005  0.1652023E+03  0.7546771E-02  0.1202650E+00
          2   -1    0    0  502    0  0.00000000000E+00  0.00000000000E+00  0.88388941914E+03  0.88388941914E+03  0.00000000000E+00 0. -1.
         -2   -1    0    0    0  501 -0.00000000000E+00 -0.00000000000E+00 -0.18435475450E+03  0.18435475450E+03  0.00000000000E+00 0.  1.
         23    2    1    2    0    0 -0.80835161311E+01 -0.57786370794E+02 -0.11876809862E+03  0.15993353886E+03  0.89823536552E+02 0.  0.
         23    2    1    2    0    0  0.28117408656E+02 -0.84367525849E+02  0.72998935626E+02  0.14930675952E+03  0.95158792279E+02 0.  0.
        -13    1    3    3    0    0  0.32293492960E+02 -0.58390713696E+02 -0.74665931795E+02  0.10013663917E+03  0.00000000000E+00 0.  1.
         13    1    3    3    0    0 -0.40377009091E+02  0.60434290146E+00 -0.44102166827E+02  0.59796899688E+02  0.00000000000E+00 0. -1.
        -13    1    4    4    0    0 -0.16914430161E+02 -0.83291494207E+02  0.43658751984E+02  0.95549241649E+02  0.00000000000E+00 0.  1.
         13    1    4    4    0    0  0.45031838817E+02 -0.10760316419E+01  0.29340183642E+02  0.53757517870E+02  0.00000000000E+00 0. -1.
         21    1    1    2  502  501 -0.20033892525E+02  0.14215389664E+03  0.74530382763E+03  0.75900387526E+03  0.00000000000E+00 0. -1.
<scales pt_clust_5="13000.00000" pt_clust_6="13000.00000" pt_clust_7="13000.00000" pt_clust_8="13000.00000" pt_clust_9="135.04294"></scales>
<clustering>
<clus scale="   89.824">  5  6 -1 -1</clus>
<clus scale="   95.159">  7  8 -1 -1</clus>
<clus scale="  107.112">  2  5  1 -1</clus>
<clus scale="  135.043">  1  9  2 -1</clus>
<clus scale="  135.043">  1  5  2 -1</clus>
</clustering>
</event>
<event>
 9    1  0.1713970E-005  0.1071468E+03  0.7546771E-02  0.1272255E+00
         -1   -1    0    0    0  501 -0.00000000000E+00  0.00000000000E+00  0.15099773674E+03  0.15099773674E+03  0.00000000000E+00 0.  1.
          1   -1    0    0  502    0  0.00000000000E+00 -0.00000000000E+00 -0.12681947613E+03  0.12681947613E+03  0.00000000000E+00 0. -1.
         23    2    1    2    0    0 -0.19295663907E+02  0.35688708984E+02  0.66202845701E+02  0.11941681863E+03  0.90727907494E+02 0.  0.
         23    2    1    2    0    0 -0.54315345401E+00 -0.24547232628E+02 -0.66104017644E+02  0.12527140026E+03  0.10353898266E+03 0.  0.
        -11    1    3    3    0    0  0.26476938995E+02  0.34029957801E+01 -0.66590648258E+01  0.27512757462E+02  0.00000000000E+00 0. -1.
         11    1    3    3    0    0 -0.45772602902E+02  0.32285713204E+02  0.72861910527E+02  0.91904061168E+02  0.00000000000E+00 0.  1.
        -13    1    4    4    0    0 -0.14081750290E+02  0.22661980919E+02 -0.71065824926E+02  0.75909238850E+02  0.00000000000E+00 0.  1.
         13    1    4    4    0    0  0.13538596836E+02 -0.47209213547E+02  0.49618072826E+01  0.49362161414E+02  0.00000000000E+00 0. -1.
         21    1    1    2  502  501  0.19838817361E+02 -0.11141476356E+02  0.24079432552E+02  0.33128993974E+02  0.00000000000E+00 0. -1.
<scales pt_clust_5="13000.00000" pt_clust_6="13000.00000" pt_clust_7="13000.00000" pt_clust_8="13000.00000" pt_clust_9="22.75327"></scales>
<clustering>
<clus scale="   22.753">  1  9  2 -1</clus>
<clus scale="   90.728">  5  6 -1 -1</clus>
<clus scale="   94.824">  1  5  2 -1</clus>
<clus scale="  103.539">  7  8 -1 -1</clus>
<clus scale="  107.147">  2  5  1 -1</clus>
</clustering>
</event>
<event>
 9    1  0.1713970E-005  0.9497736E+02  0.7546771E-02  0.1292830E+00
          1   -1    0    0  502    0  0.00000000000E+00  0.00000000000E+00  0.33674704001E+03  0.33674704001E+03  0.00000000000E+00 0. -1.
         -1   -1    0    0    0  501 -0.00000000000E+00 -0.00000000000E+00 -0.91840642266E+02  0.91840642266E+02  0.00000000000E+00 0.  1.
         23    2    1    2    0    0  0.17648703984E+02  0.20076924137E+02  0.12824626732E+03  0.15813000762E+03  0.88563167240E+02 0.  0.
         23    2    1    2    0    0  0.23153633640E+01 -0.28400887711E+02  0.17978990292E+03  0.20372521982E+03  0.91474502836E+02 0.  0.
        -13    1    3    3    0    0 -0.49279582862E+01  0.45618418825E+02  0.31772349441E+02  0.55810456887E+02  0.00000000000E+00 0.  1.
         13    1    3    3    0    0  0.22576662271E+02 -0.25541494688E+02  0.96473917881E+02  0.10231955073E+03  0.00000000000E+00 0. -1.
        -13    1    4    4    0    0  0.46291666371E+02 -0.88851929504E+01  0.77976665682E+02  0.91116548552E+02  0.00000000000E+00 0.  1.
         13    1    4    4    0    0 -0.43976303007E+02 -0.19515694761E+02  0.10181323723E+03  0.11260867127E+03  0.00000000000E+00 0. -1.
         21    1    1    2  502  501 -0.19964067348E+02  0.83239635739E+01 -0.63129772492E+02  0.66732454844E+02  0.00000000000E+00 0.  1.
<scales pt_clust_5="13000.00000" pt_clust_6="13000.00000" pt_clust_7="13000.00000" pt_clust_8="13000.00000" pt_clust_9="21.62989"></scales>
<clustering>
<clus scale="   21.630">  2  9  1 -1</clus>
<clus scale="   88.563">  5  6 -1 -1</clus>
<clus scale="   91.475">  7  8 -1 -1</clus>
<clus scale="   92.177">  2  5  1 -1</clus>
<clus scale="   94.977">  1  5  2 -1</clus>
</clustering>
</event>
<event>
 9    1  0.1713970E-005  0.1370080E+03  0.7546771E-02  0.1217620E+00
         -2   -1    0    0    0  501 -0.00000000000E+00  0.00000000000E+00  0.47216061956E+03  0.47216061956E+03  0.00000000000E+00 0.  1.
          2   -1    0    0  502    0  0.00000000000E+00 -0.00000000000E+00 -0.45812444515E+03  0.45812444515E+03  0.00000000000E+00 0. -1.
         23    2    1    2    0    0  0.60040995330E+02  0.77463255884E+02  0.38372444187E+03  0.40681619579E+03  0.93002649078E+02 0.  0.
         23    2    1    2    0    0 -0.14947826924E+03 -0.12322122941E+03 -0.36442350701E+03  0.42286799512E+03  0.92117449393E+02 0.  0.
        -11    1    4    4    0    0 -0.11290215782E+03 -0.97148206830E+02 -0.34121902074E+03  0.37231047722E+03  0.00000000000E+00 0. -1.
         11    1    4    4    0    0 -0.36576111427E+02 -0.26073022578E+02 -0.23204486267E+02  0.50557517902E+02  0.00000000000E+00 0.  1.
        -13    1    3    3    0    0  0.84998421270E+01  0.82435746194E+02  0.21958515641E+03  0.23470309006E+03  0.00000000000E+00 0. -1.
         13    1    3    3    0    0  0.51541153203E+02 -0.49724903105E+01  0.16413928546E+03  0.17211310573E+03  0.00000000000E+00 0.  1.
         21    1    1    2  502  501  0.89437273914E+02  0.45757973524E+02 -0.52647604605E+01  0.10060087380E+03  0.00000000000E+00 0.  1.
<scales pt_clust_5="13000.00000" pt_clust_6="13000.00000" pt_clust_7="13000.00000" pt_clust_8="13000.00000" pt_clust_9="100.46302"></scales>
<clustering>
<clus scale="   92.117">  5  6 -1 -1</clus>
<clus scale="   93.003">  7  8 -1 -1</clus>
<clus scale="  100.463">  2  9  1 -1</clus>
<clus scale="  136.409">  2  5  1 -1</clus>
<clus scale="  100.463">  2  5  1 -1</clus>
</clustering>
</event>
<event>
 9    1  0.1713970E-005  0.9423195E+02  0.7546771E-02  0.1293703E+00
          3   -1    0    0  502    0  0.00000000000E+00  0.00000000000E+00  0.82178461575E+02  0.82178461575E+02  0.00000000000E+00 0. -1.
         -3   -1    0    0    0  501 -0.00000000000E+00 -0.00000000000E+00 -0.26926103907E+03  0.26926103907E+03  0.00000000000E+00 0.  1.
         23    2    1    2    0    0 -0.38718583020E+01  0.32889314546E+00 -0.17531786009E+03  0.19759434842E+03  0.91060831344E+02 0.  0.
         23    2    1    2    0    0 -0.21066860782E+02 -0.66259520021E+01  0.34321401684E+02  0.10106709776E+03  0.92460173984E+02 0.  0.
        -11    1    4    4    0    0 -0.15233105993E+02 -0.38630729486E+02 -0.13114648226E+02  0.43547385420E+02  0.00000000000E+00 0.  1.
         11    1    4    4    0    0 -0.58337547891E+01  0.32004777484E+02  0.47436049911E+02  0.57519712342E+02  0.00000000000E+00 0. -1.
        -11    1    3    3    0    0 -0.34263544000E+02 -0.12175822518E+02 -0.25997357847E+02  0.44700153428E+02  0.00000000000E+00 0. -1.
         11    1    3    3    0    0  0.30391685698E+02  0.12504715664E+02 -0.14932050224E+03  0.15289419500E+03  0.00000000000E+00 0.  1.
         21    1    1    2  502  501  0.24938719084E+02  0.62970588567E+01 -0.46086119085E+02  0.52778054456E+02  0.00000000000E+00 0.  1.
<scales pt_clust_5="13000.00000" pt_clust_6="13000.00000" pt_clust_7="13000.00000" pt_clust_8="13000.00000" pt_clust_9="25.72144"></scales>
<clustering>
<clus scale="   25.721">  2  9  1 -1</clus>
<clus scale="   91.061">  7  8 -1 -1</clus>
<clus scale="   92.460">  5  6 -1 -1</clus>
<clus scale="   92.859">  2  7  1 -1</clus>
<clus scale="   94.232">  1  5  2 -1</clus>
</clustering>
</event>
<event>
 9    1  0.1713970E-005  0.1088992E+03  0.7546771E-02  0.1263486E+00
          2   -1    0    0  502    0  0.00000000000E+00  0.00000000000E+00  0.31575741075E+03  0.31575741075E+03  0.00000000000E+00 0. -1.
         -2   -1    0    0    0  501 -0.00000000000E+00 -0.00000000000E+00 -0.37804555577E+03  0.37804555577E+03  0.00000000000E+00 0.  1.
         23    2    1    2    0    0 -0.31524569957E+02 -0.36012248802E+02  0.10529445659E+03  0.14773086733E+03  0.91906506836E+02 0.  0.
         23    2    1    2    0    0  0.71570263634E+02  0.13736777386E+02  0.16989682120E+03  0.20549580079E+03  0.89736239065E+02 0.  0.
        -11    1    4    4    0    0  0.42102343912E+02  0.97663646823E+00  0.16814213447E+03  0.17333591251E+03  0.00000000000E+00 0. -1.
         11    1    4    4    0    0  0.29467919722E+02  0.12760140918E+02  0.17546867278E+01  0.32159888285E+02  0.00000000000E+00 0.  1.
        -13    1    3    3    0    0  0.17872143056E+02  0.18682307416E+02  0.11113493627E+02  0.28141639049E+02  0.00000000000E+00 0.  1.
         13    1    3    3    0    0 -0.49396713012E+02 -0.54694556217E+02  0.94180962963E+02  0.11958922828E+03  0.00000000000E+00 0. -1.
         21    1    1    2  502  501 -0.40045693677E+02  0.22275471416E+02 -0.33747942280E+03  0.34057629839E+03  0.00000000000E+00 0.  1.
<scales pt_clust_5="13000.00000" pt_clust_6="13000.00000" pt_clust_7="13000.00000" pt_clust_8="13000.00000" pt_clust_9="45.82417"></scales>
<clustering>
<clus scale="   45.824">  2  9  1 -1</clus>
<clus scale="   89.736">  5  6 -1 -1</clus>
<clus scale="   91.907">  7  8 -1 -1</clus>
<clus scale="  107.074">  1  5  2 -1</clus>
<clus scale="  107.074">  1  5  2 -1</clus>
</clustering>
</event>
<event>
 9    1  0.1713970E-005  0.1371051E+03  0.7546771E-02  0.1217738E+00
         -1   -1    0    0    0  501 -0.00000000000E+00  0.00000000000E+00  0.15506554968E+03  0.15506554968E+03  0.00000000000E+00 0.  1.
          1   -1    0    0  502    0  0.00000000000E+00 -0.00000000000E+00 -0.29282636671E+03  0.29282636671E+03  0.00000000000E+00 0. -1.
         23    2    1    2    0    0  0.11012727102E+03  0.39389520187E+02  0.55901789334E+02  0.15795152856E+03  0.90244807063E+02 0.  0.
         23    2    1    2    0    0 -0.99620650126E+02 -0.16866215085E+02 -0.21747988412E+03  0.25551726951E+03  0.88220359769E+02 0.  0.
        -11    1    4    4    0    0 -0.93707988219E+02 -0.44423031597E+02 -0.18817298471E+03  0.21485731304E+03  0.00000000000E+00 0. -1.
         11    1    4    4    0    0 -0.59126619067E+01  0.27556816512E+02 -0.29306899418E+02  0.40659956475E+02  0.00000000000E+00 0.  1.
        -11    1    3    3    0    0  0.84971739202E+02  0.12359843499E+02 -0.57822949403E+01  0.86060427196E+02  0.00000000000E+00 0. -1.
         11    1    3    3    0    0  0.25155531814E+02  0.27029676688E+02  0.61684084275E+02  0.71891101365E+02  0.00000000000E+00 0.  1.
         21    1    1    2  502  501 -0.10506620890E+02 -0.22523305102E+02  0.23817277755E+02  0.34423118320E+02  0.00000000000E+00 0. -1.
<scales pt_clust_5="13000.00000" pt_clust_6="13000.00000" pt_clust_7="13000.00000" pt_clust_8="13000.00000" pt_clust_9="24.85334"></scales>
<clustering>
<clus scale="   24.853">  1  9  2 -1</clus>
<clus scale="   88.220">  5  6 -1 -1</clus>
<clus scale="   90.245">  7  8 -1 -1</clus>
<clus scale="  135.781">  2  5  1 -1</clus>
<clus scale="  135.781">  2  5  1 -1</clus>
</clustering>
</event>
<event>
 9    1  0.1713970E-005  0.1792256E+03  0.7546771E-02  0.1183528E+00
          2   -1    0    0  502    0  0.00000000000E+00  0.00000000000E+00  0.88871003763E+03  0.88871003763E+03  0.00000000000E+00 0.  1.
         -2   -1    0    0    0  501 -0.00000000000E+00 -0.00000000000E+00 -0.82095230996E+02  0.82095230996E+02  0.00000000000E+00 0. -1.
         23    2    1    2    0    0 -0.69987207604E+02  0.18482634741E+03  0.19644884432E+03  0.29327955795E+03  0.91442674670E+02 0.  0.
         23    2    1    2    0    0  0.66862105651E+02 -0.56202001042E+02  0.47096015164E+03  0.48796768140E+03  0.93165377482E+02 0.  0.
        -11    1    4    4    0    0 -0.18370597302E+02 -0.31328432619E+02  0.96031820832E+02  0.10266966518E+03  0.00000000000E+00 0. -1.
         11    1    4    4    0    0  0.85232702953E+02 -0.24873568422E+02  0.37492833081E+03  0.38529801622E+03  0.00000000000E+00 0.  1.
        -13    1    3    3    0    0 -0.65133948326E+02  0.71087310319E+02  0.52589455248E+02  0.10982480465E+03  0.00000000000E+00 0.  1.
         13    1    3    3    0    0 -0.48532592784E+01  0.11373903709E+03  0.14385938907E+03  0.18345475330E+03  0.00000000000E+00 0. -1.
         21    1    1    2  502  501  0.31251019531E+01 -0.12862434636E+03  0.13920581067E+03  0.18955802928E+03  0.00000000000E+00 0. -1.
<scales pt_clust_5="13000.00000" pt_clust_6="13000.00000" pt_clust_7="13000.00000" pt_clust_8="13000.00000" pt_clust_9="154.14291"></scales>
<clustering>
<clus scale="   91.443">  7  8 -1 -1</clus>
<clus scale="   93.165">  5  6 -1 -1</clus>
<clus scale="  127.707">  1  5  2 -1</clus>
<clus scale="  154.143">  2  9  1 -1</clus>
<clus scale="  127.707">  1  5  2 -1</clus>
</clustering>
</event>
<event>
 9    1  0.1713970E-005  0.1688591E+03  0.7546771E-02  0.1180178E+00
         -2   -1    0    0    0  501 -0.00000000000E+00  0.00000000000E+00  0.56311518035E+03  0.56311518035E+03  0.00000000000E+00 0.  1.
          2   -1    0    0  502    0  0.00000000000E+00 -0.00000000000E+00 -0.71686597034E+02  0.71686597034E+02  0.00000000000E+00 0. -1.
         23    2    1    2    0    0 -0.60761238589E+02  0.10327101484E+03  0.34308642727E+03  0.37315471371E+03  0.84730827746E+02 0.  0.
         23    2    1    2    0    0  0.71790260775E+02 -0.13161207231E+03  0.95009459259E+02  0.20025299705E+03  0.92730180423E+02 0.  0.
        -11    1    4    4    0    0  0.20372128718E+02 -0.79177892270E+02  0.96910247350E+02  0.12679021372E+03  0.00000000000E+00 0.  1.
         11    1    4    4    0    0  0.51418132057E+02 -0.52434180037E+02 -0.19007880909E+01  0.73462783337E+02  0.00000000000E+00 0. -1.
        -13    1    3    3    0    0 -0.18539926043E+02  0.95996791203E+02  0.18355004934E+03  0.20796570244E+03  0.00000000000E+00 0.  1.
         13    1    3    3    0    0 -0.42221312546E+02  0.72742236325E+01  0.15953637793E+03  0.16518901127E+03  0.00000000000E+00 0. -1.
         21    1    1    2  502  501 -0.11029022186E+02  0.28341057471E+02  0.53332696790E+02  0.61394066618E+02  0.00000000000E+00 0. -1.
<scales pt_clust_5="13000.00000" pt_clust_6="13000.00000" pt_clust_7="13000.00000" pt_clust_8="13000.00000" pt_clust_9="30.41143"></scales>
<clustering>
<clus scale="   30.411">  1  9  2 -1</clus>
<clus scale="   84.731">  7  8 -1 -1</clus>
<clus scale="   92.730">  5  6 -1 -1</clus>
<clus scale="  164.602">  1  7  2 -1</clus>
<clus scale="  168.859">  2  5  1 -1</clus>
</clustering>
</event>
<event>
 9    1  0.1713970E-005  0.1120061E+03  0.7546771E-02  0.1257391E+00
          3   -1    0    0  502    0  0.00000000000E+00  0.00000000000E+00  0.70049275005E+03  0.70049275005E+03  0.00000000000E+00 0. -1.
         -3   -1    0    0    0  501 -0.00000000000E+00 -0.00000000000E+00 -0.24186640965E+02  0.24186640965E+02  0.00000000000E+00 0.  1.
         23    2    1    2    0    0  0.66225189271E+01 -0.45917439144E+02  0.21069071547E+03  0.23490129368E+03  0.92928850260E+02 0.  0.
         23    2    1    2    0    0  0.48323455677E+01  0.73970057522E+02  0.40799838378E+03  0.42467907168E+03  0.91622659799E+02 0.  0.
        -13    1    3    3    0    0 -0.17130023837E+02 -0.38901821613E+02  0.20516947738E+03  0.20952637994E+03  0.00000000000E+00 0. -1.
         13    1    3    3    0    0  0.23752542764E+02 -0.70156175315E+01  0.55212380892E+01  0.25374913737E+02  0.00000000000E+00 0.  1.
        -13    1    4    4    0    0  0.45706869245E+02  0.55646166408E+02  0.27819775391E+03  0.28736667172E+03  0.00000000000E+00 0. -1.
         13    1    4    4    0    0 -0.40874523677E+02  0.18323891114E+02  0.12980062986E+03  0.13731239996E+03  0.00000000000E+00 0.  1.
         21    1    1    2  502  501 -0.11454864495E+02 -0.28052618378E+02  0.57617009838E+02  0.65099025655E+02  0.00000000000E+00 0.  1.
<scales pt_clust_5="13000.00000" pt_clust_6="13000.00000" pt_clust_7="13000.00000" pt_clust_8="13000.00000" pt_clust_9="30.30121"></scales>
<clustering>
<clus scale="   30.301">  2  9  1 -1</clus>
<clus scale="   91.623">  7  8 -1 -1</clus>
<clus scale="   92.929">  5  6 -1 -1</clus>
<clus scale="  110.925">  1  7  2 -1</clus>
<clus scale="  110.925">  1  5  2 -1</clus>
</clustering>
</event>
<event>
 9    1  0.1713970E-005  0.1728236E+03  0.7546771E-02  0.1175410E+00
          2   -1    0    0  502    0  0.00000000000E+00  0.00000000000E+00  0.42863461594E+03  0.42863461594E+03  0.00000000000E+00 0. -1.
         -2   -1    0    0    0  501 -0.00000000000E+00 -0.00000000000E+00 -0.12588765456E+03  0.12588765456E+03  0.00000000000E+00 0.  1.
         23    2    1    2    0    0 -0.11306917562E+03  0.70087102389E+02  0.98181873130E+02  0.18849176964E+03  0.90513129518E+02 0.  0.
         23    2    1    2    0    0  0.11281556659E+03 -0.10452096489E+03  0.25051553082E+03  0.30860926456E+03  0.93966285557E+02 0.  0.
        -13    1    4    4    0    0  0.38376523901E+02 -0.44407289521E+02  0.25302083586E+02  0.63913694801E+02  0.00000000000E+00 0.  1.
         13    1    4    4    0    0  0.74439042691E+02 -0.60113675368E+02  0.22521344724E+03  0.24469556976E+03  0.00000000000E+00 0. -1.
        -13    1    3    3    0    0 -0.12189717966E+03  0.51855822080E+02  0.60328109893E+02  0.14555902424E+03  0.00000000000E+00 0.  1.
         13    1    3    3    0    0  0.88280040411E+01  0.18231280308E+02  0.37853763237E+02  0.42932745407E+02  0.00000000000E+00 0. -1.
         21    1    1    2  502  501  0.25360902992E+00  0.34433862501E+02 -0.45950442582E+02  0.57421236296E+02  0.00000000000E+00 0.  1.
<scales pt_clust_5="13000.00000" pt_clust_6="13000.00000" pt_clust_7="13000.00000" pt_clust_8="13000.00000" pt_clust_9="34.43480"></scales>
<clustering>
<clus scale="   34.435">  2  9  1 -1</clus>
<clus scale="   90.513">  7  8 -1 -1</clus>
<clus scale="   93.966">  5  6 -1 -1</clus>
<clus scale="  170.971">  2  7  1 -1</clus>
<clus scale="  172.824">  1  5  2 -1</clus>
</clustering>
</event>
<event>
 9    1  0.1713970E-005  0.9393754E+02  0.7546771E-02  0.1293603E+00
         -2   -1    0    0    0  501 -0.00000000000E+00  0.00000000000E+00  0.23460872130E+03  0.23460872130E+03  0.00000000000E+00 0.  1.
          2   -1    0    0  502    0  0.00000000000E+00 -0.00000000000E+00 -0.94950702537E+02  0.94950702537E+02  0.00000000000E+00 0. -1.
         23    2    1    2    0    0  0.42527685007E+01 -0.80291519708E+01  0.11081349807E+03  0.14406038773E+03  0.91603551447E+02 0.  0.
         23    2    1    2    0    0 -0.16269739226E+02 -0.20789145178E+02 -0.44912207205E+02  0.10540561099E+03  0.91631563891E+02 0.  0.
        -11    1    4    4    0    0 -0.48120811077E+02 -0.11090334374E+02 -0.51625124391E+02  0.71440614804E+02  0.00000000000E+00 0. -1.
         11    1    4    4    0    0  0.31851071850E+02 -0.96988108033E+01  0.67129171856E+01  0.33964996190E+02  0.00000000000E+00 0.  1.
        -11    1    3    3    0    0 -0.29926520760E+02  0.26315584021E+02  0.30184046384E+02  0.49991831965E+02  0.00000000000E+00 0. -1.
         11    1    3    3    0    0  0.34179289261E+02 -0.34344735992E+02  0.80629451685E+02  0.94068555766E+02  0.00000000000E+00 0.  1.
         21    1    1    2  502  501  0.12016970726E+02  0.28818297149E+02  0.73756727894E+02  0.80093425108E+02  0.00000000000E+00 0.  1.
<scales pt_clust_5="13000.00000" pt_clust_6="13000.00000" pt_clust_7="13000.00000" pt_clust_8="13000.00000" pt_clust_9="31.22342"></scales>
<clustering>
<clus scale="   31.223">  1  9  2 -1</clus>
<clus scale="   91.604">  7  8 -1 -1</clus>
<clus scale="   91.632">  5  6 -1 -1</clus>
<clus scale="   93.910">  1  7  2 -1</clus>
<clus scale="   93.938">  2  5  1 -1</clus>
</clustering>
</event>
<event>
 9    1  0.1713970E-005  0.1051027E+03  0.7546771E-02  0.1271086E+00
         -1   -1    0    0    0  501 -0.00000000000E+00  0.00000000000E+00  0.10150026333E+03  0.10150026333E+03  0.00000000000E+00 0.  1.
          1   -1    0    0  502    0  0.00000000000E+00 -0.00000000000E+00 -0.26165711554E+03  0.26165711554E+03  0.00000000000E+00 0. -1.
         23    2    1    2    0    0  0.54210540498E+02  0.40017030282E+02  0.33031861383E+02  0.11671197322E+03  0.89389235441E+02 0.  0.
         23    2    1    2    0    0 -0.42977204415E+02 -0.21317951738E+02 -0.19848275843E+03  0.22399835042E+03  0.92078012748E+02 0.  0.
        -11    1    4    4    0    0  0.26512838944E+02 -0.20825851129E+02 -0.76721791928E+02  0.83802625620E+02  0.00000000000E+00 0.  1.
         11    1    4    4    0    0 -0.69490043359E+02 -0.49210060900E+00 -0.12176096650E+03  0.14019572480E+03  0.00000000000E+00 0. -1.
        -13    1    3    3    0    0  0.22638738681E+02 -0.14920242530E+01  0.55475936338E+02  0.59935950297E+02  0.00000000000E+00 0.  1.
         13    1    3    3    0    0  0.31571801817E+02  0.41509054535E+02 -0.22444074955E+02  0.56776022922E+02  0.00000000000E+00 0. -1.
         21    1    1    2  502  501 -0.11233336083E+02 -0.18699078543E+02  0.52940448368E+01  0.22447055233E+02  0.00000000000E+00 0.  1.
<scales pt_clust_5="13000.00000" pt_clust_6="13000.00000" pt_clust_7="13000.00000" pt_clust_8="13000.00000" pt_clust_9="21.81383"></scales>
<clustering>
<clus scale="   21.814">  1  9  2 -1</clus>
<clus scale="   89.389">  7  8 -1 -1</clus>
<clus scale="   92.078">  5  6 -1 -1</clus>
<clus scale="  102.755">  1  7  2 -1</clus>
<clus scale="  105.103">  2  5  1 -1</clus>
</clustering>
</event>
<event>
 9    1  0.1713970E-005  0.2057556E+03  0.7546771E-02  0.1145331E+00
          1   -1    0    0  502    0  0.00000000000E+00  0.00000000000E+00  0.30852671123E+03  0.30852671123E+03  0.00000000000E+00 0. -1.
         -1   -1    0    0    0  501 -0.00000000000E+00 -0.00000000000E+00 -0.22713985137E+03  0.22713985137E+03  0.00000000000E+00 0.  1.
         23    2    1    2    0    0 -0.62218920879E+01  0.16382854546E+03 -0.11323744041E+03  0.21884842837E+03  0.90517470379E+02 0.  0.
         23    2    1    2    0    0 -0.55520053187E+01 -0.18796718715E+03  0.19899102153E+03  0.28960844961E+03  0.94409423396E+02 0.  0.
        -13    1    4    4    0    0  0.90749892311E+01 -0.16074714179E+03  0.20228000241E+03  0.25853278012E+03  0.00000000000E+00 0. -1.
         13    1    4    4    0    0 -0.14626994550E+02 -0.27220045359E+02 -0.32889808742E+01  0.31075669487E+02  0.00000000000E+00 0.  1.
        -13    1    3    3    0    0 -0.21063405796E+02  0.20983497691E+01 -0.55245062781E+00  0.21174875140E+02  0.00000000000E+00 0. -1.
         13    1    3    3    0    0  0.14841513708E+02  0.16173019569E+03 -0.11268498978E+03  0.19767355323E+03  0.00000000000E+00 0.  1.
         21    1    1    2  502  501  0.11773897407E+02  0.24138641688E+02 -0.43667212651E+01  0.27209684623E+02  0.00000000000E+00 0.  1.
<scales pt_clust_5="13000.00000" pt_clust_6="13000.00000" pt_clust_7="13000.00000" pt_clust_8="13000.00000" pt_clust_9="26.85700"></scales>
<clustering>
<clus scale="   26.857">  2  9  1 -1</clus>
<clus scale="   90.517">  7  8 -1 -1</clus>
<clus scale="   94.409">  5  6 -1 -1</clus>
<clus scale="  203.999">  2  7  1 -1</clus>
<clus scale="  205.756">  1  5  2 -1</clus>
</clustering>
</event>
<event>
 9    1  0.1713970E-005  0.9905451E+02  0.7546771E-02  0.1283041E+00
         -3   -1    0    0    0  501 -0.00000000000E+00  0.00000000000E+00  0.15187653031E+03  0.15187653031E+03  0.00000000000E+00 0.  1.
          3   -1    0    0  502    0  0.00000000000E+00 -0.00000000000E+00 -0.29709754279E+03  0.29709754279E+03  0.00000000000E+00 0. -1.
         23    2    1    2    0    0  0.12519723956E+01  0.14456351084E+02 -0.94240234965E+02  0.13164137960E+03  0.90761651670E+02 0.  0.
         23    2    1    2    0    0 -0.22823300161E+02 -0.50153599849E+02 -0.16444751113E+03  0.19644301078E+03  0.92252837137E+02 0.  0.
        -11    1    4    4    0    0 -0.18996324500E+02  0.22379248220E+02 -0.79105857495E+02  0.84376701674E+02  0.00000000000E+00 0. -1.
         11    1    4    4    0    0 -0.38269756604E+01 -0.72532848069E+02 -0.85341653637E+02  0.11206630911E+03  0.00000000000E+00 0.  1.
        -11    1    3    3    0    0  0.18020197302E+01 -0.29218673515E+02 -0.17147772319E+01  0.29324369013E+02  0.00000000000E+00 0.  1.
         11    1    3    3    0    0 -0.55004733460E+00  0.43675024599E+02 -0.92525457733E+02  0.10231701058E+03  0.00000000000E+00 0. -1.
         21    1    1    2  502  501  0.21571327765E+02  0.35697248765E+02  0.11346673362E+03  0.12088968272E+03  0.00000000000E+00 0.  1.
<scales pt_clust_5="13000.00000" pt_clust_6="13000.00000" pt_clust_7="13000.00000" pt_clust_8="13000.00000" pt_clust_9="41.70870"></scales>
<clustering>
<clus scale="   41.709">  1  9  2 -1</clus>
<clus scale="   90.762">  7  8 -1 -1</clus>
<clus scale="   92.253">  5  6 -1 -1</clus>
<clus scale="   97.667">  1  7  2 -1</clus>
<clus scale="   99.055">  2  5  1 -1</clus>
</clustering>
</event>
<event>
 9    1  0.1713970E-005  0.5170923E+03  0.7546771E-02  0.1009421E+00
          1   -1    0    0  502    0  0.00000000000E+00  0.00000000000E+00  0.43982158784E+03  0.43982158784E+03  0.00000000000E+00 0. -1.
         -1   -1    0    0    0  501 -0.00000000000E+00 -0.00000000000E+00 -0.10693237836E+04  0.10693237836E+04  0.00000000000E+00 0.  1.
         23    2    1    2    0    0 -0.38187685598E+03  0.25259837349E+03 -0.30523950103E+03  0.55760091261E+03  0.90065272600E+02 0.  0.
         23    2    1    2    0    0  0.41092634368E+03 -0.34899860764E+03  0.63960479661E+02  0.55047824108E+03  0.90966273284E+02 0.  0.
        -13    1    4    4    0    0  0.36025529079E+02 -0.35597635659E+01 -0.29595045000E+01  0.36321747328E+02  0.00000000000E+00 0.  1.
         13    1    4    4    0    0  0.37490081461E+03 -0.34543884407E+03  0.66919984161E+02  0.51415649375E+03  0.00000000000E+00 0. -1.
        -13    1    3    3    0    0 -0.37029606348E+02  0.34519511475E+02 -0.70768172967E+02  0.87011049435E+02  0.00000000000E+00 0. -1.
         13    1    3    3    0    0 -0.34484724963E+03  0.21807886201E+03 -0.23447132806E+03  0.47058986317E+03  0.00000000000E+00 0.  1.
         21    1    1    2  502  501 -0.29049487704E+02  0.96400234150E+02 -0.38822317435E+03  0.40106621770E+03  0.00000000000E+00 0.  1.
<scales pt_clust_5="13000.00000" pt_clust_6="13000.00000" pt_clust_7="13000.00000" pt_clust_8="13000.00000" pt_clust_9="100.68206"></scales>
<clustering>
<clus scale="   90.065">  7  8 -1 -1</clus>
<clus scale="   90.966">  5  6 -1 -1</clus>
<clus scale="  100.682">  2  9  1 -1</clus>
<clus scale="  516.935">  2  7  1 -1</clus>
<clus scale="  517.092">  1  5  2 -1</clus>
</clustering>
</event>
<event>
 9    1  0.1713970E-005  0.9516142E+02  0.7546771E-02  0.1291320E+00
          2   -1    0    0  502    0  0.00000000000E+00  0.00000000000E+00  0.25705102396E+02  0.25705102396E+02  0.00000000000E+00 0. -1.
         -2   -1    0    0    0  501 -0.00000000000E+00 -0.00000000000E+00 -0.46385089659E+03  0.46385089659E+03  0.00000000000E+00 0.  1.
         23    2    1    2    0    0 -0.10998806194E+02 -0.28057546930E+02 -0.26219688485E+03  0.27914176579E+03  0.90910501634E+02 0.  0.
         23    2    1    2    0    0  0.17963978146E+02  0.84819774216E+01 -0.13481763660E+03  0.16433280375E+03  0.91841313135E+02 0.  0.
        -11    1    4    4    0    0 -0.14784469436E+02 -0.16770346013E+02 -0.11731713668E+03  0.11942837017E+03  0.00000000000E+00 0.  1.
         11    1    4    4    0    0  0.32748447581E+02  0.25252323434E+02 -0.17500499915E+02  0.44904433580E+02  0.00000000000E+00 0. -1.
        -11    1    3    3    0    0 -0.18486940565E+01 -0.61278875656E+02 -0.16588937403E+03  0.17685531569E+03  0.00000000000E+00 0.  1.
         11    1    3    3    0    0 -0.91501121370E+01  0.33221328726E+02 -0.96307510819E+02  0.10228645010E+03  0.00000000000E+00 0. -1.
         21    1    1    2  502  501 -0.69651719520E+01  0.19575569508E+02 -0.41131272745E+02  0.46081429443E+02  0.00000000000E+00 0. -1.
<scales pt_clust_5="13000.00000" pt_clust_6="13000.00000" pt_clust_7="13000.00000" pt_clust_8="13000.00000" pt_clust_9="20.77779"></scales>
<clustering>
<clus scale="   20.778">  1  9  2 -1</clus>
<clus scale="   90.911">  7  8 -1 -1</clus>
<clus scale="   91.841">  5  6 -1 -1</clus>
<clus scale="   94.263">  2  7  1 -1</clus>
<clus scale="   20.778">  1  5  2 -1</clus>
</clustering>
</event>
<event>
 9    1  0.1713970E-005  0.1644279E+03  0.7546771E-02  0.1183909E+00
          1   -1    0    0  502    0  0.00000000000E+00  0.00000000000E+00  0.61431946370E+03  0.61431946370E+03  0.00000000000E+00 0. -1.
         -1   -1    0    0    0  501 -0.00000000000E+00 -0.00000000000E+00 -0.11810361009E+03  0.11810361009E+03  0.00000000000E+00 0.  1.
         23    2    1    2    0    0  0.13214897350E+03  0.80831108349E+02  0.19577529113E+03  0.26595012277E+03  0.91675972370E+02 0.  0.
         23    2    1    2    0    0 -0.13668857069E+03  0.21666901216E+02  0.32122638293E+03  0.36179009551E+03  0.92479533692E+02 0.  0.
        -13    1    4    4    0    0 -0.11885091623E+03 -0.78628899572E+01  0.17596202490E+03  0.21248529252E+03  0.00000000000E+00 0. -1.
         13    1    4    4    0    0 -0.17837654458E+02  0.29529791173E+02  0.14526435803E+03  0.14930480299E+03  0.00000000000E+00 0.  1.
        -13    1    3    3    0    0  0.22660748678E+02 -0.19661757569E+02  0.46276249462E+02  0.55150571217E+02  0.00000000000E+00 0.  1.
         13    1    3    3    0    0  0.10948822482E+03  0.10049286592E+03  0.14949904167E+03  0.21079955155E+03  0.00000000000E+00 0. -1.
         21    1    1    2  502  501  0.45395971934E+01 -0.10249800957E+03 -0.20785820452E+02  0.10468285552E+03  0.00000000000E+00 0.  1.
<scales pt_clust_5="13000.00000" pt_clust_6="13000.00000" pt_clust_7="13000.00000" pt_clust_8="13000.00000" pt_clust_9="102.59849"></scales>
<clustering>
<clus scale="   91.676">  7  8 -1 -1</clus>
<clus scale="   92.480">  5  6 -1 -1</clus>
<clus scale="  102.598">  2  9  1 -1</clus>
<clus scale="  163.977">  2  7  1 -1</clus>
<clus scale="  164.428">  1  5  2 -1</clus>
</clustering>
</event>
<event>
 9    1  0.1713970E-005  0.9145959E+02  0.7546771E-02  0.1300687E+00
          1   -1    0    0  502    0  0.00000000000E+00  0.00000000000E+00  0.13049582985E+03  0.13049582985E+03  0.00000000000E+00 0. -1.
         -1   -1    0    0    0  501 -0.00000000000E+00 -0.00000000000E+00 -0.10405575055E+03  0.10405575055E+03  0.00000000000E+00 0.  1.
         23    2    1    2    0    0 -0.11285569225E+02  0.95153600471E+01 -0.31868975787E+01  0.90347151774E+02  0.89076065068E+02 0.  0.
         23    2    1    2    0    0 -0.14588172096E+02  0.29697536292E+01  0.53491181801E+02  0.10685702136E+03  0.91298862432E+02 0.  0.
        -11    1    4    4    0    0 -0.21019834403E+02  0.33263355968E+02  0.63159777135E+02  0.74413988848E+02  0.00000000000E+00 0. -1.
         11    1    4    4    0    0  0.64316623076E+01 -0.30293602339E+02 -0.96685953334E+01  0.32443032510E+02  0.00000000000E+00 0.  1.
        -11    1    3    3    0    0  0.24000375726E+02 -0.28965229590E+02 -0.58542935255E+01  0.38069348732E+02  0.00000000000E+00 0.  1.
         11    1    3    3    0    0 -0.35285944951E+02  0.38480589637E+02  0.26673959468E+01  0.52277803043E+02  0.00000000000E+00 0. -1.
         21    1    1    2  502  501  0.25873741321E+02 -0.12485113676E+02 -0.23864204916E+02  0.37347407269E+02  0.00000000000E+00 0. -1.
<scales pt_clust_5="13000.00000" pt_clust_6="13000.00000" pt_clust_7="13000.00000" pt_clust_8="13000.00000" pt_clust_9="28.72853"></scales>
<clustering>
<clus scale="   28.729">  2  9  1 -1</clus>
<clus scale="   89.076">  7  8 -1 -1</clus>
<clus scale="   89.241">  2  7  1 -1</clus>
<clus scale="   91.299">  5  6 -1 -1</clus>
<clus scale="   91.460">  1  5  2 -1</clus>
</clustering>
</event>
<event>
 9    1  0.1713970E-005  0.9756511E+02  0.7546771E-02  0.1290301E+00
          2   -1    0    0  502    0  0.00000000000E+00  0.00000000000E+00  0.36128493637E+03  0.36128493637E+03  0.00000000000E+00 0. -1.
         -2   -1    0    0    0  501 -0.00000000000E+00 -0.00000000000E+00 -0.61139513613E+02  0.61139513613E+02  0.00000000000E+00 0.  1.
         23    2    1    2    0    0 -0.28892368515E+02  0.23290758206E+02  0.37659107527E+01  0.90776261634E+02  0.82758197275E+02 0.  0.
         23    2    1    2    0    0  0.33364061470E+02 -0.23349687025E+01  0.29434339672E+03  0.31012408751E+03  0.91762202365E+02 0.  0.
        -11    1    4    4    0    0 -0.21461326831E+02 -0.24551264331E+02  0.16067774875E+03  0.16395332285E+03  0.00000000000E+00 0.  1.
         11    1    4    4    0    0  0.54825388300E+02  0.22216295628E+02  0.13366564797E+03  0.14617076466E+03  0.00000000000E+00 0. -1.
        -13    1    3    3    0    0 -0.47612135312E+02  0.42041924563E+02  0.77282701240E+01  0.63985662527E+02  0.00000000000E+00 0. -1.
         13    1    3    3    0    0  0.18719766797E+02 -0.18751166357E+02 -0.39623593713E+01  0.26790599106E+02  0.00000000000E+00 0.  1.
         21    1    1    2  502  501 -0.44716929544E+01 -0.20955789504E+02  0.20361152841E+01  0.21524100842E+02  0.00000000000E+00 0.  1.
<scales pt_clust_5="13000.00000" pt_clust_6="13000.00000" pt_clust_7="13000.00000" pt_clust_8="13000.00000" pt_clust_9="21.42758"></scales>
<clustering>
<clus scale="   21.428">  2  9  1 -1</clus>
<clus scale="   82.758">  7  8 -1 -1</clus>
<clus scale="   89.149">  2  7  1 -1</clus>
<clus scale="   91.762">  5  6 -1 -1</clus>
<clus scale="   97.565">  1  5  2 -1</clus>
</clustering>
</event>
<event>
 9    1  0.1713970E-005  0.1627637E+03  0.7546771E-02  0.1190432E+00
          1   -1    0    0  502    0  0.00000000000E+00  0.00000000000E+00  0.16716108351E+03  0.16716108351E+03  0.00000000000E+00 0. -1.
         -1   -1    0    0    0  501 -0.00000000000E+00 -0.00000000000E+00 -0.24167748117E+03  0.24167748117E+03  0.00000000000E+00 0.  1.
         23    2    1    2    0    0 -0.13752331951E+02  0.13216778742E+03  0.62494973152E+01  0.18068587169E+03  0.12227378029E+03 0.  0.
         23    2    1    2    0    0 -0.21251964236E+02 -0.87331376014E+02 -0.57794116897E+01  0.13403267804E+03  0.99261986492E+02 0.  0.
        -11    1    4    4    0    0 -0.40157088192E+02 -0.51304959949E+02 -0.43671693649E+02  0.78434733847E+02  0.00000000000E+00 0. -1.
         11    1    4    4    0    0  0.18905123956E+02 -0.36026416065E+02  0.37892281959E+02  0.55597944192E+02  0.00000000000E+00 0.  1.
        -13    1    3    3    0    0 -0.16880974726E+02  0.29759541432E+02 -0.52437463006E+02  0.62612180448E+02  0.00000000000E+00 0.  1.
         13    1    3    3    0    0  0.31286427749E+01  0.10240824599E+03  0.58686960322E+02  0.11807369124E+03  0.00000000000E+00 0. -1.
         21    1    1    2  502  501  0.35004296187E+02 -0.44836411404E+02 -0.74986483283E+02  0.94120014950E+02  0.00000000000E+00 0.  1.
<scales pt_clust_5="13000.00000" pt_clust_6="13000.00000" pt_clust_7="13000.00000" pt_clust_8="13000.00000" pt_clust_9="56.88237"></scales>
<clustering>
<clus scale="   56.882">  2  9  1 -1</clus>
<clus scale="   99.262">  5  6 -1 -1</clus>
<clus scale="  122.274">  7  8 -1 -1</clus>
<clus scale="  146.267">  1  5  2 -1</clus>
<clus scale="  146.267">  1  5  2 -1</clus>
</clustering>
</event>
<event>
 9    1  0.1713970E-005  0.1734407E+03  0.7546771E-02  0.1174428E+00
         -1   -1    0    0    0  501 -0.00000000000E+00  0.00000000000E+00  0.23773412476E+02  0.23773412476E+02  0.00000000000E+00 0.  1.
          1   -1    0    0  502    0  0.00000000000E+00 -0.00000000000E+00 -0.16427930039E+04  0.16427930039E+04  0.00000000000E+00 0. -1.
         23    2    1    2    0    0  0.11354533347E+03  0.10628697949E+03 -0.63241400384E+03  0.65752191251E+03  0.90543516692E+02 0.  0.
         23    2    1    2    0    0 -0.12512215659E+03 -0.63872998914E+02 -0.78717368932E+03  0.80482391081E+03  0.91453792722E+02 0.  0.
        -11    1    3    3    0    0  0.70590282482E+02  0.96142230902E+02 -0.56123600922E+03  0.57377014090E+03  0.00000000000E+00 0. -1.
         11    1    3    3    0    0  0.42955050991E+02  0.10144748586E+02 -0.71177994618E+02  0.83751771607E+02  0.00000000000E+00 0.  1.
        -13    1    4    4    0    0 -0.12985035640E+03 -0.44092434791E+02 -0.75015614980E+03  0.76258737659E+03  0.00000000000E+00 0.  1.
         13    1    4    4    0    0  0.47281998192E+01 -0.19780564123E+02 -0.37017539522E+02  0.42236534219E+02  0.00000000000E+00 0. -1.
         21    1    1    2  502  501  0.11576823113E+02 -0.42413980574E+02 -0.19943189832E+03  0.20422059311E+03  0.00000000000E+00 0.  1.
<scales pt_clust_5="13000.00000" pt_clust_6="13000.00000" pt_clust_7="13000.00000" pt_clust_8="13000.00000" pt_clust_9="43.96554"></scales>
<clustering>
<clus scale="   43.966">  2  9  1 -1</clus>
<clus scale="   90.544">  5  6 -1 -1</clus>
<clus scale="   91.454">  7  8 -1 -1</clus>
<clus scale="  172.962">  1  5  2 -1</clus>
<clus scale="   43.966">  2  5  1 -1</clus>
</clustering>
</event>
<event>
 9    1  0.1713970E-005  0.1738802E+03  0.7546771E-02  0.1174526E+00
         -2   -1    0    0    0  501 -0.00000000000E+00  0.00000000000E+00  0.30172424309E+02  0.30172424309E+02  0.00000000000E+00 0.  1.
          2   -1    0    0  502    0  0.00000000000E+00 -0.00000000000E+00 -0.13250878378E+04  0.13250878378E+04  0.00000000000E+00 0. -1.
         23    2    1    2    0    0 -0.29613312018E+02 -0.13010893124E+03 -0.34157621132E+03  0.37886007378E+03  0.95159682275E+02 0.  0.
         23    2    1    2    0    0  0.52716790662E+02  0.14199183118E+03 -0.89947824904E+03  0.91660072086E+03  0.90305154137E+02 0.  0.
        -11    1    4    4    0    0 -0.20175360806E+02  0.14417563893E+02 -0.71283418869E+02  0.75473420076E+02  0.00000000000E+00 0. -1.
         11    1    4    4    0    0  0.72892151468E+02  0.12757426729E+03 -0.82819483017E+03  0.84112730079E+03  0.00000000000E+00 0.  1.
        -13    1    3    3    0    0 -0.52360625706E+02 -0.12838598420E+03 -0.26673935713E+03  0.30062348662E+03  0.00000000000E+00 0. -1.
         13    1    3    3    0    0  0.22747313688E+02 -0.17229470383E+01 -0.74836854185E+02  0.78236587163E+02  0.00000000000E+00 0.  1.
         21    1    1    2  502  501 -0.23103478644E+02 -0.11882899941E+02 -0.53860953182E+02  0.59799467507E+02  0.00000000000E+00 0.  1.
<scales pt_clust_5="13000.00000" pt_clust_6="13000.00000" pt_clust_7="13000.00000" pt_clust_8="13000.00000" pt_clust_9="25.98026"></scales>
<clustering>
<clus scale="   25.980">  1  9  2 -1</clus>
<clus scale="   90.305">  5  6 -1 -1</clus>
<clus scale="   95.160">  7  8 -1 -1</clus>
<clus scale="  171.272">  2  5  1 -1</clus>
<clus scale="  171.272">  2  5  1 -1</clus>
</clustering>
</event>
<event>
 9    1  0.1713970E-005  0.1124669E+03  0.7546771E-02  0.1256860E+00
          1   -1    0    0  502    0  0.00000000000E+00  0.00000000000E+00  0.22717524436E+03  0.22717524436E+03  0.00000000000E+00 0. -1.
         -1   -1    0    0    0  501 -0.00000000000E+00 -0.00000000000E+00 -0.22950594565E+03  0.22950594565E+03  0.00000000000E+00 0.  1.
         23    2    1    2    0    0 -0.15317383798E+02  0.72002568185E+02  0.85065190361E+02  0.14519621469E+03  0.91797941573E+02 0.  0.
         23    2    1    2    0    0  0.52283047194E+02 -0.39271996186E+02  0.80106395130E+02  0.13685746692E+03  0.89650013961E+02 0.  0.
        -11    1    3    3    0    0 -0.21296495614E+02 -0.25312786305E+01 -0.10480385560E+02  0.23870202732E+02  0.00000000000E+00 0.  1.
         11    1    3    3    0    0  0.59791118164E+01  0.74533846816E+02  0.95545575921E+02  0.12132601196E+03  0.00000000000E+00 0. -1.
        -13    1    4    4    0    0  0.76690615752E+02 -0.22027832284E+02  0.48574952334E+02  0.93414142044E+02  0.00000000000E+00 0.  1.
         13    1    4    4    0    0 -0.24407568559E+02 -0.17244163901E+02  0.31531442795E+02  0.43443324877E+02  0.00000000000E+00 0. -1.
         21    1    1    2  502  501 -0.36965663396E+02 -0.32730572000E+02 -0.16750228678E+03  0.17462750840E+03  0.00000000000E+00 0.  1.
<scales pt_clust_5="13000.00000" pt_clust_6="13000.00000" pt_clust_7="13000.00000" pt_clust_8="13000.00000" pt_clust_9="49.37358"></scales>
<clustering>
<clus scale="   49.374">  2  9  1 -1</clus>
<clus scale="   89.650">  7  8 -1 -1</clus>
<clus scale="   91.798">  5  6 -1 -1</clus>
<clus scale="  110.721">  1  7  2 -1</clus>
<clus scale="  110.721">  1  5  2 -1</clus>
</clustering>
</event>
<event>
 9    1  0.1713970E-005  0.1036171E+03  0.7546771E-02  0.1272918E+00
          2   -1    0    0  502    0  0.00000000000E+00  0.00000000000E+00  0.50443487739E+02  0.50443487739E+02  0.00000000000E+00 0. -1.
         -2   -1    0    0    0  501 -0.00000000000E+00 -0.00000000000E+00 -0.26772917782E+03  0.26772917782E+03  0.00000000000E+00 0.  1.
         23    2    1    2    0    0  0.41075775507E+02  0.35635568783E+02 -0.12224658422E+03  0.16125348078E+03  0.90007469772E+02 0.  0.
         23    2    1    2    0    0 -0.47786427684E+02 -0.16290417448E+02 -0.71026892930E+02  0.12536202865E+03  0.90121575316E+02 0.  0.
        -11    1    3    3    0    0  0.55066263350E+02  0.54272883093E+02 -0.71058522612E+02  0.10501025109E+03  0.00000000000E+00 0.  1.
         11    1    3    3    0    0 -0.13990487843E+02 -0.18637314309E+02 -0.51188061609E+02  0.56243229690E+02  0.00000000000E+00 0. -1.
        -13    1    4    4    0    0 -0.55705871776E+02  0.87167816648E+01 -0.78139555192E+01  0.56922617067E+02  0.00000000000E+00 0. -1.
         13    1    4    4    0    0  0.79194440916E+01 -0.25007199113E+02 -0.63212937411E+02  0.68439411586E+02  0.00000000000E+00 0.  1.
         21    1    1    2  502  501  0.67106521771E+01 -0.19345151335E+02 -0.24012212935E+02  0.31557156128E+02  0.00000000000E+00 0. -1.
<scales pt_clust_5="13000.00000" pt_clust_6="13000.00000" pt_clust_7="13000.00000" pt_clust_8="13000.00000" pt_clust_9="20.47603"></scales>
<clustering>
<clus scale="   20.476">  2  9  1 -1</clus>
<clus scale="   90.007">  5  6 -1 -1</clus>
<clus scale="   90.122">  7  8 -1 -1</clus>
<clus scale="  103.518">  2  5  1 -1</clus>
<clus scale="  103.617">  1  5  2 -1</clus>
</clustering>
</event>
<event>
 9    1  0.1713970E-005  0.1603320E+03  0.7546771E-02  0.1188323E+00
         -3   -1    0    0    0  501 -0.00000000000E+00  0.00000000000E+00  0.12607020954E+03  0.12607020954E+03  0.00000000000E+00 0.  1.
          3   -1    0    0  502    0  0.00000000000E+00 -0.00000000000E+00 -0.26150488216E+03  0.26150488216E+03  0.00000000000E+00 0. -1.
         23    2    1    2    0    0 -0.14797150038E+03  0.93820770400E+01 -0.52829321197E+02  0.18227435226E+03  0.91920694178E+02 0.  0.
         23    2    1    2    0    0  0.11903540612E+03 -0.16300892277E+02 -0.88074513076E+02  0.17505046203E+03  0.91926043108E+02 0.  0.
        -13    1    3    3    0    0 -0.47981391592E+02 -0.40212702742E+02 -0.14488907619E+02  0.64258881447E+02  0.00000000000E+00 0.  1.
         13    1    3    3    0    0 -0.99990108786E+02  0.49594779782E+02 -0.38340413578E+02  0.11801547081E+03  0.00000000000E+00 0. -1.
        -13    1    4    4    0    0  0.23671690717E+02  0.34685308636E+02 -0.34610217771E+02  0.54417706224E+02  0.00000000000E+00 0. -1.
         13    1    4    4    0    0  0.95363715406E+02 -0.50986200913E+02 -0.53464295306E+02  0.12063275580E+03  0.00000000000E+00 0.  1.
         21    1    1    2  502  501  0.28936094254E+02  0.69188152373E+01  0.54691616533E+01  0.30250277423E+02  0.00000000000E+00 0.  1.
<scales pt_clust_5="13000.00000" pt_clust_6="13000.00000" pt_clust_7="13000.00000" pt_clust_8="13000.00000" pt_clust_9="29.75177"></scales>
<clustering>
<clus scale="   29.752">  1  9  2 -1</clus>
<clus scale="   91.921">  5  6 -1 -1</clus>
<clus scale="   91.926">  7  8 -1 -1</clus>
<clus scale="  160.329">  1  5  2 -1</clus>
<clus scale="  160.332">  2  5  1 -1</clus>
</clustering>
</event>
<event>
 9    1  0.1713970E-005  0.1716536E+03  0.7546771E-02  0.1177063E+00
          4   -1    0    0  502    0  0.00000000000E+00  0.00000000000E+00  0.45051898476E+03  0.45051898476E+03  0.00000000000E+00 0. -1.
         -4   -1    0    0    0  501 -0.00000000000E+00 -0.00000000000E+00 -0.92446093042E+02  0.92446093042E+02  0.00000000000E+00 0.  1.
         23    2    1    2    0    0  0.30787116522E+02  0.12398654004E+03  0.82854041487E+02  0.17751773604E+03  0.91253743836E+02 0.  0.
         23    2    1    2    0    0 -0.24157422603E+02 -0.14646135119E+03  0.28826334528E+03  0.33862889981E+03  0.97669171682E+02 0.  0.
        -11    1    3    3    0    0 -0.55558155577E+01  0.43344652969E+02  0.77415679420E+02  0.88897769644E+02  0.00000000000E+00 0.  1.
         11    1    3    3    0    0  0.36342932080E+02  0.80641887074E+02  0.54383620673E+01  0.88619966401E+02  0.00000000000E+00 0. -1.
        -13    1    4    4    0    0 -0.52848120239E+02 -0.11454124845E+03  0.25440541376E+03  0.28396256084E+03  0.00000000000E+00 0. -1.
         13    1    4    4    0    0  0.28690697636E+02 -0.31920102742E+02  0.33857931525E+02  0.54666338976E+02  0.00000000000E+00 0.  1.
         21    1    1    2  502  501 -0.66296939188E+01  0.22474811145E+02 -0.13044495047E+02  0.26818441948E+02  0.00000000000E+00 0.  1.
<scales pt_clust_5="13000.00000" pt_clust_6="13000.00000" pt_clust_7="13000.00000" pt_clust_8="13000.00000" pt_clust_9="23.43224"></scales>
<clustering>
<clus scale="   23.432">  2  9  1 -1</clus>
<clus scale="   91.254">  5  6 -1 -1</clus>
<clus scale="   97.669">  7  8 -1 -1</clus>
<clus scale="  168.086">  2  5  1 -1</clus>
<clus scale="  171.654">  1  5  2 -1</clus>
</clustering>
</event>
<event>
 9    1  0.1713970E-005  0.9362421E+02  0.7546771E-02  0.1294815E+00
          1   -1    0    0  502    0  0.00000000000E+00  0.00000000000E+00  0.84894995100E+02  0.84894995100E+02  0.00000000000E+00 0. -1.
         -1   -1    0    0    0  501 -0.00000000000E+00 -0.00000000000E+00 -0.25096784981E+03  0.25096784981E+03  0.00000000000E+00 0.  1.
         23    2    1    2    0    0  0.62068170789E+01 -0.15314067988E+02 -0.13763288395E+03  0.16662478943E+03  0.92455202410E+02 0.  0.
         23    2    1    2    0    0  0.15416170634E+02  0.76804226419E+01  0.36735092202E+02  0.10014670312E+03  0.91560078292E+02 0.  0.
        -13    1    4    4    0    0 -0.36689866893E+02 -0.80032301978E+01  0.72133714401E+01  0.38239125955E+02  0.00000000000E+00 0.  1.
         13    1    4    4    0    0  0.52106037527E+02  0.15683652840E+02  0.29521720762E+02  0.61907577161E+02  0.00000000000E+00 0. -1.
        -13    1    3    3    0    0 -0.34412406174E+02  0.26527953541E+01 -0.17817977109E+02  0.38842390891E+02  0.00000000000E+00 0.  1.
         13    1    3    3    0    0  0.40619223253E+02 -0.17966863342E+02 -0.11981490684E+03  0.12778239854E+03  0.00000000000E+00 0. -1.
         21    1    1    2  502  501 -0.21622987713E+02  0.76336453459E+01 -0.65175062962E+02  0.69091352360E+02  0.00000000000E+00 0.  1.
<scales pt_clust_5="13000.00000" pt_clust_6="13000.00000" pt_clust_7="13000.00000" pt_clust_8="13000.00000" pt_clust_9="22.93090"></scales>
<clustering>
<clus scale="   22.931">  2  9  1 -1</clus>
<clus scale="   91.560">  5  6 -1 -1</clus>
<clus scale="   92.455">  7  8 -1 -1</clus>
<clus scale="   92.740">  1  5  2 -1</clus>
<clus scale="   92.740">  1  5  2 -1</clus>
</clustering>
</event>
<event>
 9    1  0.1713970E-005  0.9190276E+02  0.7546771E-02  0.1298473E+00
         -2   -1    0    0    0  501 -0.00000000000E+00  0.00000000000E+00  0.15063308617E+03  0.15063308617E+03  0.00000000000E+00 0.  1.
          2   -1    0    0  502    0  0.00000000000E+00 -0.00000000000E+00 -0.19574800128E+03  0.19574800128E+03  0.00000000000E+00 0. -1.
         23    2    1    2    0    0  0.20483242386E+02  0.46266530196E+01  0.10052272117E+03  0.13594537532E+03  0.89080629006E+02 0.  0.
         23    2    1    2    0    0 -0.40840136445E+02  0.26371603917E+02 -0.14024156192E+03  0.17296021764E+03  0.88792809165E+02 0.  0.
        -11    1    4    4    0    0  0.14083724657E+02  0.15760940414E+02  0.88108494800E+00  0.21155019585E+02  0.00000000000E+00 0.  1.
         11    1    4    4    0    0 -0.54923861102E+02  0.10610663502E+02 -0.14112264687E+03  0.15180519806E+03  0.00000000000E+00 0. -1.
        -13    1    3    3    0    0  0.11775694522E+02 -0.37201896462E+02  0.78985882639E+02  0.88098908836E+02  0.00000000000E+00 0.  1.
         13    1    3    3    0    0  0.87075478639E+01  0.41828549481E+02  0.21536838527E+02  0.47846466487E+02  0.00000000000E+00 0. -1.
         21    1    1    2  502  501  0.20356894059E+02 -0.30998256936E+02 -0.53960743564E+01  0.37475494490E+02  0.00000000000E+00 0.  1.
<scales pt_clust_5="13000.00000" pt_clust_6="13000.00000" pt_clust_7="13000.00000" pt_clust_8="13000.00000" pt_clust_9="37.08497"></scales>
<clustering>
<clus scale="   37.085">  2  9  1 -1</clus>
<clus scale="   88.793">  5  6 -1 -1</clus>
<clus scale="   89.081">  7  8 -1 -1</clus>
<clus scale="   91.624">  2  5  1 -1</clus>
<clus scale="   37.085">  2  5  1 -1</clus>
</clustering>
</event>
<event>
 9    1  0.1713970E-005  0.9414182E+02  0.7546771E-02  0.1294165E+00
          1   -1    0    0  502    0  0.00000000000E+00  0.00000000000E+00  0.87542964232E+03  0.87542964232E+03  0.00000000000E+00 0. -1.
         -1   -1    0    0    0  501 -0.00000000000E+00 -0.00000000000E+00 -0.18232315067E+02  0.18232315067E+02  0.00000000000E+00 0.  1.
         23    2    1    2    0    0  0.21026574415E+02 -0.14261849768E+02  0.28696374119E+03  0.30183821045E+03  0.90069969128E+02 0.  0.
         23    2    1    2    0    0  0.35007663681E+01  0.22561488979E+02  0.55221071135E+03  0.56027539564E+03  0.91926998635E+02 0.  0.
        -11    1    3    3    0    0  0.56159747228E+02 -0.41119816952E+01  0.19159021760E+03  0.19969385840E+03  0.00000000000E+00 0.  1.
         11    1    3    3    0    0 -0.35133172812E+02 -0.10149868073E+02  0.95373523585E+02  0.10214435205E+03  0.00000000000E+00 0. -1.
        -13    1    4    4    0    0 -0.26288789835E+02 -0.26492245010E+02  0.22096101029E+03  0.22409084673E+03  0.00000000000E+00 0.  1.
         13    1    4    4    0    0  0.29789556203E+02  0.49053733989E+02  0.33124970106E+03  0.33618454891E+03  0.00000000000E+00 0. -1.
         21    1    1    2  502  501 -0.24527340784E+02 -0.82996392107E+01  0.18022874718E+02  0.31548351305E+02  0.00000000000E+00 0. -1.
<scales pt_clust_5="13000.00000" pt_clust_6="13000.00000" pt_clust_7="13000.00000" pt_clust_8="13000.00000" pt_clust_9="25.89352"></scales>
<clustering>
<clus scale="   25.894">  2  9  1 -1</clus>
<clus scale="   90.070">  5  6 -1 -1</clus>
<clus scale="   91.927">  7  8 -1 -1</clus>
<clus scale="   92.329">  2  5  1 -1</clus>
<clus scale="   94.142">  1  5  2 -1</clus>
</clustering>
</event>
<event>
 9    1  0.1713970E-005  0.1869824E+03  0.7546771E-02  0.1162075E+00
         -1   -1    0    0    0  501 -0.00000000000E+00  0.00000000000E+00  0.56938717103E+02  0.56938717103E+02  0.00000000000E+00 0.  1.
          1   -1    0    0  502    0  0.00000000000E+00 -0.00000000000E+00 -0.70779970324E+03  0.70779970324E+03  0.00000000000E+00 0. -1.
         23    2    1    2    0    0  0.44281044005E+02 -0.13812869322E+03 -0.21437118021E+03  0.27442403075E+03  0.91176745939E+02 0.  0.
         23    2    1    2    0    0 -0.49277855831E+02  0.16195074668E+03 -0.40987547777E+03  0.45424805040E+03  0.98422723977E+02 0.  0.
        -13    1    4    4    0    0 -0.29573746194E+02  0.12006569560E+03 -0.37886126112E+03  0.39853009033E+03  0.00000000000E+00 0. -1.
         13    1    4    4    0    0 -0.19704109637E+02  0.41885051076E+02 -0.31014216653E+02  0.55717960074E+02  0.00000000000E+00 0.  1.
        -13    1    3    3    0    0 -0.23223918737E+02 -0.67022076444E+02 -0.11282143465E+03  0.13326659464E+03  0.00000000000E+00 0. -1.
         13    1    3    3    0    0  0.67504962742E+02 -0.71106616779E+02 -0.10154974556E+03  0.14115743610E+03  0.00000000000E+00 0.  1.
         21    1    1    2  502  501  0.49968118257E+01 -0.23822053454E+02 -0.26614328167E+02  0.36066339195E+02  0.00000000000E+00 0. -1.
<scales pt_clust_5="13000.00000" pt_clust_6="13000.00000" pt_clust_7="13000.00000" pt_clust_8="13000.00000" pt_clust_9="24.34047"></scales>
<clustering>
<clus scale="   24.340">  1  9  2 -1</clus>
<clus scale="   91.177">  7  8 -1 -1</clus>
<clus scale="   98.423">  5  6 -1 -1</clus>
<clus scale="  183.272">  1  7  2 -1</clus>
<clus scale="  186.982">  2  5  1 -1</clus>
</clustering>
</event>
<event>
 9    1  0.1713970E-005  0.1228487E+03  0.7546771E-02  0.1238479E+00
          2   -1    0    0  502    0  0.00000000000E+00  0.00000000000E+00  0.17977238022E+03  0.17977238022E+03  0.00000000000E+00 0. -1.
         -2   -1    0    0    0  501 -0.00000000000E+00 -0.00000000000E+00 -0.36296622410E+03  0.36296622410E+03  0.00000000000E+00 0.  1.
         23    2    1    2    0    0 -0.40963224826E+01  0.36747530307E+02 -0.21863488871E+03  0.23988915239E+03  0.91533764455E+02 0.  0.
         23    2    1    2    0    0  0.70072980303E+02 -0.53425403303E+02  0.13296811738E+03  0.18392678502E+03  0.91564434797E+02 0.  0.
        -11    1    3    3    0    0 -0.38254127737E+02  0.24657848767E+02 -0.18477188144E+03  0.19029460309E+03  0.00000000000E+00 0.  1.
         11    1    3    3    0    0  0.34157805254E+02  0.12089681540E+02 -0.33863007268E+02  0.49594549305E+02  0.00000000000E+00 0. -1.
        -13    1    4    4    0    0  0.19816841403E+02 -0.16726530981E+02  0.11678241586E+03  0.11962698983E+03  0.00000000000E+00 0. -1.
         13    1    4    4    0    0  0.50256138900E+02 -0.36698872322E+02  0.16185701518E+02  0.64299795182E+02  0.00000000000E+00 0.  1.
         21    1    1    2  502  501 -0.65976657821E+02  0.16677872997E+02 -0.97527072551E+02  0.11892266691E+03  0.00000000000E+00 0.  1.
<scales pt_clust_5="13000.00000" pt_clust_6="13000.00000" pt_clust_7="13000.00000" pt_clust_8="13000.00000" pt_clust_9="68.05197"></scales>
<clustering>
<clus scale="   68.052">  2  9  1 -1</clus>
<clus scale="   91.534">  5  6 -1 -1</clus>
<clus scale="   91.564">  7  8 -1 -1</clus>
<clus scale="  122.826">  2  5  1 -1</clus>
<clus scale="  122.849">  1  5  2 -1</clus>
</clustering>
</event>
<event>
 9    1  0.1713970E-005  0.1503785E+03  0.7546771E-02  0.1200527E+00
         -4   -1    0    0    0  501 -0.00000000000E+00  0.00000000000E+00  0.23070264576E+03  0.23070264576E+03  0.00000000000E+00 0.  1.
          4   -1    0    0  502    0  0.00000000000E+00 -0.00000000000E+00 -0.19542057913E+03  0.19542057913E+03  0.00000000000E+00 0. -1.
         23    2    1    2    0    0 -0.48269851055E+02 -0.10501410483E+03  0.12764709842E+03  0.19601894517E+03  0.93657377684E+02 0.  0.
         23    2    1    2    0    0  0.84894099928E+02  0.84207020064E+02 -0.10817247180E+03  0.18511377471E+03  0.90928518623E+02 0.  0.
        -11    1    3    3    0    0 -0.65176899231E+02 -0.93783836339E+02  0.13272326659E+03  0.17509683505E+03  0.00000000000E+00 0.  1.
         11    1    3    3    0    0  0.16907048176E+02 -0.11230268488E+02 -0.50761681652E+01  0.20922110113E+02  0.00000000000E+00 0. -1.
        -13    1    4    4    0    0  0.14549629262E+02  0.37599357068E+02  0.84225168519E+01  0.41186674468E+02  0.00000000000E+00 0.  1.
         13    1    4    4    0    0  0.70344470666E+02  0.46607662996E+02 -0.11659498866E+03  0.14392710024E+03  0.00000000000E+00 0. -1.
         21    1    1    2  502  501 -0.36624248873E+02  0.20807084763E+02  0.15807440009E+02  0.44990505015E+02  0.00000000000E+00 0.  1.
<scales pt_clust_5="13000.00000" pt_clust_6="13000.00000" pt_clust_7="13000.00000" pt_clust_8="13000.00000" pt_clust_9="42.12209"></scales>
<clustering>
<clus scale="   42.122">  1  9  2 -1</clus>
<clus scale="   90.929">  7  8 -1 -1</clus>
<clus scale="   93.657">  5  6 -1 -1</clus>
<clus scale="  148.694">  2  7  1 -1</clus>
<clus scale="  148.694">  2  5  1 -1</clus>
</clustering>
</event>
<event>
 9    1  0.1713970E-005  0.1548536E+03  0.7546771E-02  0.1194899E+00
          2   -1    0    0  502    0  0.00000000000E+00  0.00000000000E+00  0.28344454469E+03  0.28344454469E+03  0.00000000000E+00 0. -1.
         -2   -1    0    0    0  501 -0.00000000000E+00 -0.00000000000E+00 -0.14191594251E+03  0.14191594251E+03  0.00000000000E+00 0.  1.
         23    2    1    2    0    0  0.12803098299E+02  0.15971869440E+03  0.97923261548E+02  0.20945751947E+03  0.92787427184E+02 0.  0.
         23    2    1    2    0    0 -0.40351165176E+02 -0.86364848662E+02  0.38034582758E+02  0.13734906257E+03  0.91274486512E+02 0.  0.
        -13    1    4    4    0    0 -0.15844723318E+02 -0.93873947013E+02  0.51666830275E+02  0.10831820962E+03  0.00000000000E+00 0. -1.
         13    1    4    4    0    0 -0.24506441858E+02  0.75090983511E+01 -0.13632247518E+02  0.29030852950E+02  0.00000000000E+00 0.  1.
        -13    1    3    3    0    0 -0.25158308704E+02  0.99479391443E+02  0.21187395915E+02  0.10477593027E+03  0.00000000000E+00 0.  1.
         13    1    3    3    0    0  0.37961407004E+02  0.60239302955E+02  0.76735865633E+02  0.10468158920E+03  0.00000000000E+00 0. -1.
         21    1    1    2  502  501  0.27548066877E+02 -0.73353845737E+02  0.55707578698E+01  0.78553905162E+02  0.00000000000E+00 0. -1.
<scales pt_clust_5="13000.00000" pt_clust_6="13000.00000" pt_clust_7="13000.00000" pt_clust_8="13000.00000" pt_clust_9="78.35613"></scales>
<clustering>
<clus scale="   78.356">  2  9  1 -1</clus>
<clus scale="   91.274">  5  6 -1 -1</clus>
<clus scale="   92.787">  7  8 -1 -1</clus>
<clus scale="  153.952">  1  5  2 -1</clus>
<clus scale="  153.952">  1  5  2 -1</clus>
</clustering>
</event>
<event>
 9    1  0.1713970E-005  0.1572683E+03  0.7546771E-02  0.1192925E+00
          1   -1    0    0  502    0  0.00000000000E+00  0.00000000000E+00  0.46965152233E+03  0.46965152233E+03  0.00000000000E+00 0. -1.
         -1   -1    0    0    0  501 -0.00000000000E+00 -0.00000000000E+00 -0.12825060527E+03  0.12825060527E+03  0.00000000000E+00 0.  1.
         23    2    1    2    0    0  0.59163671398E+02  0.43918502931E+02 -0.56798358250E+02  0.12702654909E+03  0.86489974911E+02 0.  0.
         23    2    1    2    0    0 -0.10636177888E+03 -0.86818541308E+02  0.36040496867E+03  0.39673730057E+03  0.93050830732E+02 0.  0.
        -11    1    3    3    0    0  0.31123539272E+02  0.43870405284E+02  0.98828000247E+01  0.54689641551E+02  0.00000000000E+00 0. -1.
         11    1    3    3    0    0  0.28040132126E+02  0.48097646884E-01 -0.66681158275E+02  0.72336907536E+02  0.00000000000E+00 0.  1.
        -13    1    4    4    0    0 -0.41402964299E+02 -0.43530729132E+02  0.27307344665E+03  0.27960371438E+03  0.00000000000E+00 0.  1.
         13    1    4    4    0    0 -0.64958814580E+02 -0.43287812176E+02  0.87331522021E+02  0.11713358619E+03  0.00000000000E+00 0. -1.
         21    1    1    2  502  501  0.47198107481E+02  0.42900038377E+02  0.37794306642E+02  0.74138277948E+02  0.00000000000E+00 0.  1.
<scales pt_clust_5="13000.00000" pt_clust_6="13000.00000" pt_clust_7="13000.00000" pt_clust_8="13000.00000" pt_clust_9="63.78146"></scales>
<clustering>
<clus scale="   63.781">  2  9  1 -1</clus>
<clus scale="   86.490">  5  6 -1 -1</clus>
<clus scale="   93.051">  7  8 -1 -1</clus>
<clus scale="  153.478">  2  5  1 -1</clus>
<clus scale="  157.268">  1  5  2 -1</clus>
</clustering>
</event>
<event>
 9    1  0.1713970E-005  0.1488463E+03  0.7546771E-02  0.1202165E+00
         -2   -1    0    0    0  501 -0.00000000000E+00  0.00000000000E+00  0.80363270619E+02  0.80363270619E+02  0.00000000000E+00 0.  1.
          2   -1    0    0  502    0  0.00000000000E+00 -0.00000000000E+00 -0.87448437994E+03  0.87448437994E+03  0.00000000000E+00 0. -1.
         23    2    1    2    0    0 -0.13175760838E+03 -0.35233943233E+02 -0.45956880726E+02  0.17057555531E+03  0.91555923139E+02 0.  0.
         23    2    1    2    0    0  0.79213766948E+02 -0.27619234949E+02 -0.24210790062E+03  0.27162759429E+03  0.90153599067E+02 0.  0.
        -11    1    4    4    0    0  0.69799318749E+02 -0.57832080917E+02 -0.16460696601E+03  0.18791473529E+03  0.00000000000E+00 0. -1.
         11    1    4    4    0    0  0.94144481990E+01  0.30212845968E+02 -0.77500934614E+02  0.83712859003E+02  0.00000000000E+00 0.  1.
        -13    1    3    3    0    0 -0.32194554544E+02 -0.26725953341E+02 -0.56266655204E+02  0.70119201451E+02  0.00000000000E+00 0. -1.
         13    1    3    3    0    0 -0.99563053834E+02 -0.85079898920E+01  0.10309774478E+02  0.10045635386E+03  0.00000000000E+00 0.  1.
         21    1    1    2  502  501  0.52543841430E+02  0.62853178182E+02 -0.50605632798E+03  0.51264450096E+03  0.00000000000E+00 0. -1.
<scales pt_clust_5="13000.00000" pt_clust_6="13000.00000" pt_clust_7="13000.00000" pt_clust_8="13000.00000" pt_clust_9="81.92300"></scales>
<clustering>
<clus scale="   81.923">  2  9  1 -1</clus>
<clus scale="   90.154">  5  6 -1 -1</clus>
<clus scale="   91.556">  7  8 -1 -1</clus>
<clus scale="  147.988">  2  5  1 -1</clus>
<clus scale="   81.923">  2  5  1 -1</clus>
</clustering>
</event>
<event>
 9    1  0.1938462E-005  0.9356303E+02  0.7546771E-02  0.1296153E+00
          1   -1    0    0  502    0  0.00000000000E+00  0.00000000000E+00  0.30650919672E+03  0.30650919672E+03  0.00000000000E+00 0. -1.
         -1   -1    0    0    0  501 -0.00000000000E+00 -0.00000000000E+00 -0.83549806452E+02  0.83549806452E+02  0.00000000000E+00 0.  1.
         23    2    1    2    0    0 -0.36460534177E+01  0.84528259038E+01 -0.31500227494E+02  0.95599889471E+02  0.89790481474E+02 0.  0.
         23    2    1    2    0    0  0.38408766482E+02 -0.18664168136E+02  0.22730372777E+03  0.24918042013E+03  0.92737870397E+02 0.  0.
        -11    1    3    3    0    0 -0.29227072408E+02  0.39981772692E+02 -0.14709370638E+02  0.51663618667E+02  0.00000000000E+00 0.  1.
         11    1    3    3    0    0  0.25581018990E+02 -0.31528946789E+02 -0.16790856856E+02  0.43936270804E+02  0.00000000000E+00 0. -1.
        -13    1    4    4    0    0 -0.70125650306E+01  0.22400186139E+02  0.14153185826E+02  0.27409069236E+02  0.00000000000E+00 0.  1.
         13    1    4    4    0    0  0.45421331513E+02 -0.41064354275E+02  0.21315054194E+03  0.22177135090E+03  0.00000000000E+00 0. -1.
         21    1    1    2  502  501 -0.34762713064E+02  0.10211342232E+02  0.27155889993E+02  0.45278693566E+02  0.00000000000E+00 0.  1.
<scales pt_clust_5="13000.00000" pt_clust_6="13000.00000" pt_clust_7="13000.00000" pt_clust_8="13000.00000" pt_clust_9="36.23145"></scales>
<clustering>
<clus scale="   36.231">  1  9  2 -1</clus>
<clus scale="   89.790">  5  6 -1 -1</clus>
<clus scale="   90.642">  2  5  1 -1</clus>
<clus scale="   92.738">  7  8 -1 -1</clus>
<clus scale="   36.231">  1  5  2 -1</clus>
</clustering>
</event>
<event>
 9    1  0.1713970E-005  0.1268358E+03  0.7546771E-02  0.1233276E+00
         -1   -1    0    0    0  501 -0.00000000000E+00  0.00000000000E+00  0.19491788864E+03  0.19491788864E+03  0.00000000000E+00 0.  1.
          1   -1    0    0  502    0  0.00000000000E+00 -0.00000000000E+00 -0.19506864141E+03  0.19506864141E+03  0.00000000000E+00 0. -1.
         23    2    1    2    0    0  0.91050884128E+02 -0.33361589397E+02  0.96066013715E+02  0.16436679589E+03  0.91566945188E+02 0.  0.
         23    2    1    2    0    0 -0.81048085653E+02  0.10071569864E+02 -0.13179085801E+03  0.18193910945E+03  0.95198637506E+02 0.  0.
        -13    1    3    3    0    0  0.94070372558E+02 -0.18137226362E+01  0.93380646756E+02  0.13256119255E+03  0.00000000000E+00 0.  1.
         13    1    3    3    0    0 -0.30194884294E+01 -0.31547866761E+02  0.26853669595E+01  0.31805603331E+02  0.00000000000E+00 0. -1.
        -13    1    4    4    0    0 -0.18944063749E+02  0.36763355006E+02 -0.97994662089E+02  0.10636435315E+03  0.00000000000E+00 0. -1.
         13    1    4    4    0    0 -0.62104021904E+02 -0.26691785142E+02 -0.33796195924E+02  0.75574756299E+02  0.00000000000E+00 0.  1.
         21    1    1    2  502  501 -0.10002798476E+02  0.23290019533E+02  0.35574091535E+02  0.43680624718E+02  0.00000000000E+00 0. -1.
<scales pt_clust_5="13000.00000" pt_clust_6="13000.00000" pt_clust_7="13000.00000" pt_clust_8="13000.00000" pt_clust_9="25.34721"></scales>
<clustering>
<clus scale="   25.347">  1  9  2 -1</clus>
<clus scale="   91.567">  5  6 -1 -1</clus>
<clus scale="   95.199">  7  8 -1 -1</clus>
<clus scale="  124.133">  1  5  2 -1</clus>
<clus scale="  126.836">  2  5  1 -1</clus>
</clustering>
</event>
<event>
 9    1  0.1713970E-005  0.2129524E+03  0.7546771E-02  0.1139310E+00
          1   -1    0    0  502    0  0.00000000000E+00  0.00000000000E+00  0.75313749737E+03  0.75313749737E+03  0.00000000000E+00 0. -1.
         -1   -1    0    0    0  501 -0.00000000000E+00 -0.00000000000E+00 -0.89737790243E+02  0.89737790243E+02  0.00000000000E+00 0.  1.
         23    2    1    2    0    0  0.18796065812E+03 -0.91989410943E+02  0.14422186283E+03  0.26989990205E+03  0.90855658505E+02 0.  0.
         23    2    1    2    0    0 -0.16885018263E+03  0.79647241553E+02  0.50508085327E+03  0.54621226589E+03  0.91581132403E+02 0.  0.
        -11    1    4    4    0    0 -0.13891173408E+03  0.92921316131E+02  0.35189793692E+03  0.38956770768E+03  0.00000000000E+00 0. -1.
         11    1    4    4    0    0 -0.29938448549E+02 -0.13274074578E+02  0.15318291634E+03  0.15664455821E+03  0.00000000000E+00 0.  1.
        -13    1    3    3    0    0  0.71168586594E+02 -0.21074456272E+02  0.43264804235E+01  0.74349303008E+02  0.00000000000E+00 0.  1.
         13    1    3    3    0    0  0.11679207152E+03 -0.70914954671E+02  0.13989538240E+03  0.19555059904E+03  0.00000000000E+00 0. -1.
         21    1    1    2  502  501 -0.19110475485E+02  0.12342169390E+02  0.14096991035E+02  0.26763119676E+02  0.00000000000E+00 0. -1.
<scales pt_clust_5="13000.00000" pt_clust_6="13000.00000" pt_clust_7="13000.00000" pt_clust_8="13000.00000" pt_clust_9="22.74949"></scales>
<clustering>
<clus scale="   22.749">  2  9  1 -1</clus>
<clus scale="   90.856">  7  8 -1 -1</clus>
<clus scale="   91.581">  5  6 -1 -1</clus>
<clus scale="  212.641">  2  7  1 -1</clus>
<clus scale="  212.952">  1  5  2 -1</clus>
</clustering>
</event>
<event>
 9    1  0.1713970E-005  0.1515209E+03  0.7546771E-02  0.1198966E+00
         -2   -1    0    0    0  501 -0.00000000000E+00  0.00000000000E+00  0.33683480506E+03  0.33683480506E+03  0.00000000000E+00 0.  1.
          2   -1    0    0  502    0  0.00000000000E+00 -0.00000000000E+00 -0.47560512348E+03  0.47560512348E+03  0.00000000000E+00 0. -1.
         23    2    1    2    0    0 -0.93925132935E+00  0.92653434839E+02 -0.12337008971E+03  0.17806620472E+03  0.88892367766E+02 0.  0.
         23    2    1    2    0    0  0.68586709715E+02 -0.13949971512E+03 -0.29407624383E+03  0.34380346724E+03  0.86923412436E+02 0.  0.
        -13    1    4    4    0    0 -0.19037851882E+02 -0.99654670130E+01 -0.41443954113E+02  0.46683526748E+02  0.00000000000E+00 0.  1.
         13    1    4    4    0    0  0.87624561597E+02 -0.12953424811E+03 -0.25263228972E+03  0.29711994049E+03  0.00000000000E+00 0. -1.
        -13    1    3    3    0    0  0.31612974993E+02  0.76567557134E+02 -0.51489491031E+02  0.97535320166E+02  0.00000000000E+00 0.  1.
         13    1    3    3    0    0 -0.32552226322E+02  0.16085877705E+02 -0.71880598683E+02  0.80530884554E+02  0.00000000000E+00 0. -1.
         21    1    1    2  502  501 -0.67647458386E+02  0.46846280281E+02  0.27867601512E+03  0.29057025658E+03  0.00000000000E+00 0.  1.
<scales pt_clust_5="13000.00000" pt_clust_6="13000.00000" pt_clust_7="13000.00000" pt_clust_8="13000.00000" pt_clust_9="82.28458"></scales>
<clustering>
<clus scale="   82.285">  1  9  2 -1</clus>
<clus scale="   86.923">  5  6 -1 -1</clus>
<clus scale="   88.892">  7  8 -1 -1</clus>
<clus scale="  150.374">  2  5  1 -1</clus>
<clus scale="  150.374">  2  5  1 -1</clus>
</clustering>
</event>
<event>
 9    1  0.1713970E-005  0.9549434E+02  0.7546771E-02  0.1291027E+00
         -2   -1    0    0    0  501 -0.00000000000E+00  0.00000000000E+00  0.39988374926E+03  0.39988374926E+03  0.00000000000E+00 0.  1.
          2   -1    0    0  502    0  0.00000000000E+00 -0.00000000000E+00 -0.45437451269E+02  0.45437451269E+02  0.00000000000E+00 0. -1.
         23    2    1    2    0    0  0.11981405414E+02 -0.43986976935E+02  0.91807383800E+02  0.13692091206E+03  0.90776275665E+02 0.  0.
         23    2    1    2    0    0 -0.12575425861E+02 -0.28890439534E+01  0.90801612172E+02  0.13028298847E+03  0.92532353263E+02 0.  0.
        -11    1    3    3    0    0 -0.14491674843E+02 -0.62707311197E+02  0.79390868190E+02  0.10220139661E+03  0.00000000000E+00 0.  1.
         11    1    3    3    0    0  0.26473080257E+02  0.18720334261E+02  0.12416515610E+02  0.34719515449E+02  0.00000000000E+00 0. -1.
        -13    1    4    4    0    0  0.56000238615E+01 -0.45960107057E+02  0.39324485406E+02  0.60746249764E+02  0.00000000000E+00 0.  1.
         13    1    4    4    0    0 -0.18175449723E+02  0.43071063103E+02  0.51477126766E+02  0.69536738704E+02  0.00000000000E+00 0. -1.
         21    1    1    2  502  501  0.59402044713E+00  0.46876020889E+02  0.17183730202E+03  0.17811730000E+03  0.00000000000E+00 0. -1.
<scales pt_clust_5="13000.00000" pt_clust_6="13000.00000" pt_clust_7="13000.00000" pt_clust_8="13000.00000" pt_clust_9="46.87978"></scales>
<clustering>
<clus scale="   46.880">  1  9  2 -1</clus>
<clus scale="   90.776">  5  6 -1 -1</clus>
<clus scale="   92.532">  7  8 -1 -1</clus>
<clus scale="   93.794">  1  5  2 -1</clus>
<clus scale="   95.494">  2  5  1 -1</clus>
</clustering>
</event>
<event>
 9    1  0.1713970E-005  0.1258542E+03  0.7546771E-02  0.1235836E+00
          1   -1    0    0  502    0  0.00000000000E+00  0.00000000000E+00  0.78399626392E+03  0.78399626392E+03  0.00000000000E+00 0. -1.
         -1   -1    0    0    0  501 -0.00000000000E+00 -0.00000000000E+00 -0.29808927632E+02  0.29808927632E+02  0.00000000000E+00 0.  1.
         23    2    1    2    0    0  0.75456384719E+02 -0.17688049314E+02  0.32646022129E+03  0.34787517432E+03  0.91838596117E+02 0.  0.
         23    2    1    2    0    0 -0.70244455052E+02  0.38167725339E+02  0.42622631327E+03  0.44474432048E+03  0.98679186032E+02 0.  0.
        -11    1    3    3    0    0  0.85847286168E+02  0.10918368808E+02  0.20217068887E+03  0.21991351654E+03  0.00000000000E+00 0.  1.
         11    1    3    3    0    0 -0.10390901449E+02 -0.28606418123E+02  0.12428953242E+03  0.12796165778E+03  0.00000000000E+00 0. -1.
        -11    1    4    4    0    0  0.18889449729E+02  0.32435140312E+02  0.11658712897E+03  0.12248023628E+03  0.00000000000E+00 0.  1.
         11    1    4    4    0    0 -0.89133904782E+02  0.57325850267E+01  0.30963918430E+03  0.32226408421E+03  0.00000000000E+00 0. -1.
         21    1    1    2  502  501 -0.52119296667E+01 -0.20479676025E+02  0.15008017234E+01  0.21185696749E+02  0.00000000000E+00 0.  1.
<scales pt_clust_5="13000.00000" pt_clust_6="13000.00000" pt_clust_7="13000.00000" pt_clust_8="13000.00000" pt_clust_9="21.13247"></scales>
<clustering>
<clus scale="   21.132">  2  9  1 -1</clus>
<clus scale="   91.839">  5  6 -1 -1</clus>
<clus scale="   98.679">  7  8 -1 -1</clus>
<clus scale="  120.565">  2  5  1 -1</clus>
<clus scale="  125.854">  1  5  2 -1</clus>
</clustering>
</event>
<event>
 9    1  0.1713970E-005  0.1127587E+03  0.7546771E-02  0.1255943E+00
          3   -1    0    0  502    0  0.00000000000E+00  0.00000000000E+00  0.20224867108E+03  0.20224867108E+03  0.00000000000E+00 0. -1.
         -3   -1    0    0    0  501 -0.00000000000E+00 -0.00000000000E+00 -0.14532716191E+03  0.14532716191E+03  0.00000000000E+00 0.  1.
         23    2    1    2    0    0  0.64070813995E+02 -0.20022643188E+02 -0.86946697796E+02  0.14165633455E+03  0.89447266102E+02 0.  0.
         23    2    1    2    0    0 -0.56618365514E+02  0.43271740096E+02  0.13980239162E+03  0.18116893583E+03  0.90550493110E+02 0.  0.
        -11    1    4    4    0    0 -0.37199047032E+02  0.24661544910E+02  0.64070377378E+01  0.45088923584E+02  0.00000000000E+00 0.  1.
         11    1    4    4    0    0 -0.19419318482E+02  0.18610195187E+02  0.13339535388E+03  0.13608001225E+03  0.00000000000E+00 0. -1.
        -13    1    3    3    0    0  0.48706428874E+02 -0.51164502734E+02 -0.79106675940E+02  0.10605653555E+03  0.00000000000E+00 0.  1.
         13    1    3    3    0    0  0.15364385121E+02  0.31141859546E+02 -0.78400218562E+01  0.35599799000E+02  0.00000000000E+00 0. -1.
         21    1    1    2  502  501 -0.74524484809E+01 -0.23249096909E+02  0.40658153429E+01  0.24750562617E+02  0.00000000000E+00 0.  1.
<scales pt_clust_5="13000.00000" pt_clust_6="13000.00000" pt_clust_7="13000.00000" pt_clust_8="13000.00000" pt_clust_9="24.41433"></scales>
<clustering>
<clus scale="   24.414">  1  9  2 -1</clus>
<clus scale="   89.447">  7  8 -1 -1</clus>
<clus scale="   90.550">  5  6 -1 -1</clus>
<clus scale="  111.875">  2  7  1 -1</clus>
<clus scale="   24.414">  1  5  2 -1</clus>
</clustering>
</event>
<event>
 9    1  0.1713970E-005  0.9174693E+02  0.7546771E-02  0.1298871E+00
         -1   -1    0    0    0  501 -0.00000000000E+00  0.00000000000E+00  0.14702311605E+03  0.14702311605E+03  0.00000000000E+00 0.  1.
          1   -1    0    0  502    0  0.00000000000E+00 -0.00000000000E+00 -0.15581259953E+03  0.15581259953E+03  0.00000000000E+00 0. -1.
         23    2    1    2    0    0  0.42313137948E+02 -0.19264133097E+02  0.56038779870E+02  0.11669155519E+03  0.91186982269E+02 0.  0.
         23    2    1    2    0    0  0.15056128829E+01 -0.27626401584E+01 -0.92226270318E+02  0.12996665200E+03  0.91519105346E+02 0.  0.
        -11    1    3    3    0    0  0.32493400828E+02 -0.49114812410E+02  0.61102020073E+02  0.84861904011E+02  0.00000000000E+00 0.  1.
         11    1    3    3    0    0  0.98197371196E+01  0.29850679313E+02 -0.50632402029E+01  0.31829651174E+02  0.00000000000E+00 0. -1.
        -11    1    4    4    0    0  0.14619492464E+02 -0.45016413934E+02 -0.47492164705E+02  0.67050076747E+02  0.00000000000E+00 0.  1.
         11    1    4    4    0    0 -0.13113879581E+02  0.42253773776E+02 -0.44734105614E+02  0.62916575249E+02  0.00000000000E+00 0. -1.
         21    1    1    2  502  501 -0.43818750831E+02  0.22026773255E+02  0.27398006960E+02  0.56177508398E+02  0.00000000000E+00 0. -1.
<scales pt_clust_5="13000.00000" pt_clust_6="13000.00000" pt_clust_7="13000.00000" pt_clust_8="13000.00000" pt_clust_9="49.04347"></scales>
<clustering>
<clus scale="   49.043">  1  9  2 -1</clus>
<clus scale="   91.187">  5  6 -1 -1</clus>
<clus scale="   91.416">  1  5  2 -1</clus>
<clus scale="   91.519">  7  8 -1 -1</clus>
<clus scale="   91.747">  2  5  1 -1</clus>
</clustering>
</event>
<event>
 9    1  0.1713970E-005  0.9771314E+02  0.7546771E-02  0.1285796E+00
          1   -1    0    0  502    0  0.00000000000E+00  0.00000000000E+00  0.83170942032E+02  0.83170942032E+02  0.00000000000E+00 0. -1.
         -1   -1    0    0    0  501 -0.00000000000E+00 -0.00000000000E+00 -0.17219563259E+03  0.17219563259E+03  0.00000000000E+00 0.  1.
         23    2    1    2    0    0 -0.29900913379E+02 -0.26209606947E+02 -0.46183785329E+02  0.10945407730E+03  0.90918891837E+02 0.  0.
         23    2    1    2    0    0  0.29518037234E+02  0.57276526897E+01  0.16687003259E+01  0.96914925638E+02  0.92117304146E+02 0.  0.
        -13    1    4    4    0    0  0.37910936738E+02 -0.37224217927E+02  0.39757074678E+00  0.53132283850E+02  0.00000000000E+00 0. -1.
         13    1    4    4    0    0 -0.83928995037E+01  0.42951870617E+02  0.12711295791E+01  0.43782641788E+02  0.00000000000E+00 0.  1.
        -13    1    3    3    0    0  0.28949976837E+02  0.48418179953E+01 -0.27784242113E+02  0.40416685541E+02  0.00000000000E+00 0. -1.
         13    1    3    3    0    0 -0.58850890216E+02 -0.31051424943E+02 -0.18399543216E+02  0.69037391758E+02  0.00000000000E+00 0.  1.
         21    1    1    2  502  501  0.38287614487E+00  0.20481954257E+02 -0.44509605556E+02  0.48997571685E+02  0.00000000000E+00 0. -1.
<scales pt_clust_5="13000.00000" pt_clust_6="13000.00000" pt_clust_7="13000.00000" pt_clust_8="13000.00000" pt_clust_9="20.48553"></scales>
<clustering>
<clus scale="   20.486">  2  9  1 -1</clus>
<clus scale="   90.919">  7  8 -1 -1</clus>
<clus scale="   92.117">  5  6 -1 -1</clus>
<clus scale="   96.584">  2  7  1 -1</clus>
<clus scale="   97.713">  1  5  2 -1</clus>
</clustering>
</event>
<event>
 9    1  0.1713970E-005  0.1380735E+03  0.7546771E-02  0.1215984E+00
          3   -1    0    0  502    0  0.00000000000E+00  0.00000000000E+00  0.14846469635E+03  0.14846469635E+03  0.00000000000E+00 0. -1.
         -3   -1    0    0    0  501 -0.00000000000E+00 -0.00000000000E+00 -0.30197860771E+03  0.30197860771E+03  0.00000000000E+00 0.  1.
         23    2    1    2    0    0  0.87406333813E+02  0.12469396790E+02 -0.19894249908E+03  0.23565592355E+03  0.90334065088E+02 0.  0.
         23    2    1    2    0    0 -0.10735449512E+03  0.81780540974E+01  0.86309847531E+02  0.16483216286E+03  0.90157550653E+02 0.  0.
        -11    1    4    4    0    0 -0.17348842256E+02 -0.34808353910E+02  0.12863009272E+02  0.40964140868E+02  0.00000000000E+00 0.  1.
         11    1    4    4    0    0 -0.90005652864E+02  0.42986408007E+02  0.73446838259E+02  0.12386802199E+03  0.00000000000E+00 0. -1.
        -13    1    3    3    0    0  0.49865213417E+02  0.45621909943E+02 -0.69882904668E+02  0.97218920694E+02  0.00000000000E+00 0. -1.
         13    1    3    3    0    0  0.37541120396E+02 -0.33152513153E+02 -0.12905959442E+03  0.13843700286E+03  0.00000000000E+00 0.  1.
         21    1    1    2  502  501  0.19948161306E+02 -0.20647450888E+02 -0.40881259802E+02  0.49955217652E+02  0.00000000000E+00 0.  1.
<scales pt_clust_5="13000.00000" pt_clust_6="13000.00000" pt_clust_7="13000.00000" pt_clust_8="13000.00000" pt_clust_9="28.70969"></scales>
<clustering>
<clus scale="   28.710">  2  9  1 -1</clus>
<clus scale="   90.158">  5  6 -1 -1</clus>
<clus scale="   90.334">  7  8 -1 -1</clus>
<clus scale="  137.958">  1  5  2 -1</clus>
<clus scale="  137.958">  1  5  2 -1</clus>
</clustering>
</event>
<event>
 9    1  0.1713970E-005  0.1279027E+03  0.7546771E-02  0.1230634E+00
         -1   -1    0    0    0  501 -0.00000000000E+00  0.00000000000E+00  0.72254933010E+02  0.72254933010E+02  0.00000000000E+00 0.  1.
          1   -1    0    0  502    0  0.00000000000E+00 -0.00000000000E+00 -0.45992449283E+03  0.45992449283E+03  0.00000000000E+00 0. -1.
         23    2    1    2    0    0 -0.71313515119E+02 -0.19908226607E+02 -0.67850955725E+02  0.13504069307E+03  0.90278910422E+02 0.  0.
         23    2    1    2    0    0  0.98052620846E+02 -0.11341483204E+02 -0.32889135630E+03  0.35502176504E+03  0.90155330999E+02 0.  0.
        -11    1    3    3    0    0 -0.43981642034E+02 -0.42769538504E+02 -0.34571948482E+01  0.61445670767E+02  0.00000000000E+00 0.  1.
         11    1    3    3    0    0 -0.27331873085E+02  0.22861311897E+02 -0.64393760877E+02  0.73595022304E+02  0.00000000000E+00 0. -1.
        -13    1    4    4    0    0  0.66690677228E+02  0.36618435305E+02 -0.17580892196E+03  0.19156548038E+03  0.00000000000E+00 0.  1.
         13    1    4    4    0    0  0.31361943618E+02 -0.47959918509E+02 -0.15308243434E+03  0.16345628466E+03  0.00000000000E+00 0. -1.
         21    1    1    2  502  501 -0.26739105727E+02  0.31249709811E+02  0.90727522023E+01  0.42116967731E+02  0.00000000000E+00 0.  1.
<scales pt_clust_5="13000.00000" pt_clust_6="13000.00000" pt_clust_7="13000.00000" pt_clust_8="13000.00000" pt_clust_9="41.12814"></scales>
<clustering>
<clus scale="   41.128">  1  9  2 -1</clus>
<clus scale="   90.155">  7  8 -1 -1</clus>
<clus scale="   90.279">  5  6 -1 -1</clus>
<clus scale="  127.815">  2  7  1 -1</clus>
<clus scale="  127.815">  2  5  1 -1</clus>
</clustering>
</event>
<event>
 9    1  0.1713970E-005  0.1076467E+03  0.7546771E-02  0.1265865E+00
          1   -1    0    0  502    0  0.00000000000E+00  0.00000000000E+00  0.66837446934E+03  0.66837446934E+03  0.00000000000E+00 0. -1.
         -1   -1    0    0    0  501 -0.00000000000E+00 -0.00000000000E+00 -0.11281807250E+03  0.11281807250E+03  0.00000000000E+00 0.  1.
         23    2    1    2    0    0  0.35983361011E+02 -0.33314954760E+02  0.20942529365E+03  0.23383096365E+03  0.91723919798E+02 0.  0.
         23    2    1    2    0    0 -0.59764350300E+02  0.17672798365E+02  0.43789285543E+03  0.45128644258E+03  0.89583452982E+02 0.  0.
        -11    1    4    4    0    0  0.10024766160E+02  0.31426463245E+02  0.82600359386E+02  0.88943453381E+02  0.00000000000E+00 0.  1.
         11    1    4    4    0    0 -0.69789116460E+02 -0.13753664881E+02  0.35529249605E+03  0.36234298920E+03  0.00000000000E+00 0. -1.
        -13    1    3    3    0    0  0.49965695517E+02  0.71207680187E+01  0.16328218643E+03  0.17090450103E+03  0.00000000000E+00 0.  1.
         13    1    3    3    0    0 -0.13982334506E+02 -0.40435722779E+02  0.46143107213E+02  0.62926462622E+02  0.00000000000E+00 0. -1.
         21    1    1    2  502  501  0.23780989289E+02  0.15642156396E+02 -0.91761752240E+02  0.96075135610E+02  0.00000000000E+00 0.  1.
<scales pt_clust_5="13000.00000" pt_clust_6="13000.00000" pt_clust_7="13000.00000" pt_clust_8="13000.00000" pt_clust_9="28.46423"></scales>
<clustering>
<clus scale="   28.464">  2  9  1 -1</clus>
<clus scale="   89.583">  5  6 -1 -1</clus>
<clus scale="   91.724">  7  8 -1 -1</clus>
<clus scale="  105.829">  1  5  2 -1</clus>
<clus scale="  105.829">  1  5  2 -1</clus>
</clustering>
</event>
<event>
 9    1  0.1713970E-005  0.1082006E+03  0.7546771E-02  0.1265070E+00
          2   -1    0    0  502    0  0.00000000000E+00  0.00000000000E+00  0.16119569287E+03  0.16119569287E+03  0.00000000000E+00 0. -1.
         -2   -1    0    0    0  501 -0.00000000000E+00 -0.00000000000E+00 -0.92080802343E+02  0.92080802343E+02  0.00000000000E+00 0.  1.
         23    2    1    2    0    0 -0.52903199424E+02 -0.13020322411E+02  0.31522136875E+01  0.10511876243E+03  0.89842865377E+02 0.  0.
         23    2    1    2    0    0  0.57814168261E+02 -0.75665298996E+01  0.64291646163E+02  0.12692736664E+03  0.92614308874E+02 0.  0.
        -11    1    3    3    0    0 -0.55127022207E+02 -0.45460477425E+02  0.92038979691E+01  0.72044120669E+02  0.00000000000E+00 0.  1.
         11    1    3    3    0    0  0.22238227835E+01  0.32440155014E+02 -0.60516842817E+01  0.33074641763E+02  0.00000000000E+00 0. -1.
        -11    1    4    4    0    0 -0.22312570047E+02  0.14151004399E+02  0.15725348312E+02  0.30747167140E+02  0.00000000000E+00 0.  1.
         11    1    4    4    0    0  0.80126738308E+02 -0.21717534299E+02  0.48566297851E+02  0.96180199495E+02  0.00000000000E+00 0. -1.
         21    1    1    2  502  501 -0.49109688367E+01  0.20586852311E+02  0.16710306715E+01  0.21230366141E+02  0.00000000000E+00 0.  1.
<scales pt_clust_5="13000.00000" pt_clust_6="13000.00000" pt_clust_7="13000.00000" pt_clust_8="13000.00000" pt_clust_9="21.16450"></scales>
<clustering>
<clus scale="   21.165">  2  9  1 -1</clus>
<clus scale="   89.843">  5  6 -1 -1</clus>
<clus scale="   92.614">  7  8 -1 -1</clus>
<clus scale="  105.838">  2  5  1 -1</clus>
<clus scale="  108.201">  1  5  2 -1</clus>
</clustering>
</event>
<event>
 9    1  0.1713970E-005  0.9924223E+02  0.7546771E-02  0.1282299E+00
          4   -1    0    0  502    0  0.00000000000E+00  0.00000000000E+00  0.15030518402E+03  0.15030518402E+03  0.00000000000E+00 0. -1.
         -4   -1    0    0    0  501 -0.00000000000E+00 -0.00000000000E+00 -0.11356218267E+03  0.11356218267E+03  0.00000000000E+00 0.  1.
         23    2    1    2    0    0 -0.38727917879E+02  0.44779892208E+02 -0.11563597064E+02  0.10836943656E+03  0.90028482346E+02 0.  0.
         23    2    1    2    0    0  0.33743138049E+02 -0.71298818324E+01  0.61834174587E+02  0.11518209418E+03  0.90851610294E+02 0.  0.
        -11    1    3    3    0    0 -0.55485326554E+02  0.46637484416E+01 -0.27453535659E+02  0.62081145547E+02  0.00000000000E+00 0.  1.
         11    1    3    3    0    0  0.16757408675E+02  0.40116143766E+02  0.15889938595E+02  0.46288291011E+02  0.00000000000E+00 0. -1.
        -13    1    4    4    0    0  0.28537337137E+02 -0.40070852923E+02  0.65184569037E+02  0.81664440886E+02  0.00000000000E+00 0. -1.
         13    1    4    4    0    0  0.52058009123E+01  0.32940971090E+02 -0.33503944493E+01  0.33517653296E+02  0.00000000000E+00 0.  1.
         21    1    1    2  502  501  0.49847798291E+01 -0.37650010375E+02 -0.13527576168E+02  0.40315835948E+02  0.00000000000E+00 0.  1.
<scales pt_clust_5="13000.00000" pt_clust_6="13000.00000" pt_clust_7="13000.00000" pt_clust_8="13000.00000" pt_clust_9="37.97856"></scales>
<clustering>
<clus scale="   37.979">  2  9  1 -1</clus>
<clus scale="   90.028">  5  6 -1 -1</clus>
<clus scale="   90.852">  7  8 -1 -1</clus>
<clus scale="   98.489">  2  5  1 -1</clus>
<clus scale="   99.242">  1  5  2 -1</clus>
</clustering>
</event>
<event>
 9    1  0.1713970E-005  0.2114472E+03  0.7546771E-02  0.1140508E+00
         -1   -1    0    0    0  501 -0.00000000000E+00  0.00000000000E+00  0.57441818348E+02  0.57441818348E+02  0.00000000000E+00 0.  1.
          1   -1    0    0  502    0  0.00000000000E+00 -0.00000000000E+00 -0.13661673283E+04  0.13661673283E+04  0.00000000000E+00 0. -1.
         23    2    1    2    0    0  0.10180737331E+03  0.17679536010E+03 -0.24039349594E+03  0.32836161333E+03  0.91711371199E+02 0.  0.
         23    2    1    2    0    0 -0.59326033020E+02 -0.14425251980E+03 -0.70388119775E+03  0.72688887901E+03  0.92684055895E+02 0.  0.
        -11    1    3    3    0    0  0.18558439516E+02  0.11947843588E+03 -0.11067917884E+03  0.16391886086E+03  0.00000000000E+00 0.  1.
         11    1    3    3    0    0  0.83248933794E+02  0.57316924223E+02 -0.12971431709E+03  0.16444275247E+03  0.00000000000E+00 0. -1.
        -13    1    4    4    0    0  0.26527041757E+01 -0.98904805656E+02 -0.48323546218E+03  0.49326028557E+03  0.00000000000E+00 0.  1.
         13    1    4    4    0    0 -0.61978737195E+02 -0.45347714147E+02 -0.22064573558E+03  0.23362859343E+03  0.00000000000E+00 0. -1.
         21    1    1    2  502  501 -0.42481340291E+02 -0.32542840299E+02 -0.36445081627E+03  0.36835865431E+03  0.00000000000E+00 0. -1.
<scales pt_clust_5="13000.00000" pt_clust_6="13000.00000" pt_clust_7="13000.00000" pt_clust_8="13000.00000" pt_clust_9="53.51356"></scales>
<clustering>
<clus scale="   53.514">  2  9  1 -1</clus>
<clus scale="   91.711">  5  6 -1 -1</clus>
<clus scale="   92.684">  7  8 -1 -1</clus>
<clus scale="  211.023">  1  5  2 -1</clus>
<clus scale="   53.514">  2  5  1 -1</clus>
</clustering>
</event>
<event>
 9    1  0.1713970E-005  0.1370389E+03  0.7546771E-02  0.1217809E+00
         -1   -1    0    0    0  501 -0.00000000000E+00  0.00000000000E+00  0.11179161604E+03  0.11179161604E+03  0.00000000000E+00 0.  1.
          1   -1    0    0  502    0  0.00000000000E+00 -0.00000000000E+00 -0.32785426350E+03  0.32785426350E+03  0.00000000000E+00 0. -1.
         23    2    1    2    0    0  0.40844766610E+02  0.71291734392E+02  0.13076837062E+02  0.12322322032E+03  0.90896380600E+02 0.  0.
         23    2    1    2    0    0 -0.71750430551E+02 -0.78739178432E+02 -0.24352479496E+03  0.28152908327E+03  0.92770234774E+02 0.  0.
        -11    1    4    4    0    0 -0.22051700870E+02 -0.85088023567E+02 -0.12462887844E+03  0.15250772639E+03  0.00000000000E+00 0. -1.
         11    1    4    4    0    0 -0.49698729681E+02  0.63488451349E+01 -0.11889591652E+03  0.12902135688E+03  0.00000000000E+00 0.  1.
        -13    1    3    3    0    0 -0.11961721130E+02  0.51141876754E+02 -0.21735778112E+02  0.56842047645E+02  0.00000000000E+00 0. -1.
         13    1    3    3    0    0  0.52806487741E+02  0.20149857639E+02  0.34812615175E+02  0.66381172675E+02  0.00000000000E+00 0.  1.
         21    1    1    2  502  501  0.30905663941E+02  0.74474440397E+01  0.14385310443E+02  0.34893575954E+02  0.00000000000E+00 0.  1.
<scales pt_clust_5="13000.00000" pt_clust_6="13000.00000" pt_clust_7="13000.00000" pt_clust_8="13000.00000" pt_clust_9="31.79032"></scales>
<clustering>
<clus scale="   31.790">  1  9  2 -1</clus>
<clus scale="   90.896">  7  8 -1 -1</clus>
<clus scale="   92.770">  5  6 -1 -1</clus>
<clus scale="  135.777">  1  7  2 -1</clus>
<clus scale="  137.039">  2  5  1 -1</clus>
</clustering>
</event>
<event>
 9    1  0.1713970E-005  0.1426166E+03  0.7546771E-02  0.1209878E+00
          1   -1    0    0  502    0  0.00000000000E+00  0.00000000000E+00  0.23962403579E+03  0.23962403579E+03  0.00000000000E+00 0. -1.
         -1   -1    0    0    0  501 -0.00000000000E+00 -0.00000000000E+00 -0.11097401722E+03  0.11097401722E+03  0.00000000000E+00 0.  1.
         23    2    1    2    0    0 -0.94727439018E+02 -0.76036451037E+02  0.29717200874E+02  0.15525774603E+03  0.92016444645E+02 0.  0.
         23    2    1    2    0    0  0.86007061871E+02  0.55495145739E+02  0.10401792414E+03  0.17245256990E+03  0.91887074336E+02 0.  0.
        -13    1    4    4    0    0 -0.19847208734E+02  0.65959068687E+01  0.17194453311E+02  0.27075208339E+02  0.00000000000E+00 0.  1.
         13    1    4    4    0    0  0.10585427060E+03  0.48899238871E+02  0.86823470825E+02  0.14537736156E+03  0.00000000000E+00 0. -1.
        -13    1    3    3    0    0 -0.69402478841E+02  0.55037341118E+00  0.27226614402E+02  0.74553977170E+02  0.00000000000E+00 0.  1.
         13    1    3    3    0    0 -0.25324960178E+02 -0.76586824448E+02  0.24905864722E+01  0.80703768859E+02  0.00000000000E+00 0. -1.
         21    1    1    2  502  501  0.87203771474E+01  0.20541305298E+02 -0.50851064413E+01  0.22887737076E+02  0.00000000000E+00 0. -1.
<scales pt_clust_5="13000.00000" pt_clust_6="13000.00000" pt_clust_7="13000.00000" pt_clust_8="13000.00000" pt_clust_9="22.31569"></scales>
<clustering>
<clus scale="   22.316">  2  9  1 -1</clus>
<clus scale="   91.887">  5  6 -1 -1</clus>
<clus scale="   92.016">  7  8 -1 -1</clus>
<clus scale="  142.533">  1  5  2 -1</clus>
<clus scale="  142.533">  1  5  2 -1</clus>
</clustering>
</event>
<event>
 9    1  0.1713970E-005  0.2086036E+03  0.7546771E-02  0.1150551E+00
         -1   -1    0    0    0  501 -0.00000000000E+00  0.00000000000E+00  0.44679549155E+03  0.44679549155E+03  0.00000000000E+00 0.  1.
          1   -1    0    0  502    0  0.00000000000E+00 -0.00000000000E+00 -0.25343123585E+03  0.25343123585E+03  0.00000000000E+00 0. -1.
         23    2    1    2    0    0 -0.18036259986E+03  0.33390488133E+02 -0.78236029312E+02  0.21851093886E+03  0.89333991246E+02 0.  0.
         23    2    1    2    0    0  0.14765083334E+02 -0.14803056151E+03  0.45236899753E+02  0.17872195018E+03  0.88114150676E+02 0.  0.
        -11    1    3    3    0    0 -0.11590035364E+03  0.12027834220E+02 -0.92915030849E+02  0.14903276059E+03  0.00000000000E+00 0. -1.
         11    1    3    3    0    0 -0.64462246223E+02  0.21362653913E+02  0.14679001537E+02  0.69478178276E+02  0.00000000000E+00 0.  1.
        -13    1    4    4    0    0  0.54228971484E+01 -0.56032513877E+02  0.63078256857E+02  0.84545354178E+02  0.00000000000E+00 0.  1.
         13    1    4    4    0    0  0.93421861860E+01 -0.91998047630E+02 -0.17841357105E+02  0.94176595998E+02  0.00000000000E+00 0. -1.
         21    1    1    2  502  501  0.16559751653E+03  0.11464007337E+03  0.22636338526E+03  0.30299383837E+03  0.00000000000E+00 0.  1.
<scales pt_clust_5="13000.00000" pt_clust_6="13000.00000" pt_clust_7="13000.00000" pt_clust_8="13000.00000" pt_clust_9="188.50705"></scales>
<clustering>
<clus scale="   88.114">  7  8 -1 -1</clus>
<clus scale="   89.334">  5  6 -1 -1</clus>
<clus scale="  172.902">  2  7  1 -1</clus>
<clus scale="  188.507">  1  9  2 -1</clus>
<clus scale="  172.902">  2  5  1 -1</clus>
</clustering>
</event>
<event>
 9    1  0.1713970E-005  0.1302680E+03  0.7546771E-02  0.1227708E+00
          2   -1    0    0  502    0  0.00000000000E+00  0.00000000000E+00  0.75337460280E+03  0.75337460280E+03  0.00000000000E+00 0. -1.
         -2   -1    0    0    0  501 -0.00000000000E+00 -0.00000000000E+00 -0.46187784851E+02  0.46187784851E+02  0.00000000000E+00 0.  1.
         23    2    1    2    0    0  0.10107931760E+03  0.11550957566E+02  0.22602204116E+03  0.26399897649E+03  0.90879279424E+02 0.  0.
         23    2    1    2    0    0 -0.82220449865E+02 -0.28165386352E+02  0.49195170076E+03  0.50821283777E+03  0.93329101740E+02 0.  0.
        -13    1    4    4    0    0 -0.74702018672E+02  0.19707833205E+02  0.34230873391E+03  0.35091887894E+03  0.00000000000E+00 0. -1.
         13    1    4    4    0    0 -0.75184311925E+01 -0.47873219557E+02  0.14964296685E+03  0.15729395883E+03  0.00000000000E+00 0.  1.
        -13    1    3    3    0    0  0.71299410963E+02  0.42058045738E+02  0.93947857664E+02  0.12521455656E+03  0.00000000000E+00 0. -1.
         13    1    3    3    0    0  0.29779906636E+02 -0.30507088172E+02  0.13207418350E+03  0.13878441993E+03  0.00000000000E+00 0.  1.
         21    1    1    2  502  501 -0.18858867734E+02  0.16614428786E+02 -0.10786923972E+02  0.27350573392E+02  0.00000000000E+00 0.  1.
<scales pt_clust_5="13000.00000" pt_clust_6="13000.00000" pt_clust_7="13000.00000" pt_clust_8="13000.00000" pt_clust_9="25.13357"></scales>
<clustering>
<clus scale="   25.134">  2  9  1 -1</clus>
<clus scale="   90.879">  7  8 -1 -1</clus>
<clus scale="   93.329">  5  6 -1 -1</clus>
<clus scale="  128.524">  2  7  1 -1</clus>
<clus scale="  130.268">  1  5  2 -1</clus>
</clustering>
</event>
<event>
 9    1  0.1713970E-005  0.1113933E+03  0.7546771E-02  0.1258455E+00
          2   -1    0    0  502    0  0.00000000000E+00  0.00000000000E+00  0.57718572241E+02  0.57718572241E+02  0.00000000000E+00 0. -1.
         -2   -1    0    0    0  501 -0.00000000000E+00 -0.00000000000E+00 -0.36860746076E+03  0.36860746076E+03  0.00000000000E+00 0.  1.
         23    2    1    2    0    0 -0.46516509747E+02  0.14164789163E+02 -0.10386932526E+03  0.14748219251E+03  0.92723963710E+02 0.  0.
         23    2    1    2    0    0  0.64347425580E+02 -0.24004248158E+02 -0.60867334667E+02  0.13127951406E+03  0.93875892937E+02 0.  0.
        -11    1    3    3    0    0 -0.58210652273E+02 -0.97355710608E+01 -0.10543353590E+03  0.12082835708E+03  0.00000000000E+00 0.  1.
         11    1    3    3    0    0  0.11694142526E+02  0.23900360224E+02  0.15642106379E+01  0.26653835431E+02  0.00000000000E+00 0. -1.
        -13    1    4    4    0    0  0.45307981637E+02 -0.39778018260E+02 -0.79887325611E+02  0.10008540718E+03  0.00000000000E+00 0.  1.
         13    1    4    4    0    0  0.19039443942E+02  0.15773770102E+02  0.19019990944E+02  0.31194106885E+02  0.00000000000E+00 0. -1.
         21    1    1    2  502  501 -0.17830915833E+02  0.98394589950E+01 -0.14615222859E+03  0.14756432643E+03  0.00000000000E+00 0.  1.
<scales pt_clust_5="13000.00000" pt_clust_6="13000.00000" pt_clust_7="13000.00000" pt_clust_8="13000.00000" pt_clust_9="20.36557"></scales>
<clustering>
<clus scale="   20.366">  2  9  1 -1</clus>
<clus scale="   92.724">  5  6 -1 -1</clus>
<clus scale="   93.876">  7  8 -1 -1</clus>
<clus scale="  110.424">  2  5  1 -1</clus>
<clus scale="  111.393">  1  5  2 -1</clus>
</clustering>
</event>
<event>
 9    1  0.1713970E-005  0.1439631E+03  0.7546771E-02  0.1224205E+00
          2   -1    0    0  502    0  0.00000000000E+00  0.00000000000E+00  0.75907201310E+02  0.75907201310E+02  0.00000000000E+00 0. -1.
         -2   -1    0    0    0  501 -0.00000000000E+00 -0.00000000000E+00 -0.57165530728E+03  0.57165530728E+03  0.00000000000E+00 0.  1.
         23    2    1    2    0    0 -0.61845979552E+02  0.11723082583E+03 -0.89736890540E+02  0.18424454621E+03  0.91243364537E+02 0.  0.
         23    2    1    2    0    0 -0.13466211203E+02 -0.40038257494E+02 -0.12065158079E+03  0.15825937823E+03  0.93299656719E+02 0.  0.
        -11    1    4    4    0    0 -0.17626233915E+02  0.28600454983E+02 -0.42091908968E+02  0.53855352082E+02  0.00000000000E+00 0. -1.
         11    1    4    4    0    0  0.41600227126E+01 -0.68638712477E+02 -0.78559671823E+02  0.10440402615E+03  0.00000000000E+00 0.  1.
        -11    1    3    3    0    0 -0.13548717382E+02  0.22999362788E+02 -0.72119949210E+02  0.76901401193E+02  0.00000000000E+00 0.  1.
         11    1    3    3    0    0 -0.48297262170E+02  0.94231463040E+02 -0.17616941331E+02  0.10734314501E+03  0.00000000000E+00 0. -1.
         21    1    1    2  502  501  0.75312190755E+02 -0.77192568334E+02 -0.28535963463E+03  0.30505858415E+03  0.00000000000E+00 0.  1.
<scales pt_clust_5="13000.00000" pt_clust_6="13000.00000" pt_clust_7="13000.00000" pt_clust_8="13000.00000" pt_clust_9="111.35543"></scales>
<clustering>
<clus scale="   91.243">  7  8 -1 -1</clus>
<clus scale="   93.300">  5  6 -1 -1</clus>
<clus scale="  102.417">  1  5  2 -1</clus>
<clus scale="  111.355">  2  9  1 -1</clus>
<clus scale="  102.417">  1  5  2 -1</clus>
</clustering>
</event>
<event>
 9    1  0.1713970E-005  0.2400915E+03  0.7546771E-02  0.1119912E+00
         -2   -1    0    0    0  501 -0.00000000000E+00  0.00000000000E+00  0.36127249661E+02  0.36127249661E+02  0.00000000000E+00 0.  1.
          2   -1    0    0  502    0  0.00000000000E+00 -0.00000000000E+00 -0.19466946507E+04  0.19466946507E+04  0.00000000000E+00 0. -1.
         23    2    1    2    0    0  0.20765196111E+03  0.11656802088E+02 -0.75246275284E+03  0.78606063558E+03  0.91847212350E+02 0.  0.
         23    2    1    2    0    0 -0.23250861665E+03  0.30017966238E+02 -0.99263956871E+03  0.10243277061E+04  0.94618184985E+02 0.  0.
        -11    1    4    4    0    0 -0.15149433389E+03 -0.19841661503E+02 -0.50966162438E+03  0.53207066833E+03  0.00000000000E+00 0.  1.
         11    1    4    4    0    0 -0.81014282757E+02  0.49859627741E+02 -0.48297794433E+03  0.49225703773E+03  0.00000000000E+00 0. -1.
        -11    1    3    3    0    0  0.12938851904E+03 -0.31754677021E+02 -0.36966983665E+03  0.39294469903E+03  0.00000000000E+00 0. -1.
         11    1    3    3    0    0  0.78263442075E+02  0.43411479109E+02 -0.38279291619E+03  0.39311593655E+03  0.00000000000E+00 0.  1.
         21    1    1    2  502  501  0.24856655536E+02 -0.41674768326E+02 -0.16546507951E+03  0.17243355873E+03  0.00000000000E+00 0.  1.
<scales pt_clust_5="13000.00000" pt_clust_6="13000.00000" pt_clust_7="13000.00000" pt_clust_8="13000.00000" pt_clust_9="48.52463"></scales>
<clustering>
<clus scale="   48.525">  1  9  2 -1</clus>
<clus scale="   91.847">  7  8 -1 -1</clus>
<clus scale="   94.618">  5  6 -1 -1</clus>
<clus scale="  239.013">  1  7  2 -1</clus>
<clus scale="  240.092">  2  5  1 -1</clus>
</clustering>
</event>
<event>
 9    1  0.1713970E-005  0.1050628E+03  0.7546771E-02  0.1270920E+00
         -1   -1    0    0    0  501 -0.00000000000E+00  0.00000000000E+00  0.53114940129E+02  0.53114940129E+02  0.00000000000E+00 0.  1.
          1   -1    0    0  502    0  0.00000000000E+00 -0.00000000000E+00 -0.37294811071E+03  0.37294811071E+03  0.00000000000E+00 0. -1.
         23    2    1    2    0    0  0.26226919785E+02 -0.18254290255E+02 -0.85782902183E+02  0.12804454577E+03  0.89530045013E+02 0.  0.
         23    2    1    2    0    0 -0.33507898434E+02  0.54699815826E+02 -0.23560483715E+03  0.26082031065E+03  0.91666493619E+02 0.  0.
        -11    1    3    3    0    0  0.10484697563E+02 -0.53388860714E+02 -0.36549766976E+02  0.65545288140E+02  0.00000000000E+00 0.  1.
         11    1    3    3    0    0  0.15742222222E+02  0.35134570459E+02 -0.49233135206E+02  0.62499257628E+02  0.00000000000E+00 0. -1.
        -11    1    4    4    0    0  0.22331282196E+02 -0.18253337463E+00 -0.15444278616E+02  0.27152260033E+02  0.00000000000E+00 0.  1.
         11    1    4    4    0    0 -0.55839180629E+02  0.54882349201E+02 -0.22016055853E+03  0.23366805062E+03  0.00000000000E+00 0. -1.
         21    1    1    2  502  501  0.72809786489E+01 -0.36445525571E+02  0.15545687452E+01  0.37198194422E+02  0.00000000000E+00 0.  1.
<scales pt_clust_5="13000.00000" pt_clust_6="13000.00000" pt_clust_7="13000.00000" pt_clust_8="13000.00000" pt_clust_9="37.16570"></scales>
<clustering>
<clus scale="   37.166">  1  9  2 -1</clus>
<clus scale="   89.530">  5  6 -1 -1</clus>
<clus scale="   91.666">  7  8 -1 -1</clus>
<clus scale="  103.204">  1  5  2 -1</clus>
<clus scale="  105.063">  2  5  1 -1</clus>
</clustering>
</event>
<event>
 9    1  0.1713970E-005  0.9366042E+02  0.7546771E-02  0.1294630E+00
          3   -1    0    0  502    0  0.00000000000E+00  0.00000000000E+00  0.17245548596E+03  0.17245548596E+03  0.00000000000E+00 0. -1.
         -3   -1    0    0    0  501 -0.00000000000E+00 -0.00000000000E+00 -0.10266301865E+03  0.10266301865E+03  0.00000000000E+00 0.  1.
         23    2    1    2    0    0 -0.68297629596E+01 -0.42719042188E+02  0.38231234451E+02  0.10834330409E+03  0.91679234431E+02 0.  0.
         23    2    1    2    0    0  0.17994334119E+02 -0.75512270619E+01  0.57246769832E+02  0.10922961485E+03  0.90956577626E+02 0.  0.
        -13    1    3    3    0    0  0.16549217375E+02  0.17631600788E+02 -0.11447524133E+02  0.26754359474E+02  0.00000000000E+00 0.  1.
         13    1    3    3    0    0 -0.23378980334E+02 -0.60350642976E+02  0.49678758584E+02  0.81588944616E+02  0.00000000000E+00 0. -1.
        -13    1    4    4    0    0 -0.60687117831E+01 -0.21413852766E+02 -0.18252918366E+02  0.28784568467E+02  0.00000000000E+00 0. -1.
         13    1    4    4    0    0  0.24063045902E+02  0.13862625704E+02  0.75499688198E+02  0.80445046383E+02  0.00000000000E+00 0.  1.
         21    1    1    2  502  501 -0.11164571160E+02  0.50270269250E+02 -0.25685536974E+02  0.57545585663E+02  0.00000000000E+00 0.  1.
<scales pt_clust_5="13000.00000" pt_clust_6="13000.00000" pt_clust_7="13000.00000" pt_clust_8="13000.00000" pt_clust_9="51.49512"></scales>
<clustering>
<clus scale="   51.495">  2  9  1 -1</clus>
<clus scale="   90.957">  7  8 -1 -1</clus>
<clus scale="   91.679">  5  6 -1 -1</clus>
<clus scale="   92.953">  1  7  2 -1</clus>
<clus scale="   92.953">  1  5  2 -1</clus>
</clustering>
</event>
<event>
 9    1  0.1713970E-005  0.9609769E+02  0.7546771E-02  0.1288850E+00
         -2   -1    0    0    0  501 -0.00000000000E+00  0.00000000000E+00  0.12582541462E+03  0.12582541462E+03  0.00000000000E+00 0.  1.
          2   -1    0    0  502    0  0.00000000000E+00 -0.00000000000E+00 -0.10401447282E+03  0.10401447282E+03  0.00000000000E+00 0. -1.
         23    2    1    2    0    0 -0.27343227062E+02 -0.23949642800E+02  0.26470877145E+02  0.99950930851E+02  0.89265019940E+02 0.  0.
         23    2    1    2    0    0  0.30857952260E+01  0.38205691199E+02 -0.17548876873E+02  0.98940891567E+02  0.89510557883E+02 0.  0.
        -11    1    4    4    0    0 -0.21942121579E+02  0.59044651728E+02 -0.24348182828E+01  0.63036941052E+02  0.00000000000E+00 0.  1.
         11    1    4    4    0    0  0.25027916805E+02 -0.20838960530E+02 -0.15114058591E+02  0.35903950516E+02  0.00000000000E+00 0. -1.
        -11    1    3    3    0    0 -0.38015082840E+02  0.19616116740E+02  0.33777914738E+02  0.54505835314E+02  0.00000000000E+00 0.  1.
         11    1    3    3    0    0  0.10671855779E+02 -0.43565759539E+02 -0.73070375922E+01  0.45445095537E+02  0.00000000000E+00 0. -1.
         21    1    1    2  502  501  0.24257431836E+02 -0.14256048399E+02  0.12888941525E+02  0.30948065026E+02  0.00000000000E+00 0. -1.
<scales pt_clust_5="13000.00000" pt_clust_6="13000.00000" pt_clust_7="13000.00000" pt_clust_8="13000.00000" pt_clust_9="28.13642"></scales>
<clustering>
<clus scale="   28.136">  1  9  2 -1</clus>
<clus scale="   89.265">  7  8 -1 -1</clus>
<clus scale="   89.511">  5  6 -1 -1</clus>
<clus scale="   95.869">  1  7  2 -1</clus>
<clus scale="   96.098">  2  5  1 -1</clus>
</clustering>
</event>
<event>
 9    1  0.1713970E-005  0.1449982E+03  0.7546771E-02  0.1207075E+00
         -2   -1    0    0    0  501 -0.00000000000E+00  0.00000000000E+00  0.61201475092E+03  0.61201475092E+03  0.00000000000E+00 0.  1.
          2   -1    0    0  502    0  0.00000000000E+00 -0.00000000000E+00 -0.16382924713E+03  0.16382924713E+03  0.00000000000E+00 0. -1.
         23    2    1    2    0    0 -0.73968105996E+02 -0.14597398620E+03  0.38660148003E+03  0.42988466080E+03  0.92522601972E+02 0.  0.
         23    2    1    2    0    0  0.27600101123E+02  0.10368750671E+03 -0.10001514304E+03  0.17260297327E+03  0.90971934752E+02 0.  0.
        -13    1    4    4    0    0  0.20224707288E+02  0.20840883677E+02  0.13379381851E+02  0.31974819406E+02  0.00000000000E+00 0.  1.
         13    1    4    4    0    0  0.73753938353E+01  0.82846623038E+02 -0.11339452489E+03  0.14062815386E+03  0.00000000000E+00 0. -1.
        -13    1    3    3    0    0 -0.91167993347E+02 -0.11213426543E+03  0.25709724298E+03  0.29493166809E+03  0.00000000000E+00 0.  1.
         13    1    3    3    0    0  0.17199887351E+02 -0.33839720770E+02  0.12950423705E+03  0.13495299271E+03  0.00000000000E+00 0. -1.
         21    1    1    2  502  501  0.46368004873E+02  0.42286479483E+02  0.16159916680E+03  0.17335636398E+03  0.00000000000E+00 0. -1.
<scales pt_clust_5="13000.00000" pt_clust_6="13000.00000" pt_clust_7="13000.00000" pt_clust_8="13000.00000" pt_clust_9="62.75459"></scales>
<clustering>
<clus scale="   62.755">  1  9  2 -1</clus>
<clus scale="   90.972">  5  6 -1 -1</clus>
<clus scale="   92.523">  7  8 -1 -1</clus>
<clus scale="  144.014">  2  5  1 -1</clus>
<clus scale="  144.014">  2  5  1 -1</clus>
</clustering>
</event>
<event>
 9    1  0.1713970E-005  0.9657479E+02  0.7546771E-02  0.1290037E+00
         -3   -1    0    0    0  501 -0.00000000000E+00  0.00000000000E+00  0.15854055271E+03  0.15854055271E+03  0.00000000000E+00 0.  1.
          3   -1    0    0  502    0  0.00000000000E+00 -0.00000000000E+00 -0.32822967111E+03  0.32822967111E+03  0.00000000000E+00 0. -1.
         23    2    1    2    0    0 -0.21060365666E+02  0.26959565635E+02  0.50780304225E+02  0.11303457890E+03  0.95014838567E+02 0.  0.
         23    2    1    2    0    0  0.14718893901E+02 -0.65315862634E+01 -0.28826836873E+03  0.30264265161E+03  0.90744777835E+02 0.  0.
        -13    1    4    4    0    0 -0.38161003101E+02 -0.53913545777E+01 -0.14064671563E+03  0.14583150373E+03  0.00000000000E+00 0.  1.
         13    1    4    4    0    0  0.52879897002E+02 -0.11402316857E+01 -0.14762165310E+03  0.15681114788E+03  0.00000000000E+00 0. -1.
        -13    1    3    3    0    0 -0.32032284970E+02  0.51614625001E+02  0.59143071234E+02  0.84782307526E+02  0.00000000000E+00 0.  1.
         13    1    3    3    0    0  0.10971919304E+02 -0.24655059366E+02 -0.83627670098E+01  0.28252271371E+02  0.00000000000E+00 0. -1.
         21    1    1    2  502  501  0.63414717645E+01 -0.20427979372E+02  0.67798946103E+02  0.71092993312E+02  0.00000000000E+00 0. -1.
<scales pt_clust_5="13000.00000" pt_clust_6="13000.00000" pt_clust_7="13000.00000" pt_clust_8="13000.00000" pt_clust_9="21.38964"></scales>
<clustering>
<clus scale="   21.390">  1  9  2 -1</clus>
<clus scale="   90.745">  5  6 -1 -1</clus>
<clus scale="   92.377">  2  5  1 -1</clus>
<clus scale="   95.015">  7  8 -1 -1</clus>
<clus scale="   92.377">  2  5  1 -1</clus>
</clustering>
</event>
<event>
 9    1  0.1713970E-005  0.1233155E+03  0.7546771E-02  0.1239069E+00
          2   -1    0    0  502    0  0.00000000000E+00  0.00000000000E+00  0.22860933413E+03  0.22860933413E+03  0.00000000000E+00 0. -1.
         -2   -1    0    0    0  501 -0.00000000000E+00 -0.00000000000E+00 -0.90242527364E+02  0.90242527364E+02  0.00000000000E+00 0.  1.
         23    2    1    2    0    0 -0.43603900102E+02 -0.83494076017E+02  0.60199743224E+02  0.14109334061E+03  0.86085776095E+02 0.  0.
         23    2    1    2    0    0  0.10394398069E+02  0.76826779547E+02  0.80328438216E+02  0.14381746304E+03  0.90666460844E+02 0.  0.
        -11    1    4    4    0    0 -0.19259474267E+02  0.61054533339E+02  0.88520940130E+02  0.10924532133E+03  0.00000000000E+00 0. -1.
         11    1    4    4    0    0  0.29653872336E+02  0.15772246207E+02 -0.81925019141E+01  0.34572141712E+02  0.00000000000E+00 0.  1.
        -11    1    3    3    0    0  0.53211074098E+00 -0.68996246252E+02  0.53377608901E+01  0.69204456721E+02  0.00000000000E+00 0.  1.
         11    1    3    3    0    0 -0.44136010843E+02 -0.14497829765E+02  0.54861982333E+02  0.71888883887E+02  0.00000000000E+00 0. -1.
         21    1    1    2  502  501  0.33209502033E+02  0.66672964697E+01 -0.21613746702E+01  0.33941057850E+02  0.00000000000E+00 0.  1.
<scales pt_clust_5="13000.00000" pt_clust_6="13000.00000" pt_clust_7="13000.00000" pt_clust_8="13000.00000" pt_clust_9="33.87217"></scales>
<clustering>
<clus scale="   33.872">  2  9  1 -1</clus>
<clus scale="   86.086">  7  8 -1 -1</clus>
<clus scale="   90.666">  5  6 -1 -1</clus>
<clus scale="  119.988">  2  7  1 -1</clus>
<clus scale="  123.316">  1  5  2 -1</clus>
</clustering>
</event>
<event>
 9    1  0.1713970E-005  0.1011872E+03  0.7546771E-02  0.1278574E+00
         -2   -1    0    0    0  501 -0.00000000000E+00  0.00000000000E+00  0.66799665249E+02  0.66799665249E+02  0.00000000000E+00 0. -1.
          2   -1    0    0  502    0  0.00000000000E+00 -0.00000000000E+00 -0.45724790098E+03  0.45724790098E+03  0.00000000000E+00 0.  1.
         23    2    1    2    0    0 -0.31194207375E+01  0.66729069098E+01 -0.10147395300E+02  0.92318847811E+02  0.91463334498E+02 0.  0.
         23    2    1    2    0    0  0.50144060650E+02 -0.36602441824E+00 -0.36882983547E+03  0.38291604096E+03  0.89859257174E+02 0.  0.
        -11    1    4    4    0    0 -0.15679163998E+02  0.26097823497E+02 -0.14299303468E+03  0.14619829186E+03  0.00000000000E+00 0. -1.
         11    1    4    4    0    0  0.65823224648E+02 -0.26463847915E+02 -0.22583680079E+03  0.23671774910E+03  0.00000000000E+00 0.  1.
        -13    1    3    3    0    0 -0.19902093227E+02 -0.97579268057E+01 -0.45074257927E+02  0.50229465237E+02  0.00000000000E+00 0.  1.
         13    1    3    3    0    0  0.16782672490E+02  0.16430833716E+02  0.34926862627E+02  0.42089382574E+02  0.00000000000E+00 0. -1.
         21    1    1    2  502  501 -0.47024639912E+02 -0.63068824916E+01 -0.11471004960E+02  0.48812677456E+02  0.00000000000E+00 0.  1.
<scales pt_clust_5="13000.00000" pt_clust_6="13000.00000" pt_clust_7="13000.00000" pt_clust_8="13000.00000" pt_clust_9="47.44569"></scales>
<clustering>
<clus scale="   47.446">  1  9  2 -1</clus>
<clus scale="   89.859">  5  6 -1 -1</clus>
<clus scale="   91.463">  7  8 -1 -1</clus>
<clus scale="   99.740">  2  5  1 -1</clus>
<clus scale="   99.740">  2  5  1 -1</clus>
</clustering>
</event>
<event>
 9    1  0.1713970E-005  0.1026901E+03  0.7546771E-02  0.1275387E+00
          1   -1    0    0  502    0  0.00000000000E+00  0.00000000000E+00  0.39941811153E+02  0.39941811153E+02  0.00000000000E+00 0. -1.
         -1   -1    0    0    0  501 -0.00000000000E+00 -0.00000000000E+00 -0.44166111869E+03  0.44166111869E+03  0.00000000000E+00 0.  1.
         23    2    1    2    0    0  0.46927184373E+02  0.18510110953E+02 -0.28497930208E+03  0.30292012987E+03  0.89457350862E+02 0.  0.
         23    2    1    2    0    0 -0.24837708322E+02 -0.40533301379E+02 -0.77529790555E+02  0.12857883984E+03  0.90894385721E+02 0.  0.
        -11    1    4    4    0    0  0.29049746784E+02 -0.38889661926E+02 -0.33621267171E+02  0.59048143063E+02  0.00000000000E+00 0. -1.
         11    1    4    4    0    0 -0.53887455106E+02 -0.16436394529E+01 -0.43908523384E+02  0.69530696777E+02  0.00000000000E+00 0.  1.
        -13    1    3    3    0    0  0.22137103024E+02 -0.30965387630E+02 -0.58617768257E+02  0.69892412441E+02  0.00000000000E+00 0. -1.
         13    1    3    3    0    0  0.24790081349E+02  0.49475498584E+02 -0.22636153383E+03  0.23302771743E+03  0.00000000000E+00 0.  1.
         21    1    1    2  502  501 -0.22089476052E+02  0.22023190426E+02 -0.39210214897E+02  0.50103960133E+02  0.00000000000E+00 0.  1.
<scales pt_clust_5="13000.00000" pt_clust_6="13000.00000" pt_clust_7="13000.00000" pt_clust_8="13000.00000" pt_clust_9="31.19240"></scales>
<clustering>
<clus scale="   31.192">  1  9  2 -1</clus>
<clus scale="   89.457">  7  8 -1 -1</clus>
<clus scale="   90.894">  5  6 -1 -1</clus>
<clus scale="  101.420">  2  7  1 -1</clus>
<clus scale="   31.192">  1  5  2 -1</clus>
</clustering>
</event>
<event>
 9    1  0.1713970E-005  0.1074233E+03  0.7546771E-02  0.1267179E+00
          2   -1    0    0  502    0  0.00000000000E+00  0.00000000000E+00  0.93569716123E+02  0.93569716123E+02  0.00000000000E+00 0. -1.
         -2   -1    0    0    0  501 -0.00000000000E+00 -0.00000000000E+00 -0.16014947983E+03  0.16014947983E+03  0.00000000000E+00 0.  1.
         23    2    1    2    0    0  0.26636644442E+02 -0.61538751881E+02 -0.32315200151E+02  0.11845636269E+03  0.92147213144E+02 0.  0.
         23    2    1    2    0    0 -0.77308250569E+00  0.47768555169E+02 -0.17681277897E+02  0.10159463586E+03  0.87899999584E+02 0.  0.
        -11    1    4    4    0    0  0.84347747206E+01 -0.23439592928E+02  0.66494434620E+01  0.25783231752E+02  0.00000000000E+00 0.  1.
         11    1    4    4    0    0 -0.92078572263E+01  0.71208148098E+02 -0.24330721359E+02  0.75811404103E+02  0.00000000000E+00 0. -1.
        -13    1    3    3    0    0 -0.16385106772E+02  0.13332405642E+02  0.87170269230E+01  0.22851943517E+02  0.00000000000E+00 0. -1.
         13    1    3    3    0    0  0.43021751213E+02 -0.74871157524E+02 -0.41032227074E+02  0.95604419171E+02  0.00000000000E+00 0.  1.
         21    1    1    2  502  501 -0.25863561936E+02  0.13770196712E+02 -0.16583285656E+02  0.33668197407E+02  0.00000000000E+00 0.  1.
<scales pt_clust_5="13000.00000" pt_clust_6="13000.00000" pt_clust_7="13000.00000" pt_clust_8="13000.00000" pt_clust_9="29.30089"></scales>
<clustering>
<clus scale="   29.301">  2  9  1 -1</clus>
<clus scale="   87.900">  5  6 -1 -1</clus>
<clus scale="   92.147">  7  8 -1 -1</clus>
<clus scale="  103.803">  1  5  2 -1</clus>
<clus scale="  103.803">  1  5  2 -1</clus>
</clustering>
</event>
<event>
 9    1  0.1713970E-005  0.1116275E+03  0.7546771E-02  0.1257660E+00
          2   -1    0    0  502    0  0.00000000000E+00  0.00000000000E+00  0.27750641809E+03  0.27750641809E+03  0.00000000000E+00 0. -1.
         -2   -1    0    0    0  501 -0.00000000000E+00 -0.00000000000E+00 -0.19373662323E+03  0.19373662323E+03  0.00000000000E+00 0.  1.
         23    2    1    2    0    0 -0.30089395380E+02 -0.99161038251E+02  0.23876266661E+02  0.14020957790E+03  0.91380339260E+02 0.  0.
         23    2    1    2    0    0  0.17764247823E+02  0.51098416989E+02  0.17560743235E+03  0.20513019722E+03  0.91180100874E+02 0.  0.
        -13    1    4    4    0    0  0.80211518022E+01 -0.25995197816E+02  0.59429001379E+02  0.65359738300E+02  0.00000000000E+00 0. -1.
         13    1    4    4    0    0  0.97430960210E+01  0.77093614806E+02  0.11617843097E+03  0.13977045892E+03  0.00000000000E+00 0.  1.
        -13    1    3    3    0    0 -0.49991332280E+02 -0.10259186662E+03  0.31869098803E+02  0.11848993146E+03  0.00000000000E+00 0. -1.
         13    1    3    3    0    0  0.19901936900E+02  0.34308283670E+01 -0.79928321413E+01  0.21719646436E+02  0.00000000000E+00 0.  1.
         21    1    1    2  502  501  0.12325147557E+02  0.48062621262E+02 -0.11571390416E+03  0.12590326620E+03  0.00000000000E+00 0.  1.
<scales pt_clust_5="13000.00000" pt_clust_6="13000.00000" pt_clust_7="13000.00000" pt_clust_8="13000.00000" pt_clust_9="49.61779"></scales>
<clustering>
<clus scale="   49.618">  2  9  1 -1</clus>
<clus scale="   91.180">  5  6 -1 -1</clus>
<clus scale="   91.380">  7  8 -1 -1</clus>
<clus scale="  111.464">  1  5  2 -1</clus>
<clus scale="  111.464">  1  5  2 -1</clus>
</clustering>
</event>
<event>
 9    1  0.1713970E-005  0.9777596E+02  0.7546771E-02  0.1286229E+00
          1   -1    0    0  502    0  0.00000000000E+00  0.00000000000E+00  0.31187959521E+03  0.31187959521E+03  0.00000000000E+00 0. -1.
         -1   -1    0    0    0  501 -0.00000000000E+00 -0.00000000000E+00 -0.92947666047E+02  0.92947666047E+02  0.00000000000E+00 0.  1.
         23    2    1    2    0    0  0.82313862893E+01  0.76371720694E+01 -0.41439087818E+02  0.10341577879E+03  0.94082640192E+02 0.  0.
         23    2    1    2    0    0  0.21167627050E+01 -0.28854092517E+02  0.26058579508E+03  0.27780453369E+03  0.91833343620E+02 0.  0.
        -11    1    4    4    0    0 -0.27640352222E+02 -0.48321034686E+02  0.19951584991E+03  0.20713639427E+03  0.00000000000E+00 0. -1.
         11    1    4    4    0    0  0.29757114927E+02  0.19466942169E+02  0.61069945171E+02  0.70668139422E+02  0.00000000000E+00 0.  1.
        -13    1    3    3    0    0  0.48112208033E+02  0.21067161213E+02 -0.20142832323E+02  0.56252498055E+02  0.00000000000E+00 0.  1.
         13    1    3    3    0    0 -0.39880821744E+02 -0.13429989143E+02 -0.21296255495E+02  0.47163280733E+02  0.00000000000E+00 0. -1.
         21    1    1    2  502  501 -0.10348148994E+02  0.21216920447E+02 -0.21477810656E+00  0.23606948776E+02  0.00000000000E+00 0.  1.
<scales pt_clust_5="13000.00000" pt_clust_6="13000.00000" pt_clust_7="13000.00000" pt_clust_8="13000.00000" pt_clust_9="23.60597"></scales>
<clustering>
<clus scale="   23.606">  2  9  1 -1</clus>
<clus scale="   91.833">  5  6 -1 -1</clus>
<clus scale="   94.083">  7  8 -1 -1</clus>
<clus scale="   95.614">  1  5  2 -1</clus>
<clus scale="   95.614">  1  5  2 -1</clus>
</clustering>
</event>
<event>
 9    1  0.1713970E-005  0.2542444E+03  0.7546771E-02  0.1110661E+00
          2   -1    0    0  502    0  0.00000000000E+00  0.00000000000E+00  0.65282455024E+03  0.65282455024E+03  0.00000000000E+00 0. -1.
         -2   -1    0    0    0  501 -0.00000000000E+00 -0.00000000000E+00 -0.30065989185E+03  0.30065989185E+03  0.00000000000E+00 0.  1.
         23    2    1    2    0    0  0.12183956704E+03 -0.22710272005E+03 -0.17967516368E+03  0.32699224192E+03  0.90665518708E+02 0.  0.
         23    2    1    2    0    0 -0.12907710388E+03  0.19675175234E+03  0.53844449646E+03  0.59459886380E+03  0.90847026763E+02 0.  0.
        -11    1    3    3    0    0  0.43349674869E+02 -0.82746600668E+02 -0.15456877211E+02  0.94684261028E+02  0.00000000000E+00 0. -1.
         11    1    3    3    0    0  0.78489892174E+02 -0.14435611938E+03 -0.16421828647E+03  0.23230798090E+03  0.00000000000E+00 0.  1.
        -11    1    4    4    0    0 -0.24779712476E+02  0.30485043308E+02  0.29525607824E+02  0.49144008112E+02  0.00000000000E+00 0.  1.
         11    1    4    4    0    0 -0.10429739141E+03  0.16626670903E+03  0.50891888864E+03  0.54545485569E+03  0.00000000000E+00 0. -1.
         21    1    1    2  502  501  0.72375368387E+01  0.30350967711E+02 -0.66046743918E+01  0.31893336362E+02  0.00000000000E+00 0.  1.
<scales pt_clust_5="13000.00000" pt_clust_6="13000.00000" pt_clust_7="13000.00000" pt_clust_8="13000.00000" pt_clust_9="31.20197"></scales>
<clustering>
<clus scale="   31.202">  2  9  1 -1</clus>
<clus scale="   90.666">  5  6 -1 -1</clus>
<clus scale="   90.847">  7  8 -1 -1</clus>
<clus scale="  254.180">  2  5  1 -1</clus>
<clus scale="  254.244">  1  5  2 -1</clus>
</clustering>
</event>
<event>
 9    1  0.1713970E-005  0.9761362E+02  0.7546771E-02  0.1285529E+00
          2   -1    0    0  502    0  0.00000000000E+00  0.00000000000E+00  0.46315280700E+02  0.46315280700E+02  0.00000000000E+00 0. -1.
         -2   -1    0    0    0  501 -0.00000000000E+00 -0.00000000000E+00 -0.35111991673E+03  0.35111991673E+03  0.00000000000E+00 0.  1.
         23    2    1    2    0    0 -0.52377877339E+02  0.56902170305E+00 -0.17439898118E+03  0.20344204632E+03  0.90718772878E+02 0.  0.
         23    2    1    2    0    0  0.22646575719E+02  0.22417656209E+02 -0.58237623701E+02  0.11262631280E+03  0.90981574061E+02 0.  0.
        -11    1    3    3    0    0  0.23571485015E+02  0.11244557595E+02 -0.28799876963E+02  0.38877858665E+02  0.00000000000E+00 0. -1.
         11    1    3    3    0    0 -0.75949362354E+02 -0.10675535892E+02 -0.14559910422E+03  0.16456418765E+03  0.00000000000E+00 0.  1.
        -11    1    4    4    0    0 -0.20112827857E+02  0.42048627970E+02 -0.15662192868E+02  0.49172321930E+02  0.00000000000E+00 0.  1.
         11    1    4    4    0    0  0.42759403576E+02 -0.19630971761E+02 -0.42575430833E+02  0.63453990868E+02  0.00000000000E+00 0. -1.
         21    1    1    2  502  501  0.29731301621E+02 -0.22986677912E+02 -0.72168031144E+02  0.81366838311E+02  0.00000000000E+00 0.  1.
<scales pt_clust_5="13000.00000" pt_clust_6="13000.00000" pt_clust_7="13000.00000" pt_clust_8="13000.00000" pt_clust_9="37.58108"></scales>
<clustering>
<clus scale="   37.581">  2  9  1 -1</clus>
<clus scale="   90.719">  5  6 -1 -1</clus>
<clus scale="   90.982">  7  8 -1 -1</clus>
<clus scale="   97.369">  2  5  1 -1</clus>
<clus scale="   97.614">  1  5  2 -1</clus>
</clustering>
</event>
<event>
 9    1  0.1713970E-005  0.1695992E+03  0.7546771E-02  0.1179306E+00
         -2   -1    0    0    0  501 -0.00000000000E+00  0.00000000000E+00  0.86800210539E+02  0.86800210539E+02  0.00000000000E+00 0.  1.
          2   -1    0    0  502    0  0.00000000000E+00 -0.00000000000E+00 -0.90530862301E+03  0.90530862301E+03  0.00000000000E+00 0. -1.
         23    2    1    2    0    0 -0.10211969462E+03 -0.86463770651E+02 -0.27977112850E+03  0.32336538523E+03  0.91590787526E+02 0.  0.
         23    2    1    2    0    0  0.92524842667E+02  0.11639920269E+03 -0.58688516097E+03  0.61124206281E+03  0.84101404780E+02 0.  0.
        -11    1    3    3    0    0 -0.25376175331E+02  0.13152629343E+02 -0.20391355167E+02  0.35110529740E+02  0.00000000000E+00 0. -1.
         11    1    3    3    0    0 -0.76743519287E+02 -0.99616399993E+02 -0.25937977333E+03  0.28825485549E+03  0.00000000000E+00 0.  1.
        -13    1    4    4    0    0  0.64962550014E+02  0.12367677742E+03 -0.52201080920E+03  0.54038075752E+03  0.00000000000E+00 0. -1.
         13    1    4    4    0    0  0.27562292653E+02 -0.72775747224E+01 -0.64874351767E+02  0.70861305290E+02  0.00000000000E+00 0.  1.
         21    1    1    2  502  501  0.95948519516E+01 -0.29935432044E+02  0.48147876998E+02  0.57501385506E+02  0.00000000000E+00 0. -1.
<scales pt_clust_5="13000.00000" pt_clust_6="13000.00000" pt_clust_7="13000.00000" pt_clust_8="13000.00000" pt_clust_9="31.43551"></scales>
<clustering>
<clus scale="   31.436">  1  9  2 -1</clus>
<clus scale="   84.101">  7  8 -1 -1</clus>
<clus scale="   91.591">  5  6 -1 -1</clus>
<clus scale="  165.675">  2  7  1 -1</clus>
<clus scale="  165.675">  2  5  1 -1</clus>
</clustering>
</event>
<event>
 9    1  0.1713970E-005  0.9992735E+02  0.7546771E-02  0.1282373E+00
          1   -1    0    0  502    0  0.00000000000E+00  0.00000000000E+00  0.25568552816E+03  0.25568552816E+03  0.00000000000E+00 0. -1.
         -1   -1    0    0    0  501 -0.00000000000E+00 -0.00000000000E+00 -0.10452771966E+03  0.10452771966E+03  0.00000000000E+00 0.  1.
         23    2    1    2    0    0  0.28789315760E+02  0.33144353709E+02 -0.16262598763E+02  0.10428764682E+03  0.93188348390E+02 0.  0.
         23    2    1    2    0    0 -0.32783903794E+02 -0.13250455649E+02  0.19750720614E+03  0.21963594158E+03  0.89333596340E+02 0.  0.
        -11    1    4    4    0    0 -0.60331982732E+02  0.81210735950E+01  0.13421804422E+03  0.14737836806E+03  0.00000000000E+00 0. -1.
         11    1    4    4    0    0  0.27548078938E+02 -0.21371529244E+02  0.63289161916E+02  0.72257573523E+02  0.00000000000E+00 0.  1.
        -13    1    3    3    0    0  0.49322544884E+02  0.54272710356E+02 -0.85538800075E+01  0.73833660253E+02  0.00000000000E+00 0.  1.
         13    1    3    3    0    0 -0.20533229124E+02 -0.21128356647E+02 -0.77087187557E+01  0.30453986565E+02  0.00000000000E+00 0. -1.
         21    1    1    2  502  501  0.39945880345E+01 -0.19893898060E+02 -0.30086798876E+02  0.36289659411E+02  0.00000000000E+00 0. -1.
<scales pt_clust_5="13000.00000" pt_clust_6="13000.00000" pt_clust_7="13000.00000" pt_clust_8="13000.00000" pt_clust_9="20.29098"></scales>
<clustering>
<clus scale="   20.291">  2  9  1 -1</clus>
<clus scale="   89.334">  5  6 -1 -1</clus>
<clus scale="   93.188">  7  8 -1 -1</clus>
<clus scale="   96.343">  1  5  2 -1</clus>
<clus scale="   96.343">  1  5  2 -1</clus>
</clustering>
</event>
<event>
 9    1  0.1713970E-005  0.1021211E+03  0.7546771E-02  0.1277548E+00
          1   -1    0    0  502    0  0.00000000000E+00  0.00000000000E+00  0.15041923742E+03  0.15041923742E+03  0.00000000000E+00 0. -1.
         -1   -1    0    0    0  501 -0.00000000000E+00 -0.00000000000E+00 -0.16626867549E+03  0.16626867549E+03  0.00000000000E+00 0.  1.
         23    2    1    2    0    0  0.10049058821E+02 -0.69370305120E+02 -0.53851283537E+02  0.12837656143E+03  0.93098646454E+02 0.  0.
         23    2    1    2    0    0 -0.30119592622E+02 -0.15947738569E+02  0.29234614514E+02  0.10022696441E+03  0.89606146457E+02 0.  0.
        -11    1    3    3    0    0  0.76341985166E+00 -0.47139845989E+02 -0.79976587686E+02  0.92838582861E+02  0.00000000000E+00 0.  1.
         11    1    3    3    0    0  0.92856389694E+01 -0.22230459131E+02  0.26125304149E+02  0.35537978574E+02  0.00000000000E+00 0. -1.
        -13    1    4    4    0    0 -0.26017550118E+02  0.35057985159E+02  0.20825490316E+02  0.48370200377E+02  0.00000000000E+00 0.  1.
         13    1    4    4    0    0 -0.41020425042E+01 -0.51005723728E+02  0.84091241978E+01  0.51856764029E+02  0.00000000000E+00 0. -1.
         21    1    1    2  502  501  0.20070533801E+02  0.85318043689E+02  0.87672309550E+01  0.88084387065E+02  0.00000000000E+00 0.  1.
<scales pt_clust_5="13000.00000" pt_clust_6="13000.00000" pt_clust_7="13000.00000" pt_clust_8="13000.00000" pt_clust_9="87.64699"></scales>
<clustering>
<clus scale="   87.647">  1  9  2 -1</clus>
<clus scale="   89.606">  7  8 -1 -1</clus>
<clus scale="   93.099">  5  6 -1 -1</clus>
<clus scale="   98.948">  1  7  2 -1</clus>
<clus scale="   87.647">  1  5  2 -1</clus>
</clustering>
</event>
<event>
 9    1  0.1713970E-005  0.9273410E+02  0.7546771E-02  0.1296366E+00
         -3   -1    0    0    0  501 -0.00000000000E+00  0.00000000000E+00  0.54149326795E+02  0.54149326795E+02  0.00000000000E+00 0.  1.
          3   -1    0    0  502    0  0.00000000000E+00 -0.00000000000E+00 -0.27262438734E+03  0.27262438734E+03  0.00000000000E+00 0. -1.
         23    2    1    2    0    0 -0.21931394809E+02 -0.30447197017E+02 -0.67430746177E+02  0.11905549695E+03  0.90660288660E+02 0.  0.
         23    2    1    2    0    0 -0.13707839938E+02  0.13463055247E+02 -0.13783036788E+03  0.16608620418E+03  0.90654609235E+02 0.  0.
        -11    1    4    4    0    0  0.33612367385E+02  0.26921991535E+02 -0.72126862672E+02  0.84005173581E+02  0.00000000000E+00 0. -1.
         11    1    4    4    0    0 -0.47320207323E+02 -0.13458936288E+02 -0.65703505208E+02  0.82081030596E+02  0.00000000000E+00 0.  1.
        -13    1    3    3    0    0 -0.19683391942E+02  0.23924168119E+02  0.17581184420E+01  0.31030512709E+02  0.00000000000E+00 0. -1.
         13    1    3    3    0    0 -0.22480028678E+01 -0.54371365136E+02 -0.69188864619E+02  0.88024984242E+02  0.00000000000E+00 0.  1.
         21    1    1    2  502  501  0.35639234748E+02  0.16984141770E+02 -0.13213946487E+02  0.41632013005E+02  0.00000000000E+00 0. -1.
<scales pt_clust_5="13000.00000" pt_clust_6="13000.00000" pt_clust_7="13000.00000" pt_clust_8="13000.00000" pt_clust_9="39.47931"></scales>
<clustering>
<clus scale="   39.479">  1  9  2 -1</clus>
<clus scale="   90.655">  5  6 -1 -1</clus>
<clus scale="   90.660">  7  8 -1 -1</clus>
<clus scale="   92.729">  2  5  1 -1</clus>
<clus scale="   92.729">  2  5  1 -1</clus>
</clustering>
</event>
<event>
 9    1  0.1713970E-005  0.8930216E+02  0.7546771E-02  0.1304858E+00
          1   -1    0    0  502    0  0.00000000000E+00  0.00000000000E+00  0.46538233965E+03  0.46538233965E+03  0.00000000000E+00 0. -1.
         -1   -1    0    0    0  501 -0.00000000000E+00 -0.00000000000E+00 -0.37706342169E+02  0.37706342169E+02  0.00000000000E+00 0.  1.
         23    2    1    2    0    0  0.27001350739E+01 -0.18317516340E+02  0.14692156940E+03  0.17250219102E+03  0.88477320356E+02 0.  0.
         23    2    1    2    0    0 -0.82923447937E+01 -0.33471445701E+01  0.29211174434E+03  0.30549428137E+03  0.88980438348E+02 0.  0.
        -13    1    3    3    0    0  0.15348828619E+02  0.23754569822E+02  0.12204736535E+02  0.30802949880E+02  0.00000000000E+00 0.  1.
         13    1    3    3    0    0 -0.12648693545E+02 -0.42072086162E+02  0.13471683286E+03  0.14169924114E+03  0.00000000000E+00 0. -1.
        -13    1    4    4    0    0  0.40090063325E+02 -0.77527592502E+01  0.13602201319E+03  0.14201868372E+03  0.00000000000E+00 0.  1.
         13    1    4    4    0    0 -0.48382408118E+02  0.44056146800E+01  0.15608973115E+03  0.16347559765E+03  0.00000000000E+00 0. -1.
         21    1    1    2  502  501  0.55922097197E+01  0.21664660910E+02 -0.11357316254E+02  0.25092209436E+02  0.00000000000E+00 0.  1.
<scales pt_clust_5="13000.00000" pt_clust_6="13000.00000" pt_clust_7="13000.00000" pt_clust_8="13000.00000" pt_clust_9="22.37477"></scales>
<clustering>
<clus scale="   22.375">  2  9  1 -1</clus>
<clus scale="   88.477">  5  6 -1 -1</clus>
<clus scale="   88.801">  2  5  1 -1</clus>
<clus scale="   88.980">  7  8 -1 -1</clus>
<clus scale="   89.302">  1  5  2 -1</clus>
</clustering>
</event>
<event>
 9    1  0.1713970E-005  0.1106941E+03  0.7546771E-02  0.1260861E+00
         -1   -1    0    0    0  501 -0.00000000000E+00  0.00000000000E+00  0.57848318323E+03  0.57848318323E+03  0.00000000000E+00 0.  1.
          1   -1    0    0  502    0  0.00000000000E+00 -0.00000000000E+00 -0.78325214330E+02  0.78325214330E+02  0.00000000000E+00 0. -1.
         23    2    1    2    0    0  0.17492202589E+02 -0.53661813065E+02  0.42634559886E+03  0.43969328727E+03  0.91509834817E+02 0.  0.
         23    2    1    2    0    0  0.22180940736E+02  0.60028685607E+02 -0.24361853714E+02  0.11103649050E+03  0.87408037837E+02 0.  0.
        -11    1    3    3    0    0 -0.25524219188E+02 -0.58882919313E+02  0.25211573844E+03  0.26015577934E+03  0.00000000000E+00 0.  1.
         11    1    3    3    0    0  0.43016421777E+02  0.52211062482E+01  0.17422986042E+03  0.17953750793E+03  0.00000000000E+00 0. -1.
        -11    1    4    4    0    0  0.10530270926E+01  0.76545274532E+02 -0.27627008809E+01  0.76602352675E+02  0.00000000000E+00 0. -1.
         11    1    4    4    0    0  0.21127913644E+02 -0.16516588925E+02 -0.21599152833E+02  0.34434137825E+02  0.00000000000E+00 0.  1.
         21    1    1    2  502  501 -0.39673143326E+02 -0.63668725420E+01  0.98174223757E+02  0.10607861979E+03  0.00000000000E+00 0.  1.
<scales pt_clust_5="13000.00000" pt_clust_6="13000.00000" pt_clust_7="13000.00000" pt_clust_8="13000.00000" pt_clust_9="40.18078"></scales>
<clustering>
<clus scale="   40.181">  1  9  2 -1</clus>
<clus scale="   87.408">  7  8 -1 -1</clus>
<clus scale="   91.510">  5  6 -1 -1</clus>
<clus scale="  107.328">  2  7  1 -1</clus>
<clus scale="  107.328">  2  5  1 -1</clus>
</clustering>
</event>
<event>
 9    1  0.1713970E-005  0.9818316E+02  0.7546771E-02  0.1284444E+00
         -1   -1    0    0    0  501 -0.00000000000E+00  0.00000000000E+00  0.10079858382E+03  0.10079858382E+03  0.00000000000E+00 0.  1.
          1   -1    0    0  502    0  0.00000000000E+00 -0.00000000000E+00 -0.16391641049E+03  0.16391641049E+03  0.00000000000E+00 0. -1.
         23    2    1    2    0    0 -0.73498926504E+01  0.49456457432E+02 -0.10583072303E+02  0.10432607342E+03  0.90950349493E+02 0.  0.
         23    2    1    2    0    0  0.13951452208E+02 -0.25875342152E+02 -0.78940710709E+02  0.12437608822E+03  0.91507372187E+02 0.  0.
        -13    1    3    3    0    0 -0.13843639265E+01 -0.21058807326E+02 -0.24359931341E+02  0.32230359669E+02  0.00000000000E+00 0. -1.
         13    1    3    3    0    0 -0.59655287239E+01  0.70515264758E+02  0.13776859039E+02  0.72095713755E+02  0.00000000000E+00 0.  1.
        -13    1    4    4    0    0 -0.59892835337E+01  0.33204402363E+02 -0.26545139444E+02  0.42930738191E+02  0.00000000000E+00 0.  1.
         13    1    4    4    0    0  0.19940735742E+02 -0.59079744515E+02 -0.52395571265E+02  0.81445350033E+02  0.00000000000E+00 0. -1.
         21    1    1    2  502  501 -0.66015595574E+01 -0.23581115280E+02  0.26405956337E+02  0.36012832664E+02  0.00000000000E+00 0.  1.
<scales pt_clust_5="13000.00000" pt_clust_6="13000.00000" pt_clust_7="13000.00000" pt_clust_8="13000.00000" pt_clust_9="24.48774"></scales>
<clustering>
<clus scale="   24.488">  1  9  2 -1</clus>
<clus scale="   90.950">  5  6 -1 -1</clus>
<clus scale="   91.507">  7  8 -1 -1</clus>
<clus scale="   97.664">  1  5  2 -1</clus>
<clus scale="   98.183">  2  5  1 -1</clus>
</clustering>
</event>
<event>
 9    1  0.1713970E-005  0.1438034E+03  0.7546771E-02  0.1208318E+00
          2   -1    0    0  502    0  0.00000000000E+00  0.00000000000E+00  0.15750609950E+03  0.15750609950E+03  0.00000000000E+00 0. -1.
         -2   -1    0    0    0  501 -0.00000000000E+00 -0.00000000000E+00 -0.24960493936E+03  0.24960493936E+03  0.00000000000E+00 0.  1.
         23    2    1    2    0    0 -0.64520750684E+02 -0.28437174878E+02 -0.10713734568E+03  0.15745191972E+03  0.91329600891E+02 0.  0.
         23    2    1    2    0    0  0.12097380680E+03  0.38007846813E+02  0.69181652733E+02  0.17085540309E+03  0.91248064861E+02 0.  0.
        -11    1    3    3    0    0 -0.86684922011E+02 -0.13903436198E+02 -0.90875842696E+02  0.12635663824E+03  0.00000000000E+00 0.  1.
         11    1    3    3    0    0  0.22164171327E+02 -0.14533738680E+02 -0.16261502984E+02  0.31095281473E+02  0.00000000000E+00 0. -1.
        -11    1    4    4    0    0  0.25489406879E+02  0.34562658478E+02 -0.12955487428E+02  0.44856793004E+02  0.00000000000E+00 0.  1.
         11    1    4    4    0    0  0.95484399918E+02  0.34451883342E+01  0.82137140162E+02  0.12599861009E+03  0.00000000000E+00 0. -1.
         21    1    1    2  502  501 -0.56453056113E+02 -0.95706719346E+01 -0.54143146913E+02  0.78803716051E+02  0.00000000000E+00 0.  1.
<scales pt_clust_5="13000.00000" pt_clust_6="13000.00000" pt_clust_7="13000.00000" pt_clust_8="13000.00000" pt_clust_9="57.25858"></scales>
<clustering>
<clus scale="   57.259">  2  9  1 -1</clus>
<clus scale="   91.248">  7  8 -1 -1</clus>
<clus scale="   91.330">  5  6 -1 -1</clus>
<clus scale="  143.752">  1  7  2 -1</clus>
<clus scale="  143.752">  1  5  2 -1</clus>
</clustering>
</event>
<event>
 9    1  0.1713970E-005  0.1397526E+03  0.7546771E-02  0.1214011E+00
          1   -1    0    0  502    0  0.00000000000E+00  0.00000000000E+00  0.11883607633E+03  0.11883607633E+03  0.00000000000E+00 0. -1.
         -1   -1    0    0    0  501 -0.00000000000E+00 -0.00000000000E+00 -0.35405515900E+03  0.35405515900E+03  0.00000000000E+00 0.  1.
         23    2    1    2    0    0  0.18146969315E+02  0.11650564922E+03 -0.14927684335E+03  0.21194925699E+03  0.93466746931E+02 0.  0.
         23    2    1    2    0    0  0.32621164716E+02 -0.97191035981E+02  0.22631164067E+02  0.13953917096E+03  0.91917206136E+02 0.  0.
        -11    1    3    3    0    0  0.56477325161E+02  0.62536843184E+02 -0.83050614176E+02  0.11831293052E+03  0.00000000000E+00 0. -1.
         11    1    3    3    0    0 -0.38330355846E+02  0.53968806038E+02 -0.66226229175E+02  0.93636326472E+02  0.00000000000E+00 0.  1.
        -13    1    4    4    0    0  0.34541669932E+02 -0.58376885119E+02  0.56276540846E+02  0.88136466502E+02  0.00000000000E+00 0. -1.
         13    1    4    4    0    0 -0.19205052155E+01 -0.38814150862E+02 -0.33645376779E+02  0.51402704462E+02  0.00000000000E+00 0.  1.
         21    1    1    2  502  501 -0.50768134032E+02 -0.19314613241E+02 -0.10857340338E+03  0.12140280738E+03  0.00000000000E+00 0.  1.
<scales pt_clust_5="13000.00000" pt_clust_6="13000.00000" pt_clust_7="13000.00000" pt_clust_8="13000.00000" pt_clust_9="54.31812"></scales>
<clustering>
<clus scale="   54.318">  2  9  1 -1</clus>
<clus scale="   91.917">  7  8 -1 -1</clus>
<clus scale="   93.467">  5  6 -1 -1</clus>
<clus scale="  138.721">  1  7  2 -1</clus>
<clus scale="  138.721">  1  5  2 -1</clus>
</clustering>
</event>
<event>
 9    1  0.1713970E-005  0.9633616E+02  0.7546771E-02  0.1289944E+00
         -1   -1    0    0    0  501 -0.00000000000E+00  0.00000000000E+00  0.12352754862E+03  0.12352754862E+03  0.00000000000E+00 0.  1.
          1   -1    0    0  502    0  0.00000000000E+00 -0.00000000000E+00 -0.99500440186E+02  0.99500440186E+02  0.00000000000E+00 0. -1.
         23    2    1    2    0    0 -0.18097331181E+02 -0.22795783641E+02  0.29305309047E+02  0.10207116453E+03  0.93341096752E+02 0.  0.
         23    2    1    2    0    0 -0.68931275011E+01  0.24238913410E+02 -0.13620383426E+02  0.94571266428E+02  0.90128627301E+02 0.  0.
        -11    1    4    4    0    0 -0.21577848291E+02  0.40731695954E+02  0.23225294755E+02  0.51614812880E+02  0.00000000000E+00 0.  1.
         11    1    4    4    0    0  0.14684720790E+02 -0.16492782544E+02 -0.36845678182E+02  0.42956453548E+02  0.00000000000E+00 0. -1.
        -13    1    3    3    0    0 -0.30333196258E+02 -0.54767831931E+02  0.25597047550E+02  0.67637467818E+02  0.00000000000E+00 0. -1.
         13    1    3    3    0    0  0.12235865077E+02  0.31972048290E+02  0.37082614970E+01  0.34433696713E+02  0.00000000000E+00 0.  1.
         21    1    1    2  502  501  0.24990458682E+02 -0.14431297687E+01  0.83421828119E+01  0.26385557844E+02  0.00000000000E+00 0.  1.
<scales pt_clust_5="13000.00000" pt_clust_6="13000.00000" pt_clust_7="13000.00000" pt_clust_8="13000.00000" pt_clust_9="25.03209"></scales>
<clustering>
<clus scale="   25.032">  1  9  2 -1</clus>
<clus scale="   90.129">  5  6 -1 -1</clus>
<clus scale="   93.227">  2  5  1 -1</clus>
<clus scale="   93.341">  7  8 -1 -1</clus>
<clus scale="   93.227">  2  5  1 -1</clus>
</clustering>
</event>
<event>
 9    1  0.1713970E-005  0.9895449E+02  0.7546771E-02  0.1283010E+00
          1   -1    0    0  502    0  0.00000000000E+00  0.00000000000E+00  0.73891263349E+02  0.73891263349E+02  0.00000000000E+00 0. -1.
         -1   -1    0    0    0  501 -0.00000000000E+00 -0.00000000000E+00 -0.30679030877E+03  0.30679030877E+03  0.00000000000E+00 0.  1.
         23    2    1    2    0    0  0.44051998283E+02  0.29598079514E+02 -0.16793134833E+03  0.19793200516E+03  0.90330039581E+02 0.  0.
         23    2    1    2    0    0 -0.33256945265E+02 -0.10867608165E+02  0.15851235845E+02  0.99089160271E+02  0.91341505844E+02 0.  0.
        -13    1    4    4    0    0 -0.77190038915E+01 -0.49385461756E+02  0.17180405603E+02  0.52855209682E+02  0.00000000000E+00 0.  1.
         13    1    4    4    0    0 -0.25537941374E+02  0.38517853590E+02 -0.13291697584E+01  0.46233950589E+02  0.00000000000E+00 0. -1.
        -13    1    3    3    0    0 -0.15833303787E+02  0.40473964536E+02 -0.79025400197E+02  0.90187855004E+02  0.00000000000E+00 0. -1.
         13    1    3    3    0    0  0.59885302069E+02 -0.10875885022E+02 -0.88905948129E+02  0.10774415015E+03  0.00000000000E+00 0.  1.
         21    1    1    2  502  501 -0.10795053017E+02 -0.18730471349E+02 -0.80818932939E+02  0.83660406693E+02  0.00000000000E+00 0. -1.
<scales pt_clust_5="13000.00000" pt_clust_6="13000.00000" pt_clust_7="13000.00000" pt_clust_8="13000.00000" pt_clust_9="21.61860"></scales>
<clustering>
<clus scale="   21.619">  2  9  1 -1</clus>
<clus scale="   90.330">  7  8 -1 -1</clus>
<clus scale="   91.342">  5  6 -1 -1</clus>
<clus scale="   98.022">  2  7  1 -1</clus>
<clus scale="   98.954">  1  5  2 -1</clus>
</clustering>
</event>
<event>
 9    1  0.1713970E-005  0.1033659E+03  0.7546771E-02  0.1278593E+00
         -3   -1    0    0    0  501 -0.00000000000E+00  0.00000000000E+00  0.34417650895E+03  0.34417650895E+03  0.00000000000E+00 0.  1.
          3   -1    0    0  502    0  0.00000000000E+00 -0.00000000000E+00 -0.65441037125E+02  0.65441037125E+02  0.00000000000E+00 0. -1.
         23    2    1    2    0    0 -0.35317777751E+02 -0.21546708612E+02  0.25343276290E+03  0.27265004170E+03  0.91642096471E+02 0.  0.
         23    2    1    2    0    0  0.49480196758E+02  0.28328002528E+01 -0.95852772070E+01  0.94920434870E+02  0.80384680060E+02 0.  0.
        -11    1    3    3    0    0 -0.57803092970E+02 -0.38713542028E+00  0.21855140265E+03  0.22606650135E+03  0.00000000000E+00 0.  1.
         11    1    3    3    0    0  0.22485315219E+02 -0.21159573192E+02  0.34881360252E+02  0.46583540346E+02  0.00000000000E+00 0. -1.
        -13    1    4    4    0    0 -0.17004588784E+02  0.15806144907E+02 -0.13874401727E+02  0.27046058489E+02  0.00000000000E+00 0.  1.
         13    1    4    4    0    0  0.66484785541E+02 -0.12973344654E+02  0.42891245205E+01  0.67874376381E+02  0.00000000000E+00 0. -1.
         21    1    1    2  502  501 -0.14162419007E+02  0.18713908359E+02  0.34887986124E+02  0.42047069505E+02  0.00000000000E+00 0. -1.
<scales pt_clust_5="13000.00000" pt_clust_6="13000.00000" pt_clust_7="13000.00000" pt_clust_8="13000.00000" pt_clust_9="23.46880"></scales>
<clustering>
<clus scale="   23.469">  1  9  2 -1</clus>
<clus scale="   80.385">  7  8 -1 -1</clus>
<clus scale="   91.642">  5  6 -1 -1</clus>
<clus scale="   93.530">  2  7  1 -1</clus>
<clus scale="   93.530">  2  5  1 -1</clus>
</clustering>
</event>
<event>
 9    1  0.1713970E-005  0.9817482E+02  0.7546771E-02  0.1285591E+00
         -2   -1    0    0    0  501 -0.00000000000E+00  0.00000000000E+00  0.24871369270E+02  0.24871369270E+02  0.00000000000E+00 0.  1.
          2   -1    0    0  502    0  0.00000000000E+00 -0.00000000000E+00 -0.59519941281E+03  0.59519941281E+03  0.00000000000E+00 0. -1.
         23    2    1    2    0    0  0.17390932072E+02 -0.34971666795E+01 -0.19131136305E+03  0.21230388633E+03  0.90322908641E+02 0.  0.
         23    2    1    2    0    0 -0.37730417442E+02 -0.21044656517E+02 -0.34978105362E+03  0.36451510239E+03  0.93048441291E+02 0.  0.
        -11    1    4    4    0    0 -0.65112864292E+02 -0.32607777537E+02 -0.25315726962E+03  0.26342276935E+03  0.00000000000E+00 0.  1.
         11    1    4    4    0    0  0.27382446851E+02  0.11563121020E+02 -0.96623784002E+02  0.10109233303E+03  0.00000000000E+00 0. -1.
        -13    1    3    3    0    0 -0.17376327354E+02 -0.15534976497E+02 -0.69718683535E+01  0.24328567476E+02  0.00000000000E+00 0.  1.
         13    1    3    3    0    0  0.34767259425E+02  0.12037809818E+02 -0.18433949470E+03  0.18797531885E+03  0.00000000000E+00 0. -1.
         21    1    1    2  502  501  0.20339485370E+02  0.24541823196E+02 -0.29235626869E+02  0.43251793365E+02  0.00000000000E+00 0. -1.
<scales pt_clust_5="13000.00000" pt_clust_6="13000.00000" pt_clust_7="13000.00000" pt_clust_8="13000.00000" pt_clust_9="31.87469"></scales>
<clustering>
<clus scale="   31.875">  1  9  2 -1</clus>
<clus scale="   90.323">  7  8 -1 -1</clus>
<clus scale="   93.048">  5  6 -1 -1</clus>
<clus scale="   95.596">  1  7  2 -1</clus>
<clus scale="   98.175">  2  5  1 -1</clus>
</clustering>
</event>
<event>
 9    1  0.1713970E-005  0.9576732E+02  0.7546771E-02  0.1289700E+00
         -1   -1    0    0    0  501 -0.00000000000E+00  0.00000000000E+00  0.30082271820E+03  0.30082271820E+03  0.00000000000E+00 0.  1.
          1   -1    0    0  502    0  0.00000000000E+00 -0.00000000000E+00 -0.65869216446E+02  0.65869216446E+02  0.00000000000E+00 0. -1.
         23    2    1    2    0    0  0.31193299885E+02  0.48764181574E+02  0.11856984542E+03  0.16024464641E+03  0.90931683689E+02 0.  0.
         23    2    1    2    0    0 -0.28932524666E+02  0.22830753970E+02  0.54985030069E+02  0.11210356980E+03  0.90473877560E+02 0.  0.
        -11    1    4    4    0    0  0.11267571290E+01  0.53715395643E+02  0.23047724937E+02  0.58462046966E+02  0.00000000000E+00 0.  1.
         11    1    4    4    0    0 -0.30059281795E+02 -0.30884641673E+02  0.31937305132E+02  0.53641522838E+02  0.00000000000E+00 0. -1.
        -11    1    3    3    0    0  0.11671127243E+01 -0.25818191960E+02  0.41387574453E+02  0.48794185179E+02  0.00000000000E+00 0. -1.
         11    1    3    3    0    0  0.30026187160E+02  0.74582373534E+02  0.77182270964E+02  0.11145046123E+03  0.00000000000E+00 0.  1.
         21    1    1    2  502  501 -0.22607752189E+01 -0.71594935544E+02  0.61398626271E+02  0.94343718435E+02  0.00000000000E+00 0.  1.
<scales pt_clust_5="13000.00000" pt_clust_6="13000.00000" pt_clust_7="13000.00000" pt_clust_8="13000.00000" pt_clust_9="71.63062"></scales>
<clustering>
<clus scale="   71.631">  1  9  2 -1</clus>
<clus scale="   90.474">  5  6 -1 -1</clus>
<clus scale="   90.932">  7  8 -1 -1</clus>
<clus scale="   95.333">  2  5  1 -1</clus>
<clus scale="   95.333">  2  5  1 -1</clus>
</clustering>
</event>
<event>
 9    1  0.1713970E-005  0.9033772E+02  0.7546771E-02  0.1303789E+00
         -2   -1    0    0    0  501 -0.00000000000E+00  0.00000000000E+00  0.18246304573E+03  0.18246304573E+03  0.00000000000E+00 0.  1.
          2   -1    0    0  502    0  0.00000000000E+00 -0.00000000000E+00 -0.64795568342E+02  0.64795568342E+02  0.00000000000E+00 0. -1.
         23    2    1    2    0    0  0.18829070674E+02 -0.93323774372E+01  0.67821485897E+02  0.11252037904E+03  0.87289487221E+02 0.  0.
         23    2    1    2    0    0  0.13592818265E+02  0.32393788262E+01  0.29066965844E+02  0.95750141705E+02  0.90155104401E+02 0.  0.
        -13    1    3    3    0    0  0.12131862539E+02  0.28334287924E+02 -0.40634262696E+01  0.31088991522E+02  0.00000000000E+00 0. -1.
         13    1    3    3    0    0  0.66972081344E+01 -0.37666665361E+02  0.71884912166E+02  0.81431387519E+02  0.00000000000E+00 0.  1.
        -13    1    4    4    0    0  0.30594386256E+02  0.39598528923E+02  0.23303573228E+02  0.55200692826E+02  0.00000000000E+00 0. -1.
         13    1    4    4    0    0 -0.17001567991E+02 -0.36359150097E+02  0.57633926160E+01  0.40549448879E+02  0.00000000000E+00 0.  1.
         21    1    1    2  502  501 -0.32421888939E+02  0.60929986109E+01  0.20779025651E+02  0.38988093329E+02  0.00000000000E+00 0.  1.
<scales pt_clust_5="13000.00000" pt_clust_6="13000.00000" pt_clust_7="13000.00000" pt_clust_8="13000.00000" pt_clust_9="32.98945"></scales>
<clustering>
<clus scale="   32.989">  1  9  2 -1</clus>
<clus scale="   87.289">  5  6 -1 -1</clus>
<clus scale="   87.478">  1  5  2 -1</clus>
<clus scale="   90.155">  7  8 -1 -1</clus>
<clus scale="   90.338">  2  5  1 -1</clus>
</clustering>
</event>
<event>
 9    1  0.1713970E-005  0.1867171E+03  0.7546771E-02  0.1179393E+00
          2   -1    0    0  502    0  0.00000000000E+00  0.00000000000E+00  0.11774673294E+04  0.11774673294E+04  0.00000000000E+00 0. -1.
         -2   -1    0    0    0  501 -0.00000000000E+00 -0.00000000000E+00 -0.52324503848E+02  0.52324503848E+02  0.00000000000E+00 0.  1.
         23    2    1    2    0    0 -0.11593189598E+03 -0.13191271792E+03  0.58487346892E+03  0.62002764296E+03  0.10731325049E+03 0.  0.
         23    2    1    2    0    0  0.19888729653E+02  0.23874884041E+02  0.34666618487E+03  0.36814744530E+03  0.11995635077E+03 0.  0.
        -11    1    4    4    0    0 -0.41602177057E+02 -0.22065839554E+02  0.13771581333E+03  0.14554479604E+03  0.00000000000E+00 0. -1.
         11    1    4    4    0    0  0.61490906710E+02  0.45940723594E+02  0.20895037154E+03  0.22260264926E+03  0.00000000000E+00 0.  1.
        -13    1    3    3    0    0 -0.80128804297E+02 -0.12206919861E+03  0.55012089487E+03  0.56917002161E+03  0.00000000000E+00 0. -1.
         13    1    3    3    0    0 -0.35803091679E+02 -0.98435193082E+01  0.34752574057E+02  0.50857621353E+02  0.00000000000E+00 0.  1.
         21    1    1    2  502  501  0.96043166324E+02  0.10803783388E+03  0.19360317178E+03  0.24161674501E+03  0.00000000000E+00 0.  1.
<scales pt_clust_5="13000.00000" pt_clust_6="13000.00000" pt_clust_7="13000.00000" pt_clust_8="13000.00000" pt_clust_9="152.79772"></scales>
<clustering>
<clus scale="  107.313">  7  8 -1 -1</clus>
<clus scale="  119.956">  5  6 -1 -1</clus>
<clus scale="  123.916">  1  5  2 -1</clus>
<clus scale="  152.798">  2  9  1 -1</clus>
<clus scale="  123.916">  1  5  2 -1</clus>
</clustering>
</event>
<event>
 9    1  0.1713970E-005  0.1043743E+03  0.7546771E-02  0.1273377E+00
         -2   -1    0    0    0  501 -0.00000000000E+00  0.00000000000E+00  0.20329875516E+03  0.20329875516E+03  0.00000000000E+00 0.  1.
          2   -1    0    0  502    0  0.00000000000E+00 -0.00000000000E+00 -0.15264115778E+03  0.15264115778E+03  0.00000000000E+00 0. -1.
         23    2    1    2    0    0  0.21312734860E+02 -0.23364828667E+01  0.66501195710E+02  0.11198609380E+03  0.87514480826E+02 0.  0.
         23    2    1    2    0    0 -0.41063312855E+02  0.40486892258E+02 -0.10115804922E+03  0.14843369247E+03  0.92055559488E+02 0.  0.
        -11    1    4    4    0    0  0.17013455928E+02 -0.14845568310E+02 -0.48500118950E+01  0.23094830513E+02  0.00000000000E+00 0.  1.
         11    1    4    4    0    0 -0.58076768783E+02  0.55332460568E+02 -0.96308037321E+02  0.12533886196E+03  0.00000000000E+00 0. -1.
        -11    1    3    3    0    0  0.42021039499E+02 -0.31378809084E+02  0.27808451456E+02  0.59360823718E+02  0.00000000000E+00 0.  1.
         11    1    3    3    0    0 -0.20708304639E+02  0.29042326218E+02  0.38692744254E+02  0.52625270081E+02  0.00000000000E+00 0. -1.
         21    1    1    2  502  501  0.19750577995E+02 -0.38150409392E+02  0.85314450890E+02  0.95520126668E+02  0.00000000000E+00 0.  1.
<scales pt_clust_5="13000.00000" pt_clust_6="13000.00000" pt_clust_7="13000.00000" pt_clust_8="13000.00000" pt_clust_9="42.95974"></scales>
<clustering>
<clus scale="   42.960">  1  9  2 -1</clus>
<clus scale="   87.514">  7  8 -1 -1</clus>
<clus scale="   92.056">  5  6 -1 -1</clus>
<clus scale="  100.392">  1  7  2 -1</clus>
<clus scale="  104.374">  2  5  1 -1</clus>
</clustering>
</event>
<event>
 9    1  0.1713970E-005  0.9696497E+02  0.7546771E-02  0.1287224E+00
          1   -1    0    0  502    0  0.00000000000E+00  0.00000000000E+00  0.43136394577E+03  0.43136394577E+03  0.00000000000E+00 0. -1.
         -1   -1    0    0    0  501 -0.00000000000E+00 -0.00000000000E+00 -0.31266691545E+02  0.31266691545E+02  0.00000000000E+00 0.  1.
         23    2    1    2    0    0 -0.12904705610E+02 -0.23523098461E+02  0.11007226644E+03  0.14509369599E+03  0.90644410689E+02 0.  0.
         23    2    1    2    0    0  0.10554678800E+02  0.49351620693E+02  0.24007794037E+03  0.26125779126E+03  0.89840037455E+02 0.  0.
        -11    1    3    3    0    0 -0.51109360601E+02 -0.22614119319E+02  0.58508479804E+02  0.80912343574E+02  0.00000000000E+00 0.  1.
         11    1    3    3    0    0  0.38204654991E+02 -0.90897914271E+00  0.51563786632E+02  0.64181352415E+02  0.00000000000E+00 0. -1.
        -13    1    4    4    0    0 -0.74441594590E+01 -0.21903364185E+02  0.25436425152E+02  0.34382911413E+02  0.00000000000E+00 0.  1.
         13    1    4    4    0    0  0.17998838259E+02  0.71254984878E+02  0.21464151522E+03  0.22687487984E+03  0.00000000000E+00 0. -1.
         21    1    1    2  502  501  0.23500268097E+01 -0.25828522232E+02  0.49947047414E+02  0.56279150065E+02  0.00000000000E+00 0.  1.
<scales pt_clust_5="13000.00000" pt_clust_6="13000.00000" pt_clust_7="13000.00000" pt_clust_8="13000.00000" pt_clust_9="25.93521"></scales>
<clustering>
<clus scale="   25.935">  1  9  2 -1</clus>
<clus scale="   89.840">  7  8 -1 -1</clus>
<clus scale="   90.644">  5  6 -1 -1</clus>
<clus scale="   96.213">  1  7  2 -1</clus>
<clus scale="   25.935">  1  5  2 -1</clus>
</clustering>
</event>
<event>
 9    1  0.1713970E-005  0.9218384E+02  0.7546771E-02  0.1298676E+00
         -2   -1    0    0    0  501 -0.00000000000E+00  0.00000000000E+00  0.10297315459E+03  0.10297315459E+03  0.00000000000E+00 0.  1.
          2   -1    0    0  502    0  0.00000000000E+00 -0.00000000000E+00 -0.21545739295E+03  0.21545739295E+03  0.00000000000E+00 0. -1.
         23    2    1    2    0    0 -0.21334909433E+02 -0.90514360628E+01 -0.99635554445E+01  0.94520748359E+02  0.91092220184E+02 0.  0.
         23    2    1    2    0    0  0.46390295273E+01 -0.17536805682E+02 -0.14488694510E+03  0.17117852595E+03  0.89335327493E+02 0.  0.
        -11    1    3    3    0    0 -0.56567132652E+02 -0.12958215167E+02 -0.13829188518E+01  0.58048844100E+02  0.00000000000E+00 0. -1.
         11    1    3    3    0    0  0.35232223219E+02  0.39067791041E+01 -0.85806365927E+01  0.36471904259E+02  0.00000000000E+00 0.  1.
        -13    1    4    4    0    0  0.18079247830E+02  0.31613394244E+02 -0.85467999895E+02  0.92903417073E+02  0.00000000000E+00 0.  1.
         13    1    4    4    0    0 -0.13440218303E+02 -0.49150199926E+02 -0.59418945200E+02  0.78275108876E+02  0.00000000000E+00 0. -1.
         21    1    1    2  502  501  0.16695879906E+02  0.26588241745E+02  0.42366262187E+02  0.52731273231E+02  0.00000000000E+00 0.  1.
<scales pt_clust_5="13000.00000" pt_clust_6="13000.00000" pt_clust_7="13000.00000" pt_clust_8="13000.00000" pt_clust_9="31.39565"></scales>
<clustering>
<clus scale="   31.396">  1  9  2 -1</clus>
<clus scale="   89.335">  7  8 -1 -1</clus>
<clus scale="   90.448">  2  7  1 -1</clus>
<clus scale="   91.092">  5  6 -1 -1</clus>
<clus scale="   90.448">  2  5  1 -1</clus>
</clustering>
</event>
<event>
 9    1  0.1713970E-005  0.1139803E+03  0.7546771E-02  0.1253891E+00
         -1   -1    0    0    0  501 -0.00000000000E+00  0.00000000000E+00  0.29455136355E+03  0.29455136355E+03  0.00000000000E+00 0.  1.
          1   -1    0    0  502    0  0.00000000000E+00 -0.00000000000E+00 -0.74945288829E+02  0.74945288829E+02  0.00000000000E+00 0. -1.
         23    2    1    2    0    0  0.87122492825E+02 -0.12624365239E+02  0.12785161345E+03  0.17982491718E+03  0.90781399103E+02 0.  0.
         23    2    1    2    0    0 -0.54916871688E+02  0.20007027241E+02  0.20457378629E+02  0.11109069598E+03  0.92230658994E+02 0.  0.
        -11    1    3    3    0    0  0.22824715748E+02  0.38197341823E+02  0.45239144645E+02  0.63455376286E+02  0.00000000000E+00 0. -1.
         11    1    3    3    0    0  0.64297777077E+02 -0.50821707063E+02  0.82612468804E+02  0.11636954089E+03  0.00000000000E+00 0.  1.
        -13    1    4    4    0    0 -0.30165967992E+02 -0.36539667749E+02  0.67563046853E+01  0.47862099799E+02  0.00000000000E+00 0.  1.
         13    1    4    4    0    0 -0.24750903696E+02  0.56546694991E+02  0.13701073944E+02  0.63228596183E+02  0.00000000000E+00 0. -1.
         21    1    1    2  502  501 -0.32205621138E+02 -0.73826620018E+01  0.71297082642E+02  0.78581039217E+02  0.00000000000E+00 0. -1.
<scales pt_clust_5="13000.00000" pt_clust_6="13000.00000" pt_clust_7="13000.00000" pt_clust_8="13000.00000" pt_clust_9="33.04097"></scales>
<clustering>
<clus scale="   33.041">  1  9  2 -1</clus>
<clus scale="   90.781">  5  6 -1 -1</clus>
<clus scale="   92.231">  7  8 -1 -1</clus>
<clus scale="  112.811">  1  5  2 -1</clus>
<clus scale="  113.980">  2  5  1 -1</clus>
</clustering>
</event>
<event>
 9    1  0.1713970E-005  0.9290212E+02  0.7546771E-02  0.1298546E+00
         -2   -1    0    0    0  501 -0.00000000000E+00  0.00000000000E+00  0.58297671978E+03  0.58297671978E+03  0.00000000000E+00 0.  1.
          2   -1    0    0  502    0  0.00000000000E+00 -0.00000000000E+00 -0.19739177193E+02  0.19739177193E+02  0.00000000000E+00 0. -1.
         23    2    1    2    0    0 -0.27815640487E+02 -0.22930530929E+01  0.24639449166E+03  0.26406486814E+03  0.90780180198E+02 0.  0.
         23    2    1    2    0    0  0.10431125214E+02 -0.15857767533E+02  0.19304453693E+03  0.21232705752E+03  0.86349921553E+02 0.  0.
        -11    1    4    4    0    0 -0.62120290075E+01 -0.47113830351E+02  0.14536931359E+03  0.15293966015E+03  0.00000000000E+00 0.  1.
         11    1    4    4    0    0  0.16643154222E+02  0.31256062818E+02  0.47675223343E+02  0.59387397368E+02  0.00000000000E+00 0. -1.
        -13    1    3    3    0    0 -0.54593278792E+02  0.10399841139E+02  0.97291465032E+02  0.11204557980E+03  0.00000000000E+00 0. -1.
         13    1    3    3    0    0  0.26777638304E+02 -0.12692894231E+02  0.14910302663E+03  0.15201928834E+03  0.00000000000E+00 0.  1.
         21    1    1    2  502  501  0.17384515273E+02  0.18150820626E+02  0.12379851399E+03  0.12632397131E+03  0.00000000000E+00 0. -1.
<scales pt_clust_5="13000.00000" pt_clust_6="13000.00000" pt_clust_7="13000.00000" pt_clust_8="13000.00000" pt_clust_9="25.13312"></scales>
<clustering>
<clus scale="   25.133">  1  9  2 -1</clus>
<clus scale="   86.350">  5  6 -1 -1</clus>
<clus scale="   88.578">  2  5  1 -1</clus>
<clus scale="   90.780">  7  8 -1 -1</clus>
<clus scale="   88.578">  2  5  1 -1</clus>
</clustering>
</event>
<event>
 9    1  0.1713970E-005  0.9930470E+02  0.7546771E-02  0.1283162E+00
          1   -1    0    0  502    0  0.00000000000E+00  0.00000000000E+00  0.40628653240E+03  0.40628653240E+03  0.00000000000E+00 0. -1.
         -1   -1    0    0    0  501 -0.00000000000E+00 -0.00000000000E+00 -0.48372685090E+02  0.48372685090E+02  0.00000000000E+00 0.  1.
         23    2    1    2    0    0 -0.49081154493E+02 -0.75532136695E+01  0.83361114589E+02  0.13444007741E+03  0.93054007037E+02 0.  0.
         23    2    1    2    0    0  0.30263296940E+02 -0.20274486032E+01  0.28214051892E+03  0.29778088365E+03  0.90278483375E+02 0.  0.
        -11    1    4    4    0    0  0.51096855893E+02  0.28071709396E+02  0.18517631336E+03  0.19413700467E+03  0.00000000000E+00 0. -1.
         11    1    4    4    0    0 -0.20833558953E+02 -0.30099157999E+02  0.96964205557E+02  0.10364387898E+03  0.00000000000E+00 0.  1.
        -11    1    3    3    0    0  0.27828353985E+02 -0.13086246324E+01  0.27786869149E+02  0.39347679488E+02  0.00000000000E+00 0. -1.
         11    1    3    3    0    0 -0.76909508478E+02 -0.62445890371E+01  0.55574245440E+02  0.95092397923E+02  0.00000000000E+00 0.  1.
         21    1    1    2  502  501  0.18817857553E+02  0.95806622727E+01 -0.75877861952E+01  0.22438256434E+02  0.00000000000E+00 0.  1.
<scales pt_clust_5="13000.00000" pt_clust_6="13000.00000" pt_clust_7="13000.00000" pt_clust_8="13000.00000" pt_clust_9="21.11636"></scales>
<clustering>
<clus scale="   21.116">  2  9  1 -1</clus>
<clus scale="   90.278">  5  6 -1 -1</clus>
<clus scale="   93.054">  7  8 -1 -1</clus>
<clus scale="   96.709">  1  5  2 -1</clus>
<clus scale="   96.709">  1  5  2 -1</clus>
</clustering>
</event>
<event>
 9    1  0.1713970E-005  0.2713929E+03  0.7546771E-02  0.1102004E+00
         -2   -1    0    0    0  501 -0.00000000000E+00  0.00000000000E+00  0.97433537761E+03  0.97433537761E+03  0.00000000000E+00 0.  1.
          2   -1    0    0  502    0  0.00000000000E+00 -0.00000000000E+00 -0.94440172734E+02  0.94440172734E+02  0.00000000000E+00 0. -1.
         23    2    1    2    0    0  0.21966011846E+03 -0.44559320600E+02  0.59722974049E+03  0.64396148416E+03  0.88130184776E+02 0.  0.
         23    2    1    2    0    0 -0.25154604398E+03  0.46554999367E+02  0.22849353556E+03  0.36192294714E+03  0.11548222230E+03 0.  0.
        -11    1    4    4    0    0 -0.22277774072E+03  0.31033083167E+02  0.13373144370E+03  0.26168124320E+03  0.00000000000E+00 0. -1.
         11    1    4    4    0    0 -0.28768303264E+02  0.15521916200E+02  0.94762091858E+02  0.10024170394E+03  0.00000000000E+00 0.  1.
        -13    1    3    3    0    0  0.90307474528E+02  0.20872860254E+02  0.28564517438E+03  0.30030697944E+03  0.00000000000E+00 0.  1.
         13    1    3    3    0    0  0.12935264393E+03 -0.65432180853E+02  0.31158456610E+03  0.34365450472E+03  0.00000000000E+00 0. -1.
         21    1    1    2  502  501  0.31885925529E+02 -0.19956787672E+01  0.54171928835E+02  0.62891119041E+02  0.00000000000E+00 0.  1.
<scales pt_clust_5="13000.00000" pt_clust_6="13000.00000" pt_clust_7="13000.00000" pt_clust_8="13000.00000" pt_clust_9="31.94832"></scales>
<clustering>
<clus scale="   31.948">  1  9  2 -1</clus>
<clus scale="   88.130">  7  8 -1 -1</clus>
<clus scale="  115.482">  5  6 -1 -1</clus>
<clus scale="  260.931">  1  7  2 -1</clus>
<clus scale="  271.393">  2  5  1 -1</clus>
</clustering>
</event>
<event>
 9    1  0.1713970E-005  0.1013780E+03  0.7546771E-02  0.1278332E+00
         -1   -1    0    0    0  501 -0.00000000000E+00  0.00000000000E+00  0.23262359201E+03  0.23262359201E+03  0.00000000000E+00 0.  1.
          1   -1    0    0  502    0  0.00000000000E+00 -0.00000000000E+00 -0.20676646182E+03  0.20676646182E+03  0.00000000000E+00 0. -1.
         23    2    1    2    0    0 -0.38220920855E+02  0.68848514106E+02  0.16359958167E+03  0.20287335204E+03  0.90508657934E+02 0.  0.
         23    2    1    2    0    0  0.30472327983E+02 -0.24512452377E+02 -0.15798609995E+03  0.18716558869E+03  0.92422544410E+02 0.  0.
        -13    1    4    4    0    0 -0.67988973373E+01  0.31968247537E+02 -0.50777601522E+02  0.60386742518E+02  0.00000000000E+00 0.  1.
         13    1    4    4    0    0  0.37271225321E+02 -0.56480699914E+02 -0.10720849843E+03  0.12677884617E+03  0.00000000000E+00 0. -1.
        -13    1    3    3    0    0 -0.61069093764E+02  0.68401334554E+02  0.15130899267E+03  0.17692537423E+03  0.00000000000E+00 0.  1.
         13    1    3    3    0    0  0.22848172909E+02  0.44717955220E+00  0.12290588998E+02  0.25947977816E+02  0.00000000000E+00 0. -1.
         21    1    1    2  502  501  0.77485928713E+01 -0.44336061729E+02  0.20243648475E+02  0.49351113106E+02  0.00000000000E+00 0.  1.
<scales pt_clust_5="13000.00000" pt_clust_6="13000.00000" pt_clust_7="13000.00000" pt_clust_8="13000.00000" pt_clust_9="45.00808"></scales>
<clustering>
<clus scale="   45.008">  1  9  2 -1</clus>
<clus scale="   90.509">  7  8 -1 -1</clus>
<clus scale="   92.423">  5  6 -1 -1</clus>
<clus scale="   99.636">  1  7  2 -1</clus>
<clus scale="  101.378">  2  5  1 -1</clus>
</clustering>
</event>
<event>
 9    1  0.1713970E-005  0.1122404E+03  0.7546771E-02  0.1256554E+00
         -3   -1    0    0    0  501 -0.00000000000E+00  0.00000000000E+00  0.36975878376E+03  0.36975878376E+03  0.00000000000E+00 0.  1.
          3   -1    0    0  502    0  0.00000000000E+00 -0.00000000000E+00 -0.87124451835E+02  0.87124451835E+02  0.00000000000E+00 0. -1.
         23    2    1    2    0    0  0.33571969706E+02  0.74829866133E+02  0.16025392841E+03  0.20181310678E+03  0.91217446142E+02 0.  0.
         23    2    1    2    0    0 -0.34546012638E+02 -0.50769434721E+02 -0.19202689964E+02  0.11145388503E+03  0.91006937628E+02 0.  0.
        -11    1    4    4    0    0 -0.41615171822E+02 -0.58419767734E+01 -0.42999570044E+02  0.60124156896E+02  0.00000000000E+00 0. -1.
         11    1    4    4    0    0  0.70691591844E+01 -0.44927457948E+02  0.23796880081E+02  0.51329728139E+02  0.00000000000E+00 0.  1.
        -11    1    3    3    0    0  0.58141787627E+02  0.23625387982E+02  0.10649092285E+03  0.12360802189E+03  0.00000000000E+00 0.  1.
         11    1    3    3    0    0 -0.24569817921E+02  0.51204478151E+02  0.53763005557E+02  0.78205084886E+02  0.00000000000E+00 0. -1.
         21    1    1    2  502  501  0.97404293236E+00 -0.24060431411E+02  0.14158309348E+03  0.14361624378E+03  0.00000000000E+00 0. -1.
<scales pt_clust_5="13000.00000" pt_clust_6="13000.00000" pt_clust_7="13000.00000" pt_clust_8="13000.00000" pt_clust_9="24.08014"></scales>
<clustering>
<clus scale="   24.080">  1  9  2 -1</clus>
<clus scale="   91.007">  5  6 -1 -1</clus>
<clus scale="   91.217">  7  8 -1 -1</clus>
<clus scale="  112.069">  2  5  1 -1</clus>
<clus scale="  112.069">  2  5  1 -1</clus>
</clustering>
</event>
<event>
 9    1  0.1713970E-005  0.1287622E+03  0.7546771E-02  0.1234403E+00
         -2   -1    0    0    0  501 -0.00000000000E+00  0.00000000000E+00  0.12228688779E+03  0.12228688779E+03  0.00000000000E+00 0.  1.
          2   -1    0    0  502    0  0.00000000000E+00 -0.00000000000E+00 -0.15301245325E+03  0.15301245325E+03  0.00000000000E+00 0. -1.
         23    2    1    2    0    0  0.54112881855E+02 -0.18150161844E+02  0.28248943695E+01  0.10883552330E+03  0.92625907528E+02 0.  0.
         23    2    1    2    0    0 -0.74547887087E+02  0.32755187542E+02 -0.38581638256E+02  0.14084724166E+03  0.10825485159E+03 0.  0.
        -13    1    4    4    0    0 -0.98554940176E+02  0.11540181140E+02 -0.13464835469E+02  0.10013767427E+03  0.00000000000E+00 0. -1.
         13    1    4    4    0    0  0.24007053089E+02  0.21215006401E+02 -0.25116802787E+02  0.40709567387E+02  0.00000000000E+00 0.  1.
        -13    1    3    3    0    0  0.43905866327E+02 -0.39396332238E+02 -0.31749242657E+02  0.66991122554E+02  0.00000000000E+00 0. -1.
         13    1    3    3    0    0  0.10207015527E+02  0.21246170394E+02  0.34574137026E+02  0.41844400742E+02  0.00000000000E+00 0.  1.
         21    1    1    2  502  501  0.20435005232E+02 -0.14605025698E+02  0.50311784270E+01  0.25616576095E+02  0.00000000000E+00 0. -1.
<scales pt_clust_5="13000.00000" pt_clust_6="13000.00000" pt_clust_7="13000.00000" pt_clust_8="13000.00000" pt_clust_9="25.11765"></scales>
<clustering>
<clus scale="   25.118">  1  9  2 -1</clus>
<clus scale="   92.626">  7  8 -1 -1</clus>
<clus scale="  108.255">  5  6 -1 -1</clus>
<clus scale="  115.932">  1  7  2 -1</clus>
<clus scale="  128.762">  2  5  1 -1</clus>
</clustering>
</event>
<event>
 9    1  0.1713970E-005  0.1094677E+03  0.7546771E-02  0.1266257E+00
         -2   -1    0    0    0  501 -0.00000000000E+00  0.00000000000E+00  0.55303782955E+02  0.55303782955E+02  0.00000000000E+00 0.  1.
          2   -1    0    0  502    0  0.00000000000E+00 -0.00000000000E+00 -0.52955750849E+03  0.52955750849E+03  0.00000000000E+00 0. -1.
         23    2    1    2    0    0  0.38817321196E+02  0.16413796390E+02 -0.91410708429E+02  0.14023476157E+03  0.97640532566E+02 0.  0.
         23    2    1    2    0    0 -0.52054211328E+02 -0.41031506108E+00 -0.40310861794E+03  0.41560892742E+03  0.86743376842E+02 0.  0.
        -11    1    3    3    0    0 -0.21568463113E+02 -0.24903296400E+02 -0.32769132587E+02  0.46467072462E+02  0.00000000000E+00 0.  1.
         11    1    3    3    0    0  0.60385784308E+02  0.41317092790E+02 -0.58641575842E+02  0.93767689106E+02  0.00000000000E+00 0. -1.
        -11    1    4    4    0    0 -0.36707032863E+02  0.39354712438E+02 -0.28518753938E+03  0.29022083363E+03  0.00000000000E+00 0. -1.
         11    1    4    4    0    0 -0.15347178465E+02 -0.39765027499E+02 -0.11792107855E+03  0.12538809379E+03  0.00000000000E+00 0.  1.
         21    1    1    2  502  501  0.13236890133E+02 -0.16003481329E+02  0.20265600830E+02  0.29017602451E+02  0.00000000000E+00 0.  1.
<scales pt_clust_5="13000.00000" pt_clust_6="13000.00000" pt_clust_7="13000.00000" pt_clust_8="13000.00000" pt_clust_9="20.76841"></scales>
<clustering>
<clus scale="   20.768">  1  9  2 -1</clus>
<clus scale="   86.743">  7  8 -1 -1</clus>
<clus scale="   97.641">  5  6 -1 -1</clus>
<clus scale="   99.869">  2  7  1 -1</clus>
<clus scale="   99.869">  2  5  1 -1</clus>
</clustering>
</event>
<event>
 9    1  0.1713970E-005  0.1007395E+03  0.7546771E-02  0.1279142E+00
          3   -1    0    0  502    0  0.00000000000E+00  0.00000000000E+00  0.49706664148E+03  0.49706664148E+03  0.00000000000E+00 0. -1.
         -3   -1    0    0    0  501 -0.00000000000E+00 -0.00000000000E+00 -0.31451814775E+02  0.31451814775E+02  0.00000000000E+00 0.  1.
         23    2    1    2    0    0  0.51880603098E+02 -0.10171771904E+02  0.11064051539E+03  0.15260372834E+03  0.90837835378E+02 0.  0.
         23    2    1    2    0    0 -0.38043887273E+02 -0.64777423523E+01  0.31660562696E+03  0.33186002364E+03  0.91665990215E+02 0.  0.
        -11    1    3    3    0    0  0.63142173918E+02 -0.31170057392E+02  0.47032222432E+02  0.84679020730E+02  0.00000000000E+00 0.  1.
         11    1    3    3    0    0 -0.11261570821E+02  0.20998285488E+02  0.63608292961E+02  0.67924707612E+02  0.00000000000E+00 0. -1.
        -13    1    4    4    0    0 -0.38054127236E+02 -0.35285892706E+02  0.28244822546E+03  0.28717627146E+03  0.00000000000E+00 0. -1.
         13    1    4    4    0    0  0.10239962790E-01  0.28808150353E+02  0.34157401502E+02  0.44683752181E+02  0.00000000000E+00 0.  1.
         21    1    1    2  502  501 -0.13836715825E+02  0.16649514256E+02  0.38368684352E+02  0.44054704274E+02  0.00000000000E+00 0. -1.
<scales pt_clust_5="13000.00000" pt_clust_6="13000.00000" pt_clust_7="13000.00000" pt_clust_8="13000.00000" pt_clust_9="21.64858"></scales>
<clustering>
<clus scale="   21.649">  2  9  1 -1</clus>
<clus scale="   90.838">  5  6 -1 -1</clus>
<clus scale="   91.666">  7  8 -1 -1</clus>
<clus scale="   99.986">  2  5  1 -1</clus>
<clus scale="  100.739">  1  5  2 -1</clus>
</clustering>
</event>
<event>
 9    1  0.1713970E-005  0.1273188E+03  0.7546771E-02  0.1231973E+00
         -1   -1    0    0    0  501 -0.00000000000E+00  0.00000000000E+00  0.33156370487E+03  0.33156370487E+03  0.00000000000E+00 0.  1.
          1   -1    0    0  502    0  0.00000000000E+00 -0.00000000000E+00 -0.72218261581E+02  0.72218261581E+02  0.00000000000E+00 0. -1.
         23    2    1    2    0    0  0.62123173926E+02  0.34417410993E+02  0.14658558673E+03  0.18815707888E+03  0.94190791364E+02 0.  0.
         23    2    1    2    0    0 -0.91852654438E+02 -0.13627709929E+02  0.48836357662E+02  0.14212476925E+03  0.95874061143E+02 0.  0.
        -13    1    3    3    0    0  0.71031346620E+02  0.81883730225E+00  0.53906766396E+02  0.89174335772E+02  0.00000000000E+00 0.  1.
         13    1    3    3    0    0 -0.89081726936E+01  0.33598573691E+02  0.92678820332E+02  0.98982743107E+02  0.00000000000E+00 0. -1.
        -13    1    4    4    0    0 -0.25033273977E+02  0.13891870079E+02  0.62348867779E+02  0.68607799656E+02  0.00000000000E+00 0.  1.
         13    1    4    4    0    0 -0.66819380460E+02 -0.27519580008E+02 -0.13512510117E+02  0.73516969596E+02  0.00000000000E+00 0. -1.
         21    1    1    2  502  501  0.29729480512E+02 -0.20789701064E+02  0.63923498903E+02  0.73500118325E+02  0.00000000000E+00 0. -1.
<scales pt_clust_5="13000.00000" pt_clust_6="13000.00000" pt_clust_7="13000.00000" pt_clust_8="13000.00000" pt_clust_9="36.27745"></scales>
<clustering>
<clus scale="   36.277">  1  9  2 -1</clus>
<clus scale="   94.191">  5  6 -1 -1</clus>
<clus scale="   95.874">  7  8 -1 -1</clus>
<clus scale="  126.056">  1  5  2 -1</clus>
<clus scale="  127.319">  2  5  1 -1</clus>
</clustering>
</event>
<event>
 9    1  0.1713970E-005  0.1270014E+03  0.7546771E-02  0.1235171E+00
         -2   -1    0    0    0  501 -0.00000000000E+00  0.00000000000E+00  0.81706053197E+02  0.81706053197E+02  0.00000000000E+00 0.  1.
          2   -1    0    0  502    0  0.00000000000E+00 -0.00000000000E+00 -0.27039195274E+03  0.27039195274E+03  0.00000000000E+00 0. -1.
         23    2    1    2    0    0 -0.90961106140E+02 -0.10370389755E+01 -0.11045821099E+03  0.17482732209E+03  0.10044191303E+03 0.  0.
         23    2    1    2    0    0  0.67048691376E+02  0.17384752503E+01 -0.95802582258E+02  0.14758613430E+03  0.90027678854E+02 0.  0.
        -11    1    3    3    0    0 -0.69480391264E+02 -0.72771246093E+01 -0.84199667586E+01  0.70366022717E+02  0.00000000000E+00 0.  1.
         11    1    3    3    0    0 -0.21480714876E+02  0.62400856337E+01 -0.10203824423E+03  0.10446129937E+03  0.00000000000E+00 0. -1.
        -13    1    4    4    0    0  0.82921776874E+02  0.22598870196E+02 -0.76085742255E+02  0.11478575778E+03  0.00000000000E+00 0. -1.
         13    1    4    4    0    0 -0.15873085498E+02 -0.20860394946E+02 -0.19716840002E+02  0.32800376525E+02  0.00000000000E+00 0.  1.
         21    1    1    2  502  501  0.23912414764E+02 -0.70143627475E+00  0.17574893709E+02  0.29684549543E+02  0.00000000000E+00 0.  1.
<scales pt_clust_5="13000.00000" pt_clust_6="13000.00000" pt_clust_7="13000.00000" pt_clust_8="13000.00000" pt_clust_9="23.92270"></scales>
<clustering>
<clus scale="   23.923">  1  9  2 -1</clus>
<clus scale="   90.028">  7  8 -1 -1</clus>
<clus scale="  100.442">  5  6 -1 -1</clus>
<clus scale="  118.936">  2  7  1 -1</clus>
<clus scale="  118.936">  2  5  1 -1</clus>
</clustering>
</event>
<event>
 9    1  0.1713970E-005  0.1457680E+03  0.7546771E-02  0.1207255E+00
         -1   -1    0    0    0  501 -0.00000000000E+00  0.00000000000E+00  0.41376199398E+02  0.41376199398E+02  0.00000000000E+00 0.  1.
          1   -1    0    0  502    0  0.00000000000E+00 -0.00000000000E+00 -0.69033614717E+03  0.69033614717E+03  0.00000000000E+00 0. -1.
         23    2    1    2    0    0  0.94846541501E+02 -0.50227466402E+01 -0.16975696789E+03  0.21451145900E+03  0.90424794591E+02 0.  0.
         23    2    1    2    0    0 -0.11561768635E+03 -0.10882336323E+02 -0.46113492667E+03  0.48540675808E+03  0.97408549740E+02 0.  0.
        -11    1    3    3    0    0  0.51567611482E+02 -0.47204035055E+02 -0.10273883943E+03  0.12426869520E+03  0.00000000000E+00 0.  1.
         11    1    3    3    0    0  0.43278930019E+02  0.42181288415E+02 -0.67018128456E+02  0.90242763796E+02  0.00000000000E+00 0. -1.
        -13    1    4    4    0    0  0.11498129962E+02 -0.18721985798E+02 -0.10253968973E+03  0.10486709548E+03  0.00000000000E+00 0.  1.
         13    1    4    4    0    0 -0.12711581632E+03  0.78396494753E+01 -0.35859523694E+03  0.38053966260E+03  0.00000000000E+00 0. -1.
         21    1    1    2  502  501  0.20771144852E+02  0.15905082963E+02 -0.18068053220E+02  0.31794129484E+02  0.00000000000E+00 0.  1.
<scales pt_clust_5="13000.00000" pt_clust_6="13000.00000" pt_clust_7="13000.00000" pt_clust_8="13000.00000" pt_clust_9="26.16127"></scales>
<clustering>
<clus scale="   26.161">  1  9  2 -1</clus>
<clus scale="   90.425">  5  6 -1 -1</clus>
<clus scale="   97.409">  7  8 -1 -1</clus>
<clus scale="  141.197">  1  5  2 -1</clus>
<clus scale="  145.768">  2  5  1 -1</clus>
</clustering>
</event>
<event>
 9    1  0.1713970E-005  0.1657843E+03  0.7546771E-02  0.1185455E+00
          1   -1    0    0  502    0  0.00000000000E+00  0.00000000000E+00  0.11789348454E+04  0.11789348454E+04  0.00000000000E+00 0. -1.
         -1   -1    0    0    0  501 -0.00000000000E+00 -0.00000000000E+00 -0.29178394504E+02  0.29178394504E+02  0.00000000000E+00 0.  1.
         23    2    1    2    0    0 -0.79665741182E+02 -0.12631232511E+03  0.50429201408E+03  0.53375970496E+03  0.91036000477E+02 0.  0.
         23    2    1    2    0    0  0.54525775777E+02  0.12087333659E+03  0.62159338035E+03  0.63926182945E+03  0.68512278972E+02 0.  0.
        -11    1    4    4    0    0 -0.31003732194E+01  0.72485445443E+02  0.26069454038E+03  0.27060191333E+03  0.00000000000E+00 0. -1.
         11    1    4    4    0    0  0.57626148996E+02  0.48387891150E+02  0.36089883997E+03  0.36865991612E+03  0.00000000000E+00 0.  1.
        -11    1    3    3    0    0  0.76183005547E+00 -0.31262470373E+02  0.29777099184E+02  0.43180992053E+02  0.00000000000E+00 0.  1.
         11    1    3    3    0    0 -0.80427571238E+02 -0.95049854741E+02  0.47451491489E+03  0.49057871291E+03  0.00000000000E+00 0. -1.
         21    1    1    2  502  501  0.25139965406E+02  0.54389885215E+01  0.23871056421E+02  0.35091705450E+02  0.00000000000E+00 0. -1.
<scales pt_clust_5="13000.00000" pt_clust_6="13000.00000" pt_clust_7="13000.00000" pt_clust_8="13000.00000" pt_clust_9="25.72160"></scales>
<clustering>
<clus scale="   25.722">  2  9  1 -1</clus>
<clus scale="   68.512">  5  6 -1 -1</clus>
<clus scale="   91.036">  7  8 -1 -1</clus>
<clus scale="  154.567">  1  5  2 -1</clus>
<clus scale="  154.567">  1  5  2 -1</clus>
</clustering>
</event>
<event>
 9    1  0.1713970E-005  0.1069702E+03  0.7546771E-02  0.1266763E+00
         -2   -1    0    0    0  501 -0.00000000000E+00  0.00000000000E+00  0.36591411262E+02  0.36591411262E+02  0.00000000000E+00 0.  1.
          2   -1    0    0  502    0  0.00000000000E+00 -0.00000000000E+00 -0.49753638665E+03  0.49753638665E+03  0.00000000000E+00 0. -1.
         23    2    1    2    0    0  0.55546660193E+02 -0.11491686242E+02 -0.24549582079E+03  0.27007619166E+03  0.97239194598E+02 0.  0.
         23    2    1    2    0    0 -0.28187043687E+02  0.30337707763E+01 -0.21175076356E+03  0.23517665092E+03  0.98315604412E+02 0.  0.
        -11    1    4    4    0    0  0.15246384881E+02  0.41382413846E+02 -0.10019964582E+03  0.10947568428E+03  0.00000000000E+00 0. -1.
         11    1    4    4    0    0 -0.43433428568E+02 -0.38348643070E+02 -0.11155111775E+03  0.12570096664E+03  0.00000000000E+00 0.  1.
        -11    1    3    3    0    0  0.18690766495E+02  0.14682720424E+02 -0.36558824533E+01  0.24047713150E+02  0.00000000000E+00 0.  1.
         11    1    3    3    0    0  0.36855893698E+02 -0.26174406666E+02 -0.24183993833E+03  0.24602847851E+03  0.00000000000E+00 0. -1.
         21    1    1    2  502  501 -0.27359616507E+02  0.84579154659E+01 -0.36983910419E+01  0.28874955337E+02  0.00000000000E+00 0.  1.
<scales pt_clust_5="13000.00000" pt_clust_6="13000.00000" pt_clust_7="13000.00000" pt_clust_8="13000.00000" pt_clust_9="28.63713"></scales>
<clustering>
<clus scale="   28.637">  1  9  2 -1</clus>
<clus scale="   97.239">  7  8 -1 -1</clus>
<clus scale="   98.316">  5  6 -1 -1</clus>
<clus scale="  105.982">  1  7  2 -1</clus>
<clus scale="  106.970">  2  5  1 -1</clus>
</clustering>
</event>
<event>
 9    1  0.1713970E-005  0.2502879E+03  0.7546771E-02  0.1113139E+00
         -1   -1    0    0    0  501 -0.00000000000E+00  0.00000000000E+00  0.32369866136E+03  0.32369866136E+03  0.00000000000E+00 0.  1.
          1   -1    0    0  502    0  0.00000000000E+00 -0.00000000000E+00 -0.23242713530E+03  0.23242713530E+03  0.00000000000E+00 0. -1.
         23    2    1    2    0    0  0.12387119581E+03 -0.20925403026E+03  0.10951855099E+03  0.28165160941E+03  0.90564859318E+02 0.  0.
         23    2    1    2    0    0 -0.99933449492E+02  0.20510354170E+03 -0.30509764500E+02  0.24725990724E+03  0.90290967744E+02 0.  0.
        -13    1    4    4    0    0 -0.66506757339E+02  0.47121943170E+02  0.59175436753E+01  0.81722968760E+02  0.00000000000E+00 0. -1.
         13    1    4    4    0    0 -0.33426692154E+02  0.15798159853E+03 -0.36427308176E+02  0.16553693848E+03  0.00000000000E+00 0.  1.
        -13    1    3    3    0    0  0.72714160016E+02 -0.16487095595E+03  0.39967361710E+02  0.18457294272E+03  0.00000000000E+00 0. -1.
         13    1    3    3    0    0  0.51157035798E+02 -0.44383074306E+02  0.69551189280E+02  0.97078666692E+02  0.00000000000E+00 0.  1.
         21    1    1    2  502  501 -0.23937746322E+02  0.41504885591E+01  0.12262739577E+02  0.27214280004E+02  0.00000000000E+00 0.  1.
<scales pt_clust_5="13000.00000" pt_clust_6="13000.00000" pt_clust_7="13000.00000" pt_clust_8="13000.00000" pt_clust_9="24.29490"></scales>
<clustering>
<clus scale="   24.295">  1  9  2 -1</clus>
<clus scale="   90.291">  5  6 -1 -1</clus>
<clus scale="   90.565">  7  8 -1 -1</clus>
<clus scale="  250.189">  2  5  1 -1</clus>
<clus scale="  250.189">  2  5  1 -1</clus>
</clustering>
</event>
<event>
 9    1  0.1713970E-005  0.2658886E+03  0.7546771E-02  0.1103775E+00
         -1   -1    0    0    0  501 -0.00000000000E+00  0.00000000000E+00  0.32330838493E+03  0.32330838493E+03  0.00000000000E+00 0.  1.
          1   -1    0    0  502    0  0.00000000000E+00 -0.00000000000E+00 -0.24233889432E+03  0.24233889432E+03  0.00000000000E+00 0. -1.
         23    2    1    2    0    0  0.22516364751E+03 -0.84434407192E+02  0.54510642767E+02  0.26188053597E+03  0.88216595194E+02 0.  0.
         23    2    1    2    0    0 -0.23945493719E+03  0.10558414024E+03  0.26783978354E+02  0.27823915274E+03  0.90625421415E+02 0.  0.
        -11    1    3    3    0    0  0.58567694517E+02 -0.52200036164E+02  0.48199964950E+02  0.92077441525E+02  0.00000000000E+00 0. -1.
         11    1    3    3    0    0  0.16659595299E+03 -0.32234371028E+02  0.63106778173E+01  0.16980309444E+03  0.00000000000E+00 0.  1.
        -13    1    4    4    0    0 -0.88426218471E+02  0.82946623831E+02 -0.83701406711E+01  0.12152941114E+03  0.00000000000E+00 0. -1.
         13    1    4    4    0    0 -0.15102871872E+03  0.22637516407E+02  0.35154119025E+02  0.15670974160E+03  0.00000000000E+00 0.  1.
         21    1    1    2  502  501  0.14291289682E+02 -0.21149733045E+02 -0.32513051122E+00  0.25527590535E+02  0.00000000000E+00 0. -1.
<scales pt_clust_5="13000.00000" pt_clust_6="13000.00000" pt_clust_7="13000.00000" pt_clust_8="13000.00000" pt_clust_9="25.52552"></scales>
<clustering>
<clus scale="   25.526">  2  9  1 -1</clus>
<clus scale="   88.217">  5  6 -1 -1</clus>
<clus scale="   90.625">  7  8 -1 -1</clus>
<clus scale="  265.077">  1  5  2 -1</clus>
<clus scale="   25.526">  2  5  1 -1</clus>
</clustering>
</event>
<event>
 9    1  0.1713970E-005  0.1010501E+03  0.7546771E-02  0.1279337E+00
          1   -1    0    0  502    0  0.00000000000E+00  0.00000000000E+00  0.21641263574E+03  0.21641263574E+03  0.00000000000E+00 0. -1.
         -1   -1    0    0    0  501 -0.00000000000E+00 -0.00000000000E+00 -0.11778419153E+03  0.11778419153E+03  0.00000000000E+00 0.  1.
         23    2    1    2    0    0  0.28486873833E+02  0.13038947354E+02 -0.57415735167E+02  0.11005870422E+03  0.88514606709E+02 0.  0.
         23    2    1    2    0    0 -0.46195232958E+02  0.52619456410E-01  0.16980419388E+03  0.19817058364E+03  0.91126909553E+02 0.  0.
        -11    1    4    4    0    0 -0.13599328012E+02  0.42439626745E+02  0.10558449391E+03  0.11460431491E+03  0.00000000000E+00 0. -1.
         11    1    4    4    0    0 -0.32595904945E+02 -0.42387007289E+02  0.64219699963E+02  0.83566268730E+02  0.00000000000E+00 0.  1.
        -13    1    3    3    0    0 -0.98348585956E+01 -0.24706133035E+02 -0.48812995130E+02  0.55586202844E+02  0.00000000000E+00 0.  1.
         13    1    3    3    0    0  0.38321732429E+02  0.37745080389E+02 -0.86027400376E+01  0.54472501376E+02  0.00000000000E+00 0. -1.
         21    1    1    2  502  501  0.17708359124E+02 -0.13091566811E+02 -0.13760014501E+02  0.25967539419E+02  0.00000000000E+00 0.  1.
<scales pt_clust_5="13000.00000" pt_clust_6="13000.00000" pt_clust_7="13000.00000" pt_clust_8="13000.00000" pt_clust_9="22.02215"></scales>
<clustering>
<clus scale="   22.022">  2  9  1 -1</clus>
<clus scale="   88.515">  7  8 -1 -1</clus>
<clus scale="   91.127">  5  6 -1 -1</clus>
<clus scale="   98.701">  2  7  1 -1</clus>
<clus scale="  101.050">  1  5  2 -1</clus>
</clustering>
</event>
<event>
 9    1  0.1713970E-005  0.1030041E+03  0.7546771E-02  0.1274231E+00
          1   -1    0    0  502    0  0.00000000000E+00  0.00000000000E+00  0.30776884950E+03  0.30776884950E+03  0.00000000000E+00 0. -1.
         -1   -1    0    0    0  501 -0.00000000000E+00 -0.00000000000E+00 -0.46931351078E+02  0.46931351078E+02  0.00000000000E+00 0.  1.
         23    2    1    2    0    0 -0.10555008598E+01 -0.53727845673E+02  0.83567200710E+02  0.13505991986E+03  0.91487209134E+02 0.  0.
         23    2    1    2    0    0 -0.17588946262E+02  0.41770005138E+02  0.16609283299E+03  0.19483018043E+03  0.91202333729E+02 0.  0.
        -13    1    4    4    0    0  0.27959614831E+02  0.23478364265E+02  0.22044908036E+02  0.42649169047E+02  0.00000000000E+00 0.  1.
         13    1    4    4    0    0 -0.45548561093E+02  0.18291640873E+02  0.14404792495E+03  0.15218101138E+03  0.00000000000E+00 0. -1.
        -13    1    3    3    0    0 -0.18811363667E+02 -0.68965504816E+02  0.31777138269E+02  0.78229756321E+02  0.00000000000E+00 0.  1.
         13    1    3    3    0    0  0.17755862807E+02  0.15237659142E+02  0.51790062441E+02  0.56830163538E+02  0.00000000000E+00 0. -1.
         21    1    1    2  502  501  0.18644447121E+02  0.11957840536E+02  0.11177464731E+02  0.24810100293E+02  0.00000000000E+00 0. -1.
<scales pt_clust_5="13000.00000" pt_clust_6="13000.00000" pt_clust_7="13000.00000" pt_clust_8="13000.00000" pt_clust_9="22.14961"></scales>
<clustering>
<clus scale="   22.150">  2  9  1 -1</clus>
<clus scale="   91.202">  5  6 -1 -1</clus>
<clus scale="   91.487">  7  8 -1 -1</clus>
<clus scale="  102.751">  1  5  2 -1</clus>
<clus scale="  102.751">  1  5  2 -1</clus>
</clustering>
</event>
<event>
 9    1  0.1713970E-005  0.9632499E+02  0.7546771E-02  0.1289591E+00
         -2   -1    0    0    0  501 -0.00000000000E+00  0.00000000000E+00  0.69919056017E+02  0.69919056017E+02  0.00000000000E+00 0.  1.
          2   -1    0    0  502    0  0.00000000000E+00 -0.00000000000E+00 -0.19104453293E+03  0.19104453293E+03  0.00000000000E+00 0. -1.
         23    2    1    2    0    0 -0.10574140094E+02 -0.18114572242E+02 -0.52808369722E+02  0.10756021279E+03  0.91326476430E+02 0.  0.
         23    2    1    2    0    0  0.29876347168E+02  0.25315525629E+02 -0.83358269032E+02  0.12789523084E+03  0.88741856519E+02 0.  0.
        -11    1    3    3    0    0 -0.13953680589E+02  0.35841774430E+02 -0.13674693202E+02  0.40820769597E+02  0.00000000000E+00 0. -1.
         11    1    3    3    0    0  0.33795404948E+01 -0.53956346672E+02 -0.39133676520E+02  0.66739443196E+02  0.00000000000E+00 0.  1.
        -13    1    4    4    0    0 -0.21811684218E+02  0.26150115900E+02 -0.64372248998E+02  0.72824203195E+02  0.00000000000E+00 0. -1.
         13    1    4    4    0    0  0.51688031386E+02 -0.83459027164E+00 -0.18986020034E+02  0.55071027648E+02  0.00000000000E+00 0.  1.
         21    1    1    2  502  501 -0.19302207074E+02 -0.72009533872E+01  0.15041161841E+02  0.25508145310E+02  0.00000000000E+00 0.  1.
<scales pt_clust_5="13000.00000" pt_clust_6="13000.00000" pt_clust_7="13000.00000" pt_clust_8="13000.00000" pt_clust_9="20.60167"></scales>
<clustering>
<clus scale="   20.602">  1  9  2 -1</clus>
<clus scale="   88.742">  7  8 -1 -1</clus>
<clus scale="   91.326">  5  6 -1 -1</clus>
<clus scale="   93.878">  2  7  1 -1</clus>
<clus scale="   93.878">  2  5  1 -1</clus>
</clustering>
</event>
<event>
 9    1  0.1713970E-005  0.1221120E+03  0.7546771E-02  0.1239788E+00
          1   -1    0    0  502    0  0.00000000000E+00  0.00000000000E+00  0.15246158676E+03  0.15246158676E+03  0.00000000000E+00 0. -1.
         -1   -1    0    0    0  501 -0.00000000000E+00 -0.00000000000E+00 -0.14554732364E+03  0.14554732364E+03  0.00000000000E+00 0.  1.
         23    2    1    2    0    0  0.43861458543E+02  0.55581681393E+02 -0.33572816546E+02  0.12104446896E+03  0.92257675036E+02 0.  0.
         23    2    1    2    0    0 -0.67831830193E+02 -0.50545573734E+02  0.65834670572E+02  0.14171615833E+03  0.92699802968E+02 0.  0.
        -11    1    3    3    0    0 -0.67268767683E+01  0.62144221719E+02 -0.31486320170E+02  0.69989595812E+02  0.00000000000E+00 0.  1.
         11    1    3    3    0    0  0.50588335311E+02 -0.65625403255E+01 -0.20864963756E+01  0.51054873149E+02  0.00000000000E+00 0. -1.
        -13    1    4    4    0    0 -0.14816783978E+02  0.15054820618E+02 -0.14192083070E+02  0.25447984854E+02  0.00000000000E+00 0.  1.
         13    1    4    4    0    0 -0.53015046215E+02 -0.65600394352E+02  0.80026753642E+02  0.11626817347E+03  0.00000000000E+00 0. -1.
         21    1    1    2  502  501  0.23970371650E+02 -0.50361076590E+01 -0.25347590904E+02  0.35248283107E+02  0.00000000000E+00 0.  1.
<scales pt_clust_5="13000.00000" pt_clust_6="13000.00000" pt_clust_7="13000.00000" pt_clust_8="13000.00000" pt_clust_9="24.49370"></scales>
<clustering>
<clus scale="   24.494">  2  9  1 -1</clus>
<clus scale="   92.258">  5  6 -1 -1</clus>
<clus scale="   92.700">  7  8 -1 -1</clus>
<clus scale="  121.777">  2  5  1 -1</clus>
<clus scale="  122.112">  1  5  2 -1</clus>
</clustering>
</event>
<event>
 9    1  0.1713970E-005  0.1688007E+03  0.7546771E-02  0.1180508E+00
          2   -1    0    0  502    0  0.00000000000E+00  0.00000000000E+00  0.24343203480E+03  0.24343203480E+03  0.00000000000E+00 0. -1.
         -2   -1    0    0    0  501 -0.00000000000E+00 -0.00000000000E+00 -0.16719625977E+03  0.16719625977E+03  0.00000000000E+00 0.  1.
         23    2    1    2    0    0  0.67658306402E+02  0.11996273681E+03 -0.33217105321E+02  0.17372279206E+03  0.10053620117E+03 0.  0.
         23    2    1    2    0    0 -0.94976876375E+02 -0.97423867359E+02  0.11607962112E+03  0.20087470188E+03  0.91455729387E+02 0.  0.
        -11    1    4    4    0    0 -0.17416417092E+02 -0.65092462926E+02  0.14287856575E+02  0.68880353946E+02  0.00000000000E+00 0.  1.
         11    1    4    4    0    0 -0.77560459283E+02 -0.32331404433E+02  0.10179176454E+03  0.13199434793E+03  0.00000000000E+00 0. -1.
        -11    1    3    3    0    0 -0.28814202560E+01  0.87594000898E+02  0.38243544735E+01  0.87724781351E+02  0.00000000000E+00 0.  1.
         11    1    3    3    0    0  0.70539726658E+02  0.32368735910E+02 -0.37041459795E+02  0.85998010705E+02  0.00000000000E+00 0. -1.
         21    1    1    2  502  501  0.27318569972E+02 -0.22538869448E+02 -0.66267407678E+01  0.36030800637E+02  0.00000000000E+00 0.  1.
<scales pt_clust_5="13000.00000" pt_clust_6="13000.00000" pt_clust_7="13000.00000" pt_clust_8="13000.00000" pt_clust_9="35.41617"></scales>
<clustering>
<clus scale="   35.416">  2  9  1 -1</clus>
<clus scale="   91.456">  5  6 -1 -1</clus>
<clus scale="  100.536">  7  8 -1 -1</clus>
<clus scale="  163.555">  1  5  2 -1</clus>
<clus scale="  163.555">  1  5  2 -1</clus>
</clustering>
</event>
<event>
 9    1  0.1713970E-005  0.2375880E+03  0.7546771E-02  0.1121606E+00
         -1   -1    0    0    0  501 -0.00000000000E+00  0.00000000000E+00  0.21238514824E+03  0.21238514824E+03  0.00000000000E+00 0.  1.
          1   -1    0    0  502    0  0.00000000000E+00 -0.00000000000E+00 -0.35650951856E+03  0.35650951856E+03  0.00000000000E+00 0. -1.
         23    2    1    2    0    0  0.83501357147E+02 -0.19970586174E+03 -0.48511826302E+02  0.24079094739E+03  0.93658823352E+02 0.  0.
         23    2    1    2    0    0 -0.10692954627E+03  0.19253820373E+03 -0.14081336602E+03  0.27669000843E+03  0.90686652574E+02 0.  0.
        -13    1    3    3    0    0 -0.15440909884E+02 -0.35461940175E+02 -0.28421946842E+02  0.47997687042E+02  0.00000000000E+00 0. -1.
         13    1    3    3    0    0  0.98942267032E+02 -0.16424392157E+03 -0.20089879460E+02  0.19279326034E+03  0.00000000000E+00 0.  1.
        -13    1    4    4    0    0 -0.57380484181E+02  0.17501702944E+03 -0.12173824493E+03  0.22077971110E+03  0.00000000000E+00 0.  1.
         13    1    4    4    0    0 -0.49549062088E+02  0.17521174293E+02 -0.19075121092E+02  0.55910297326E+02  0.00000000000E+00 0. -1.
         21    1    1    2  502  501  0.23428189122E+02  0.71676580144E+01  0.45200822009E+02  0.51413710984E+02  0.00000000000E+00 0.  1.
<scales pt_clust_5="13000.00000" pt_clust_6="13000.00000" pt_clust_7="13000.00000" pt_clust_8="13000.00000" pt_clust_9="24.50011"></scales>
<clustering>
<clus scale="   24.500">  1  9  2 -1</clus>
<clus scale="   90.687">  7  8 -1 -1</clus>
<clus scale="   93.659">  5  6 -1 -1</clus>
<clus scale="  236.432">  2  7  1 -1</clus>
<clus scale="  236.432">  2  5  1 -1</clus>
</clustering>
</event>
<event>
 9    1  0.1713970E-005  0.9931979E+02  0.7546771E-02  0.1283008E+00
          2   -1    0    0  502    0  0.00000000000E+00  0.00000000000E+00  0.18731704585E+03  0.18731704585E+03  0.00000000000E+00 0. -1.
         -2   -1    0    0    0  501 -0.00000000000E+00 -0.00000000000E+00 -0.78421229520E+02  0.78421229520E+02  0.00000000000E+00 0.  1.
         23    2    1    2    0    0  0.22463664482E+02  0.34889340094E+02  0.26270381260E+02  0.10373077514E+03  0.91367710414E+02 0.  0.
         23    2    1    2    0    0  0.12712720318E+01 -0.29835244048E+02  0.93127460434E+02  0.13556541947E+03  0.93880248984E+02 0.  0.
        -13    1    4    4    0    0  0.44468610989E+02 -0.31086890007E+02  0.41954445830E+02  0.68585914141E+02  0.00000000000E+00 0.  1.
         13    1    4    4    0    0 -0.43197338957E+02  0.12516459593E+01  0.51173014603E+02  0.66979505329E+02  0.00000000000E+00 0. -1.
        -13    1    3    3    0    0  0.31756450569E+02 -0.10762627991E+02  0.42734566058E+02  0.54318960319E+02  0.00000000000E+00 0.  1.
         13    1    3    3    0    0 -0.92927860875E+01  0.45651968085E+02 -0.16464184797E+02  0.49411814825E+02  0.00000000000E+00 0. -1.
         21    1    1    2  502  501 -0.23734936514E+02 -0.50540960463E+01 -0.10502025361E+02  0.26442080758E+02  0.00000000000E+00 0. -1.
<scales pt_clust_5="13000.00000" pt_clust_6="13000.00000" pt_clust_7="13000.00000" pt_clust_8="13000.00000" pt_clust_9="24.26708"></scales>
<clustering>
<clus scale="   24.267">  2  9  1 -1</clus>
<clus scale="   91.368">  7  8 -1 -1</clus>
<clus scale="   93.880">  5  6 -1 -1</clus>
<clus scale="   96.948">  2  7  1 -1</clus>
<clus scale="   99.320">  1  5  2 -1</clus>
</clustering>
</event>
<event>
 9    1  0.1713970E-005  0.1210625E+03  0.7546771E-02  0.1245030E+00
          1   -1    0    0  502    0  0.00000000000E+00  0.00000000000E+00  0.11433991622E+04  0.11433991622E+04  0.00000000000E+00 0. -1.
         -1   -1    0    0    0  501 -0.00000000000E+00 -0.00000000000E+00 -0.23605837310E+02  0.23605837310E+02  0.00000000000E+00 0.  1.
         23    2    1    2    0    0 -0.69129234627E+02 -0.27425518744E+01  0.22562707262E+03  0.25314779511E+03  0.91596165863E+02 0.  0.
         23    2    1    2    0    0  0.50376862278E+02 -0.54986706195E+02  0.54578269879E+03  0.56022544813E+03  0.10204132654E+03 0.  0.
        -11    1    3    3    0    0 -0.84418237338E+02 -0.24477250214E+02  0.18088483497E+03  0.20110916959E+03  0.00000000000E+00 0. -1.
         11    1    3    3    0    0  0.15289002711E+02  0.21734698340E+02  0.44742237648E+02  0.52038625516E+02  0.00000000000E+00 0.  1.
        -13    1    4    4    0    0  0.27745169712E+02 -0.84171344550E+02  0.35453447573E+03  0.36544398225E+03  0.00000000000E+00 0. -1.
         13    1    4    4    0    0  0.22631692565E+02  0.29184638355E+02  0.19124822306E+03  0.19478146588E+03  0.00000000000E+00 0.  1.
         21    1    1    2  502  501  0.18752372350E+02  0.57729258070E+02  0.34838355353E+03  0.35363175632E+03  0.00000000000E+00 0.  1.
<scales pt_clust_5="13000.00000" pt_clust_6="13000.00000" pt_clust_7="13000.00000" pt_clust_8="13000.00000" pt_clust_9="60.69859"></scales>
<clustering>
<clus scale="   60.699">  1  9  2 -1</clus>
<clus scale="   91.596">  5  6 -1 -1</clus>
<clus scale="  102.041">  7  8 -1 -1</clus>
<clus scale="  112.399">  2  5  1 -1</clus>
<clus scale="   60.699">  1  5  2 -1</clus>
</clustering>
</event>
<event>
 9    1  0.1713970E-005  0.1084008E+03  0.7546771E-02  0.1267755E+00
          1   -1    0    0  502    0  0.00000000000E+00  0.00000000000E+00  0.28137001233E+03  0.28137001233E+03  0.00000000000E+00 0. -1.
         -1   -1    0    0    0  501 -0.00000000000E+00 -0.00000000000E+00 -0.67932134750E+02  0.67932134750E+02  0.00000000000E+00 0.  1.
         23    2    1    2    0    0 -0.23110055335E+02  0.28724621089E+02  0.37710432000E+02  0.10667457914E+03  0.92726536859E+02 0.  0.
         23    2    1    2    0    0  0.17382240906E-01 -0.39867278807E+02  0.18537905560E+03  0.21523078077E+03  0.10183071499E+03 0.  0.
        -11    1    4    4    0    0  0.44828490891E+02  0.55554842656E+01  0.68130119404E+02  0.81744542148E+02  0.00000000000E+00 0.  1.
         11    1    4    4    0    0 -0.44811108650E+02 -0.45422763073E+02  0.11724893619E+03  0.13348623862E+03  0.00000000000E+00 0. -1.
        -13    1    3    3    0    0 -0.31450563735E+02 -0.14126939422E+02  0.50533383899E+02  0.61174596565E+02  0.00000000000E+00 0.  1.
         13    1    3    3    0    0  0.83405084002E+01  0.42851560510E+02 -0.12822951898E+02  0.45499982571E+02  0.00000000000E+00 0. -1.
         21    1    1    2  502  501  0.23092673094E+02  0.11142657718E+02 -0.96516100139E+01  0.27396787175E+02  0.00000000000E+00 0.  1.
<scales pt_clust_5="13000.00000" pt_clust_6="13000.00000" pt_clust_7="13000.00000" pt_clust_8="13000.00000" pt_clust_9="25.64041"></scales>
<clustering>
<clus scale="   25.640">  2  9  1 -1</clus>
<clus scale="   92.727">  7  8 -1 -1</clus>
<clus scale="   99.897">  2  7  1 -1</clus>
<clus scale="  101.831">  5  6 -1 -1</clus>
<clus scale="  108.401">  1  5  2 -1</clus>
</clustering>
</event>
<event>
 9    1  0.1713970E-005  0.1163221E+03  0.7546771E-02  0.1249578E+00
          3   -1    0    0  502    0  0.00000000000E+00  0.00000000000E+00  0.24231712493E+03  0.24231712493E+03  0.00000000000E+00 0. -1.
         -3   -1    0    0    0  501 -0.00000000000E+00 -0.00000000000E+00 -0.94112315162E+02  0.94112315162E+02  0.00000000000E+00 0.  1.
         23    2    1    2    0    0  0.25080357214E+02  0.48900824664E+02  0.48572415600E+00  0.10602640361E+03  0.90669991523E+02 0.  0.
         23    2    1    2    0    0 -0.46677616459E+02 -0.64771200560E+02  0.16066867366E+03  0.20063724624E+03  0.89815219117E+02 0.  0.
        -11    1    3    3    0    0  0.53021565486E+02  0.53317481183E+02 -0.10004205388E+02  0.75855944604E+02  0.00000000000E+00 0.  1.
         11    1    3    3    0    0 -0.27941208272E+02 -0.44166565192E+01  0.10489929544E+02  0.30170459002E+02  0.00000000000E+00 0. -1.
        -13    1    4    4    0    0 -0.43321083221E+02 -0.30873140723E+02  0.21527846605E+02  0.57387413681E+02  0.00000000000E+00 0.  1.
         13    1    4    4    0    0 -0.33565332373E+01 -0.33898059837E+02  0.13914082705E+03  0.14324983256E+03  0.00000000000E+00 0. -1.
         21    1    1    2  502  501  0.21597259245E+02  0.15870375896E+02 -0.12949588049E+02  0.29765790240E+02  0.00000000000E+00 0.  1.
<scales pt_clust_5="13000.00000" pt_clust_6="13000.00000" pt_clust_7="13000.00000" pt_clust_8="13000.00000" pt_clust_9="26.80131"></scales>
<clustering>
<clus scale="   26.801">  2  9  1 -1</clus>
<clus scale="   89.815">  7  8 -1 -1</clus>
<clus scale="   90.670">  5  6 -1 -1</clus>
<clus scale="  115.657">  1  7  2 -1</clus>
<clus scale="  115.657">  1  5  2 -1</clus>
</clustering>
</event>
<event>
 9    1  0.1713970E-005  0.1056958E+03  0.7546771E-02  0.1270573E+00
          2   -1    0    0  502    0  0.00000000000E+00  0.00000000000E+00  0.32979712630E+03  0.32979712630E+03  0.00000000000E+00 0. -1.
         -2   -1    0    0    0  501 -0.00000000000E+00 -0.00000000000E+00 -0.25848802429E+03  0.25848802429E+03  0.00000000000E+00 0.  1.
         23    2    1    2    0    0 -0.40738869747E+02  0.62936769944E+01 -0.11687450195E+03  0.15321208673E+03  0.90083452609E+02 0.  0.
         23    2    1    2    0    0  0.40583971458E+02 -0.26773145944E+02  0.30166963687E+03  0.31975388807E+03  0.94202542634E+02 0.  0.
        -11    1    3    3    0    0 -0.19691718709E+02 -0.41945914084E+02 -0.51332559975E+02  0.69153851720E+02  0.00000000000E+00 0.  1.
         11    1    3    3    0    0 -0.21047151037E+02  0.48239591079E+02 -0.65541941976E+02  0.84058235005E+02  0.00000000000E+00 0. -1.
        -13    1    4    4    0    0  0.55469011500E+02  0.39424882889E+01  0.26004476704E+03  0.26592411571E+03  0.00000000000E+00 0. -1.
         13    1    4    4    0    0 -0.14885040042E+02 -0.30715634233E+02  0.41624869835E+02  0.53829772358E+02  0.00000000000E+00 0.  1.
         21    1    1    2  502  501  0.15489828837E+00  0.20479468949E+02 -0.11348603291E+03  0.11531917580E+03  0.00000000000E+00 0. -1.
<scales pt_clust_5="13000.00000" pt_clust_6="13000.00000" pt_clust_7="13000.00000" pt_clust_8="13000.00000" pt_clust_9="20.48005"></scales>
<clustering>
<clus scale="   20.480">  2  9  1 -1</clus>
<clus scale="   90.083">  5  6 -1 -1</clus>
<clus scale="   94.203">  7  8 -1 -1</clus>
<clus scale="  102.042">  2  5  1 -1</clus>
<clus scale="  105.696">  1  5  2 -1</clus>
</clustering>
</event>
<event>
 9    1  0.1713970E-005  0.1106056E+03  0.7546771E-02  0.1261548E+00
          1   -1    0    0  502    0  0.00000000000E+00  0.00000000000E+00  0.46403656619E+02  0.46403656619E+02  0.00000000000E+00 0. -1.
         -1   -1    0    0    0  501 -0.00000000000E+00 -0.00000000000E+00 -0.33458197864E+03  0.33458197864E+03  0.00000000000E+00 0.  1.
         23    2    1    2    0    0 -0.38835214672E+02  0.59880608362E+02 -0.16661392434E+03  0.20379950982E+03  0.93167479638E+02 0.  0.
         23    2    1    2    0    0  0.35856527834E+02 -0.31308974511E+02 -0.99157201263E+02  0.14075408889E+03  0.87827219601E+02 0.  0.
        -11    1    4    4    0    0  0.17281134701E+02  0.30490629899E+02 -0.40366747508E+02  0.53458305552E+02  0.00000000000E+00 0.  1.
         11    1    4    4    0    0  0.18575393134E+02 -0.61799604410E+02 -0.58790453755E+02  0.87295783335E+02  0.00000000000E+00 0. -1.
        -13    1    3    3    0    0 -0.25411472507E+02 -0.11790907691E+02 -0.78524720886E+01  0.29093465883E+02  0.00000000000E+00 0. -1.
         13    1    3    3    0    0 -0.13423742164E+02  0.71671516053E+02 -0.15876145225E+03  0.17470604393E+03  0.00000000000E+00 0.  1.
         21    1    1    2  502  501  0.29786868373E+01 -0.28571633850E+02 -0.22407196422E+02  0.36432036556E+02  0.00000000000E+00 0. -1.
<scales pt_clust_5="13000.00000" pt_clust_6="13000.00000" pt_clust_7="13000.00000" pt_clust_8="13000.00000" pt_clust_9="28.72648"></scales>
<clustering>
<clus scale="   28.726">  1  9  2 -1</clus>
<clus scale="   87.827">  5  6 -1 -1</clus>
<clus scale="   93.167">  7  8 -1 -1</clus>
<clus scale="  106.146">  1  5  2 -1</clus>
<clus scale="   28.726">  1  5  2 -1</clus>
</clustering>
</event>
<event>
 9    1  0.1713970E-005  0.1121318E+03  0.7546771E-02  0.1256721E+00
          1   -1    0    0  502    0  0.00000000000E+00  0.00000000000E+00  0.19879412612E+03  0.19879412612E+03  0.00000000000E+00 0. -1.
         -1   -1    0    0    0  501 -0.00000000000E+00 -0.00000000000E+00 -0.10520776901E+03  0.10520776901E+03  0.00000000000E+00 0.  1.
         23    2    1    2    0    0 -0.82575675730E+02  0.19514756275E+02  0.52585463764E+02  0.13497232932E+03  0.90844541649E+02 0.  0.
         23    2    1    2    0    0  0.52342667974E+02  0.15795128036E+02  0.56226510640E+02  0.12011492475E+03  0.90977654892E+02 0.  0.
        -11    1    3    3    0    0 -0.49249423493E+02 -0.33587316442E+02  0.13593244521E+02  0.61142373497E+02  0.00000000000E+00 0.  1.
         11    1    3    3    0    0 -0.33326252236E+02  0.53102072717E+02  0.38992219243E+02  0.73829955821E+02  0.00000000000E+00 0. -1.
        -13    1    4    4    0    0  0.88975905939E+01 -0.36530390566E+02  0.14337754315E+02  0.40239380612E+02  0.00000000000E+00 0.  1.
         13    1    4    4    0    0  0.43445077380E+02  0.52325518602E+02  0.41888756325E+02  0.79875544142E+02  0.00000000000E+00 0. -1.
         21    1    1    2  502  501  0.30233007756E+02 -0.35309884311E+02 -0.15225617295E+02  0.48914641060E+02  0.00000000000E+00 0. -1.
<scales pt_clust_5="13000.00000" pt_clust_6="13000.00000" pt_clust_7="13000.00000" pt_clust_8="13000.00000" pt_clust_9="46.48465"></scales>
<clustering>
<clus scale="   46.485">  2  9  1 -1</clus>
<clus scale="   90.845">  5  6 -1 -1</clus>
<clus scale="   90.978">  7  8 -1 -1</clus>
<clus scale="  112.024">  2  5  1 -1</clus>
<clus scale="  112.132">  1  5  2 -1</clus>
</clustering>
</event>
<event>
 9    1  0.1713970E-005  0.1950443E+03  0.7546771E-02  0.1175231E+00
         -3   -1    0    0    0  501 -0.00000000000E+00  0.00000000000E+00  0.70449450650E+03  0.70449450650E+03  0.00000000000E+00 0.  1.
          3   -1    0    0  502    0  0.00000000000E+00 -0.00000000000E+00 -0.35455758932E+03  0.35455758932E+03  0.00000000000E+00 0. -1.
         23    2    1    2    0    0 -0.91825404119E+02  0.14315784769E+03  0.60773429357E+03  0.63815273765E+03  0.94719959809E+02 0.  0.
         23    2    1    2    0    0  0.59933683564E+02  0.46538666706E+02 -0.30748076552E+02  0.12332040400E+03  0.92220300944E+02 0.  0.
        -13    1    4    4    0    0 -0.16527633330E+00  0.31587352697E+02 -0.49405377772E+02  0.58640255111E+02  0.00000000000E+00 0. -1.
         13    1    4    4    0    0  0.60098959897E+02  0.14951314009E+02  0.18657301219E+02  0.64680148887E+02  0.00000000000E+00 0.  1.
        -13    1    3    3    0    0 -0.43332643060E+02  0.12364273968E+03  0.51792140302E+03  0.53423573892E+03  0.00000000000E+00 0.  1.
         13    1    3    3    0    0 -0.48492761059E+02  0.19515108014E+02  0.89812890551E+02  0.10391699873E+03  0.00000000000E+00 0. -1.
         21    1    1    2  502  501  0.31891720555E+02 -0.18969651440E+03 -0.22704929984E+03  0.29757895418E+03  0.00000000000E+00 0. -1.
<scales pt_clust_5="13000.00000" pt_clust_6="13000.00000" pt_clust_7="13000.00000" pt_clust_8="13000.00000" pt_clust_9="170.50043"></scales>
<clustering>
<clus scale="   92.220">  5  6 -1 -1</clus>
<clus scale="   94.720">  7  8 -1 -1</clus>
<clus scale="  119.426">  2  5  1 -1</clus>
<clus scale="  170.500">  2  9  1 -1</clus>
<clus scale="  119.426">  2  5  1 -1</clus>
</clustering>
</event>
<event>
 9    1  0.1713970E-005  0.1964075E+03  0.7546771E-02  0.1152873E+00
          1   -1    0    0  502    0  0.00000000000E+00  0.00000000000E+00  0.91474673182E+03  0.91474673182E+03  0.00000000000E+00 0. -1.
         -1   -1    0    0    0  501 -0.00000000000E+00 -0.00000000000E+00 -0.58123350868E+02  0.58123350868E+02  0.00000000000E+00 0.  1.
         23    2    1    2    0    0  0.29658459242E+02  0.15396716057E+03  0.34064447174E+03  0.38555446176E+03  0.89599531926E+02 0.  0.
         23    2    1    2    0    0 -0.45304015515E+02 -0.18560706364E+03  0.50929284337E+03  0.55139111156E+03  0.90280239792E+02 0.  0.
        -11    1    3    3    0    0  0.14154599038E+02  0.11190818284E+03  0.13911466934E+03  0.17909965183E+03  0.00000000000E+00 0.  1.
         11    1    3    3    0    0  0.15503860204E+02  0.42058977730E+02  0.20152980240E+03  0.20645480993E+03  0.00000000000E+00 0. -1.
        -13    1    4    4    0    0 -0.10260437740E+02 -0.95965900777E+02  0.36789951722E+03  0.38034824236E+03  0.00000000000E+00 0.  1.
         13    1    4    4    0    0 -0.35043577775E+02 -0.89641162860E+02  0.14139332615E+03  0.17104286919E+03  0.00000000000E+00 0. -1.
         21    1    1    2  502  501  0.15645556274E+02  0.31639903064E+02  0.66860658419E+01  0.35924509370E+02  0.00000000000E+00 0.  1.
<scales pt_clust_5="13000.00000" pt_clust_6="13000.00000" pt_clust_7="13000.00000" pt_clust_8="13000.00000" pt_clust_9="35.29684"></scales>
<clustering>
<clus scale="   35.297">  2  9  1 -1</clus>
<clus scale="   89.600">  5  6 -1 -1</clus>
<clus scale="   90.280">  7  8 -1 -1</clus>
<clus scale="  196.096">  2  5  1 -1</clus>
<clus scale="  196.407">  1  5  2 -1</clus>
</clustering>
</event>
<event>
 9    1  0.1713970E-005  0.1049688E+03  0.7546771E-02  0.1270609E+00
         -1   -1    0    0    0  501 -0.00000000000E+00  0.00000000000E+00  0.36914599726E+02  0.36914599726E+02  0.00000000000E+00 0.  1.
          1   -1    0    0  502    0  0.00000000000E+00 -0.00000000000E+00 -0.57891492980E+03  0.57891492980E+03  0.00000000000E+00 0. -1.
         23    2    1    2    0    0 -0.11114393960E+02  0.39205665883E+02 -0.85224211819E+02  0.13035286872E+03  0.89822547905E+02 0.  0.
         23    2    1    2    0    0  0.41909710389E+02 -0.39356148451E+02 -0.43416043588E+03  0.44726876571E+03  0.90822543706E+02 0.  0.
        -11    1    4    4    0    0  0.68128632518E+02 -0.12463561898E+02 -0.25684395225E+03  0.26601816996E+03  0.00000000000E+00 0. -1.
         11    1    4    4    0    0 -0.26218922128E+02 -0.26892586553E+02 -0.17731648363E+03  0.18125059574E+03  0.00000000000E+00 0.  1.
        -11    1    3    3    0    0 -0.45996561898E+01  0.67563673044E+02 -0.47531274313E+02  0.82735897832E+02  0.00000000000E+00 0.  1.
         11    1    3    3    0    0 -0.65147377705E+01 -0.28358007161E+02 -0.37692937507E+02  0.47616970885E+02  0.00000000000E+00 0. -1.
         21    1    1    2  502  501 -0.30795316429E+02  0.15048256762E+00 -0.22615682373E+02  0.38207895103E+02  0.00000000000E+00 0. -1.
<scales pt_clust_5="13000.00000" pt_clust_6="13000.00000" pt_clust_7="13000.00000" pt_clust_8="13000.00000" pt_clust_9="30.79568"></scales>
<clustering>
<clus scale="   30.796">  1  9  2 -1</clus>
<clus scale="   89.823">  7  8 -1 -1</clus>
<clus scale="   90.823">  5  6 -1 -1</clus>
<clus scale="  104.105">  1  7  2 -1</clus>
<clus scale="  104.969">  2  5  1 -1</clus>
</clustering>
</event>
<event>
 9    1  0.1713970E-005  0.1996077E+03  0.7546771E-02  0.1150274E+00
          2   -1    0    0  502    0  0.00000000000E+00  0.00000000000E+00  0.67417779131E+03  0.67417779131E+03  0.00000000000E+00 0. -1.
         -2   -1    0    0    0  501 -0.00000000000E+00 -0.00000000000E+00 -0.13770788617E+03  0.13770788617E+03  0.00000000000E+00 0.  1.
         23    2    1    2    0    0 -0.12164658185E+03  0.15192689037E+03  0.16218682198E+01  0.21468030556E+03  0.90583288995E+02 0.  0.
         23    2    1    2    0    0  0.77327223286E+02 -0.15626942299E+03  0.50843697095E+03  0.54543078801E+03  0.92665846264E+02 0.  0.
        -11    1    3    3    0    0 -0.11576852398E+03  0.84979530001E+02 -0.17840376771E+02  0.14471403079E+03  0.00000000000E+00 0.  1.
         11    1    3    3    0    0 -0.58780578658E+01  0.66947360373E+02  0.19462244990E+02  0.69966274771E+02  0.00000000000E+00 0. -1.
        -11    1    4    4    0    0  0.28627304128E+02 -0.20858118611E+00  0.13129790156E+03  0.13438268118E+03  0.00000000000E+00 0. -1.
         11    1    4    4    0    0  0.48699919158E+02 -0.15606084181E+03  0.37713906939E+03  0.41104810683E+03  0.00000000000E+00 0.  1.
         21    1    1    2  502  501  0.44319358562E+02  0.43425326168E+01  0.26411065972E+02  0.51774583906E+02  0.00000000000E+00 0. -1.
<scales pt_clust_5="13000.00000" pt_clust_6="13000.00000" pt_clust_7="13000.00000" pt_clust_8="13000.00000" pt_clust_9="44.53160"></scales>
<clustering>
<clus scale="   44.532">  2  9  1 -1</clus>
<clus scale="   90.583">  5  6 -1 -1</clus>
<clus scale="   92.666">  7  8 -1 -1</clus>
<clus scale="  198.649">  2  5  1 -1</clus>
<clus scale="  199.608">  1  5  2 -1</clus>
</clustering>
</event>
<event>
 9    1  0.1713970E-005  0.1523328E+03  0.7546771E-02  0.1219614E+00
         -1   -1    0    0    0  501 -0.00000000000E+00  0.00000000000E+00  0.39084010515E+03  0.39084010515E+03  0.00000000000E+00 0.  1.
          1   -1    0    0  502    0  0.00000000000E+00 -0.00000000000E+00 -0.97899404060E+02  0.97899404060E+02  0.00000000000E+00 0. -1.
         23    2    1    2    0    0 -0.21675258794E+02  0.26222148055E+02  0.14241838910E+03  0.17128794331E+03  0.88877129094E+02 0.  0.
         23    2    1    2    0    0  0.10972302059E+03  0.49887164824E+02  0.46958424101E+02  0.16166159595E+03  0.96961371426E+02 0.  0.
        -11    1    4    4    0    0  0.57343512750E+02  0.76498409549E+02  0.23899973048E+02  0.98546911823E+02  0.00000000000E+00 0.  1.
         11    1    4    4    0    0  0.52379507838E+02 -0.26611244725E+02  0.23058451053E+02  0.63114684124E+02  0.00000000000E+00 0. -1.
        -13    1    3    3    0    0 -0.33558331240E+02 -0.19219695580E+02  0.28419631372E+02  0.47992017473E+02  0.00000000000E+00 0.  1.
         13    1    3    3    0    0  0.11883072445E+02  0.45441843635E+02  0.11399875773E+03  0.12329592583E+03  0.00000000000E+00 0. -1.
         21    1    1    2  502  501 -0.88047761794E+02 -0.76109312880E+02  0.10356388789E+03  0.15578996995E+03  0.00000000000E+00 0.  1.
<scales pt_clust_5="13000.00000" pt_clust_6="13000.00000" pt_clust_7="13000.00000" pt_clust_8="13000.00000" pt_clust_9="117.48947"></scales>
<clustering>
<clus scale="   88.877">  7  8 -1 -1</clus>
<clus scale="   95.166">  1  7  2 -1</clus>
<clus scale="   96.961">  5  6 -1 -1</clus>
<clus scale="  117.489">  1  9  2 -1</clus>
<clus scale="  152.333">  2  5  1 -1</clus>
</clustering>
</event>
<event>
 9    1  0.1713970E-005  0.2434597E+03  0.7546771E-02  0.1117569E+00
          2   -1    0    0  502    0  0.00000000000E+00  0.00000000000E+00  0.41881409644E+03  0.41881409644E+03  0.00000000000E+00 0. -1.
         -2   -1    0    0    0  501 -0.00000000000E+00 -0.00000000000E+00 -0.26260150618E+03  0.26260150618E+03  0.00000000000E+00 0.  1.
         23    2    1    2    0    0  0.97735967136E+02 -0.24841839342E+03  0.13470325136E+03  0.31277095182E+03  0.91742492388E+02 0.  0.
         23    2    1    2    0    0 -0.12629051022E+03  0.15185048624E+03  0.10092851004E+03  0.24039439788E+03  0.92709434527E+02 0.  0.
        -13    1    3    3    0    0  0.63321664561E+02 -0.72311445427E+02  0.15530790433E+02  0.97364181268E+02  0.00000000000E+00 0.  1.
         13    1    3    3    0    0  0.34414302575E+02 -0.17610694800E+03  0.11917246093E+03  0.21540677055E+03  0.00000000000E+00 0. -1.
        -13    1    4    4    0    0 -0.13886311632E+03  0.11880788710E+03  0.82217932519E+02  0.20039477922E+03  0.00000000000E+00 0.  1.
         13    1    4    4    0    0  0.12572606096E+02  0.33042599135E+02  0.18710577518E+02  0.39999618657E+02  0.00000000000E+00 0. -1.
         21    1    1    2  502  501  0.28554543087E+02  0.96567907185E+02 -0.79419171136E+02  0.12825025292E+03  0.00000000000E+00 0.  1.
<scales pt_clust_5="13000.00000" pt_clust_6="13000.00000" pt_clust_7="13000.00000" pt_clust_8="13000.00000" pt_clust_9="100.70116"></scales>
<clustering>
<clus scale="   91.742">  5  6 -1 -1</clus>
<clus scale="   92.709">  7  8 -1 -1</clus>
<clus scale="  100.701">  2  9  1 -1</clus>
<clus scale="  243.093">  2  5  1 -1</clus>
<clus scale="  243.460">  1  5  2 -1</clus>
</clustering>
</event>
<event>
 9    1  0.1713970E-005  0.1076132E+03  0.7546771E-02  0.1265155E+00
          1   -1    0    0  502    0  0.00000000000E+00  0.00000000000E+00  0.27794385734E+03  0.27794385734E+03  0.00000000000E+00 0. -1.
         -1   -1    0    0    0  501 -0.00000000000E+00 -0.00000000000E+00 -0.12351584590E+03  0.12351584590E+03  0.00000000000E+00 0.  1.
         23    2    1    2    0    0 -0.79980642015E+01 -0.57782934946E+02 -0.76294271480E+02  0.13236188212E+03  0.91082464699E+02 0.  0.
         23    2    1    2    0    0  0.35598565441E+02  0.45161103970E+02  0.16861040468E+03  0.19996762725E+03  0.90833915526E+02 0.  0.
        -11    1    4    4    0    0  0.17640915748E+02  0.34462346497E+02  0.17410246899E+03  0.17835505303E+03  0.00000000000E+00 0. -1.
         11    1    4    4    0    0  0.17957649693E+02  0.10698757473E+02 -0.54920643106E+01  0.21612574219E+02  0.00000000000E+00 0.  1.
        -13    1    3    3    0    0  0.35294011139E+02 -0.45646356534E+02 -0.21720289896E+02  0.61652478298E+02  0.00000000000E+00 0. -1.
         13    1    3    3    0    0 -0.43292075341E+02 -0.12136578412E+02 -0.54573981584E+02  0.70709403821E+02  0.00000000000E+00 0.  1.
         21    1    1    2  502  501 -0.27600501240E+02  0.12621830976E+02  0.62111878245E+02  0.69130193873E+02  0.00000000000E+00 0.  1.
<scales pt_clust_5="13000.00000" pt_clust_6="13000.00000" pt_clust_7="13000.00000" pt_clust_8="13000.00000" pt_clust_9="30.34960"></scales>
<clustering>
<clus scale="   30.350">  1  9  2 -1</clus>
<clus scale="   90.834">  5  6 -1 -1</clus>
<clus scale="   91.082">  7  8 -1 -1</clus>
<clus scale="  107.403">  1  5  2 -1</clus>
<clus scale="   30.350">  1  5  2 -1</clus>
</clustering>
</event>
<event>
 9    1  0.1713970E-005  0.9618223E+02  0.7546771E-02  0.1290118E+00
          1   -1    0    0  502    0  0.00000000000E+00  0.00000000000E+00  0.18637367582E+03  0.18637367582E+03  0.00000000000E+00 0. -1.
         -1   -1    0    0    0  501 -0.00000000000E+00 -0.00000000000E+00 -0.64320737275E+02  0.64320737275E+02  0.00000000000E+00 0.  1.
         23    2    1    2    0    0 -0.10720559910E+02  0.17382547380E+02  0.38774569314E+02  0.10212089122E+03  0.92239502604E+02 0.  0.
         23    2    1    2    0    0  0.34373470984E+02 -0.15739873404E+02  0.54343184413E+02  0.11116491991E+03  0.89303855486E+02 0.  0.
        -13    1    3    3    0    0 -0.24890135515E+02 -0.13556806244E+02 -0.19664153619E+02  0.34496156004E+02  0.00000000000E+00 0.  1.
         13    1    3    3    0    0  0.14169575606E+02  0.30939353624E+02  0.58438722933E+02  0.67624735220E+02  0.00000000000E+00 0. -1.
        -13    1    4    4    0    0  0.15480878694E+01 -0.27042405460E+02 -0.16890681012E+02  0.31921518983E+02  0.00000000000E+00 0.  1.
         13    1    4    4    0    0  0.32825383115E+02  0.11302532056E+02  0.71233865425E+02  0.79243400930E+02  0.00000000000E+00 0. -1.
         21    1    1    2  502  501 -0.23652911074E+02 -0.16426739760E+01  0.28935184817E+02  0.37408601958E+02  0.00000000000E+00 0.  1.
<scales pt_clust_5="13000.00000" pt_clust_6="13000.00000" pt_clust_7="13000.00000" pt_clust_8="13000.00000" pt_clust_9="23.70988"></scales>
<clustering>
<clus scale="   23.710">  1  9  2 -1</clus>
<clus scale="   89.304">  7  8 -1 -1</clus>
<clus scale="   92.240">  5  6 -1 -1</clus>
<clus scale="   93.371">  1  7  2 -1</clus>
<clus scale="   23.710">  1  5  2 -1</clus>
</clustering>
</event>
<event>
 9    1  0.1713970E-005  0.2302871E+03  0.7546771E-02  0.1126913E+00
         -2   -1    0    0    0  501 -0.00000000000E+00  0.00000000000E+00  0.54122750327E+02  0.54122750327E+02  0.00000000000E+00 0.  1.
          2   -1    0    0  502    0  0.00000000000E+00 -0.00000000000E+00 -0.12116280942E+04  0.12116280942E+04  0.00000000000E+00 0. -1.
         23    2    1    2    0    0 -0.11200588862E+03  0.19831910426E+03 -0.45411348601E+03  0.51730775117E+03  0.97531866812E+02 0.  0.
         23    2    1    2    0    0  0.10980899383E+03 -0.16478047021E+03 -0.64787033961E+03  0.68354081828E+03  0.91002498967E+02 0.  0.
        -11    1    4    4    0    0  0.18061621076E+02 -0.96727497045E+02 -0.37566505919E+03  0.38833834157E+03  0.00000000000E+00 0. -1.
         11    1    4    4    0    0  0.91747372756E+02 -0.68052973164E+02 -0.27220528042E+03  0.29520247671E+03  0.00000000000E+00 0.  1.
        -11    1    3    3    0    0 -0.10297532780E+03  0.85605910816E+02 -0.26653555781E+03  0.29828424980E+03  0.00000000000E+00 0. -1.
         11    1    3    3    0    0 -0.90305608290E+01  0.11271319344E+03 -0.18757792819E+03  0.21902350136E+03  0.00000000000E+00 0.  1.
         21    1    1    2  502  501  0.21968947920E+01 -0.33538634047E+02 -0.55521518219E+02  0.64902275043E+02  0.00000000000E+00 0.  1.
<scales pt_clust_5="13000.00000" pt_clust_6="13000.00000" pt_clust_7="13000.00000" pt_clust_8="13000.00000" pt_clust_9="33.61051"></scales>
<clustering>
<clus scale="   33.611">  1  9  2 -1</clus>
<clus scale="   91.002">  5  6 -1 -1</clus>
<clus scale="   97.532">  7  8 -1 -1</clus>
<clus scale="  227.599">  2  5  1 -1</clus>
<clus scale="  227.599">  2  5  1 -1</clus>
</clustering>
</event>
<event>
 9    1  0.1713970E-005  0.1054697E+03  0.7546771E-02  0.1270373E+00
          1   -1    0    0  502    0  0.00000000000E+00  0.00000000000E+00  0.51294603904E+03  0.51294603904E+03  0.00000000000E+00 0. -1.
         -1   -1    0    0    0  501 -0.00000000000E+00 -0.00000000000E+00 -0.65892221849E+02  0.65892221849E+02  0.00000000000E+00 0.  1.
         23    2    1    2    0    0 -0.13141579296E+02 -0.49121605594E+02  0.99361973270E+01  0.10759799376E+03  0.94302529136E+02 0.  0.
         23    2    1    2    0    0 -0.30504971423E+02  0.38651936051E+02  0.39904553879E+03  0.41238350263E+03  0.91642161535E+02 0.  0.
        -11    1    4    4    0    0 -0.40165039274E+02 -0.15391936163E+02  0.10884945501E+03  0.11703993308E+03  0.00000000000E+00 0.  1.
         11    1    4    4    0    0  0.96600678512E+01  0.54043872214E+02  0.29019608378E+03  0.29534356955E+03  0.00000000000E+00 0. -1.
        -13    1    3    3    0    0 -0.33019577123E+02  0.13699337605E+02 -0.12684549188E+02  0.37932335973E+02  0.00000000000E+00 0.  1.
         13    1    3    3    0    0  0.19877997827E+02 -0.62820943200E+02  0.22620746515E+02  0.69665657788E+02  0.00000000000E+00 0. -1.
         21    1    1    2  502  501  0.43646550719E+02  0.10469669543E+02  0.38072081077E+02  0.58856764501E+02  0.00000000000E+00 0. -1.
<scales pt_clust_5="13000.00000" pt_clust_6="13000.00000" pt_clust_7="13000.00000" pt_clust_8="13000.00000" pt_clust_9="44.88469"></scales>
<clustering>
<clus scale="   44.885">  2  9  1 -1</clus>
<clus scale="   91.642">  5  6 -1 -1</clus>
<clus scale="   94.303">  7  8 -1 -1</clus>
<clus scale="  103.098">  1  5  2 -1</clus>
<clus scale="  103.098">  1  5  2 -1</clus>
</clustering>
</event>
<event>
 9    1  0.1713970E-005  0.1188528E+03  0.7546771E-02  0.1251736E+00
         -1   -1    0    0    0  501 -0.00000000000E+00  0.00000000000E+00  0.83328214926E+02  0.83328214926E+02  0.00000000000E+00 0.  1.
          1   -1    0    0  502    0  0.00000000000E+00 -0.00000000000E+00 -0.27321899865E+03  0.27321899865E+03  0.00000000000E+00 0. -1.
         23    2    1    2    0    0  0.44250399713E+01 -0.16656575144E+02 -0.44305230486E+02  0.10698193503E+03  0.95839232570E+02 0.  0.
         23    2    1    2    0    0 -0.32722872143E+02  0.45560497698E+02 -0.16300002884E+03  0.20552588703E+03  0.11191664545E+03 0.  0.
        -13    1    4    4    0    0 -0.71071464880E+02  0.49397155710E+02 -0.10902790059E+03  0.13920601718E+03  0.00000000000E+00 0. -1.
         13    1    4    4    0    0  0.38348592736E+02 -0.38366580123E+01 -0.53972128253E+02  0.66319869856E+02  0.00000000000E+00 0.  1.
        -13    1    3    3    0    0  0.14532442193E+02 -0.50794923490E+02 -0.36762734644E+01  0.52960656293E+02  0.00000000000E+00 0.  1.
         13    1    3    3    0    0 -0.10107402221E+02  0.34138348346E+02 -0.40628957021E+02  0.54021278735E+02  0.00000000000E+00 0. -1.
         21    1    1    2  502  501  0.28297832172E+02 -0.28903922554E+02  0.17414475600E+02  0.44039391516E+02  0.00000000000E+00 0.  1.
<scales pt_clust_5="13000.00000" pt_clust_6="13000.00000" pt_clust_7="13000.00000" pt_clust_8="13000.00000" pt_clust_9="40.45002"></scales>
<clustering>
<clus scale="   40.450">  1  9  2 -1</clus>
<clus scale="   95.839">  7  8 -1 -1</clus>
<clus scale="  103.855">  1  7  2 -1</clus>
<clus scale="  111.917">  5  6 -1 -1</clus>
<clus scale="  118.853">  2  5  1 -1</clus>
</clustering>
</event>
<event>
 9    1  0.1713970E-005  0.1379964E+03  0.7546771E-02  0.1229830E+00
          1   -1    0    0  502    0  0.00000000000E+00  0.00000000000E+00  0.26534348096E+03  0.26534348096E+03  0.00000000000E+00 0. -1.
         -1   -1    0    0    0  501 -0.00000000000E+00 -0.00000000000E+00 -0.28808327768E+03  0.28808327768E+03  0.00000000000E+00 0.  1.
         23    2    1    2    0    0 -0.53214634863E+02  0.50308934591E+02  0.77682530779E+02  0.14064058394E+03  0.91555513207E+02 0.  0.
         23    2    1    2    0    0  0.22741770234E+02  0.52914719005E+02  0.12542878792E+03  0.16260135408E+03  0.85963154360E+02 0.  0.
        -11    1    3    3    0    0  0.25827122568E+02  0.13637694618E+02  0.27353910909E+02  0.40015789592E+02  0.00000000000E+00 0.  1.
         11    1    3    3    0    0 -0.79041757431E+02  0.36671239973E+02  0.50328619870E+02  0.10062479435E+03  0.00000000000E+00 0. -1.
        -13    1    4    4    0    0  0.98841673838E+01 -0.20117616975E+02  0.81607740230E+01  0.23854004072E+02  0.00000000000E+00 0.  1.
         13    1    4    4    0    0  0.12857602850E+02  0.73032335980E+02  0.11726801390E+03  0.13874735000E+03  0.00000000000E+00 0. -1.
         21    1    1    2  502  501  0.30472864629E+02 -0.10322365360E+03 -0.22585111542E+03  0.25018482063E+03  0.00000000000E+00 0.  1.
<scales pt_clust_5="13000.00000" pt_clust_6="13000.00000" pt_clust_7="13000.00000" pt_clust_8="13000.00000" pt_clust_9="103.25015"></scales>
<clustering>
<clus scale="   85.963">  7  8 -1 -1</clus>
<clus scale="   91.556">  5  6 -1 -1</clus>
<clus scale="  103.474">  1  7  2 -1</clus>
<clus scale="  103.250">  2  9  1 -1</clus>
<clus scale="  103.474">  1  5  2 -1</clus>
</clustering>
</event>
<event>
 9    1  0.1713970E-005  0.5163790E+03  0.7546771E-02  0.1009600E+00
         -1   -1    0    0    0  501 -0.00000000000E+00  0.00000000000E+00  0.48799779011E+03  0.48799779011E+03  0.00000000000E+00 0.  1.
          1   -1    0    0  502    0  0.00000000000E+00 -0.00000000000E+00 -0.11331603705E+04  0.11331603705E+04  0.00000000000E+00 0. -1.
         23    2    1    2    0    0 -0.32853803732E+03  0.12252224399E+03  0.10911879619E+03  0.37809379118E+03  0.89994783240E+02 0.  0.
         23    2    1    2    0    0  0.53062821838E+03 -0.19639164779E+03 -0.83544382516E+03  0.10130981259E+04  0.90914478109E+02 0.  0.
        -11    1    4    4    0    0  0.44390097450E+03 -0.12953180071E+03 -0.69963645692E+03  0.83864040829E+03  0.00000000000E+00 0. -1.
         11    1    4    4    0    0  0.86727243884E+02 -0.66859847077E+02 -0.13580736824E+03  0.17445771766E+03  0.00000000000E+00 0.  1.
        -13    1    3    3    0    0 -0.17736565381E+03  0.58801035285E+02  0.11541397851E+02  0.18721469164E+03  0.00000000000E+00 0.  1.
         13    1    3    3    0    0 -0.15117238351E+03  0.63721208703E+02  0.97577398339E+02  0.19087909954E+03  0.00000000000E+00 0. -1.
         21    1    1    2  502  501 -0.20209018106E+03  0.73869403804E+02  0.81162448549E+02  0.22996624351E+03  0.00000000000E+00 0.  1.
<scales pt_clust_5="13000.00000" pt_clust_6="13000.00000" pt_clust_7="13000.00000" pt_clust_8="13000.00000" pt_clust_9="215.16768"></scales>
<clustering>
<clus scale="   89.995">  7  8 -1 -1</clus>
<clus scale="   90.914">  5  6 -1 -1</clus>
<clus scale="  215.168">  1  9  2 -1</clus>
<clus scale="  516.218">  1  7  2 -1</clus>
<clus scale="  516.379">  2  5  1 -1</clus>
</clustering>
</event>
<event>
 9    1  0.1713970E-005  0.1042357E+03  0.7546771E-02  0.1272597E+00
          1   -1    0    0  502    0  0.00000000000E+00  0.00000000000E+00  0.35240870153E+03  0.35240870153E+03  0.00000000000E+00 0. -1.
         -1   -1    0    0    0  501 -0.00000000000E+00 -0.00000000000E+00 -0.18636627155E+03  0.18636627155E+03  0.00000000000E+00 0.  1.
         23    2    1    2    0    0  0.10103387665E+02 -0.26552706675E+02 -0.15347479161E+03  0.18081992204E+03  0.91291882846E+02 0.  0.
         23    2    1    2    0    0  0.42051107011E+01  0.47051106919E+02  0.31577241942E+03  0.33267776713E+03  0.93438676452E+02 0.  0.
        -11    1    3    3    0    0 -0.29304972515E+02 -0.99109212317E+01 -0.12274277342E+02  0.33281611409E+02  0.00000000000E+00 0. -1.
         11    1    3    3    0    0  0.39408360179E+02 -0.16641785443E+02 -0.14120051427E+03  0.14753831063E+03  0.00000000000E+00 0.  1.
        -11    1    4    4    0    0  0.18380480802E+02  0.72246992027E+02  0.24888796602E+03  0.25981279715E+03  0.00000000000E+00 0. -1.
         11    1    4    4    0    0 -0.14175370101E+02 -0.25195885109E+02  0.66884453401E+02  0.72864969983E+02  0.00000000000E+00 0.  1.
         21    1    1    2  502  501 -0.14308498366E+02 -0.20498400244E+02  0.37448021750E+01  0.25277283900E+02  0.00000000000E+00 0. -1.
<scales pt_clust_5="13000.00000" pt_clust_6="13000.00000" pt_clust_7="13000.00000" pt_clust_8="13000.00000" pt_clust_9="24.99835"></scales>
<clustering>
<clus scale="   24.998">  2  9  1 -1</clus>
<clus scale="   91.292">  5  6 -1 -1</clus>
<clus scale="   93.439">  7  8 -1 -1</clus>
<clus scale="  102.316">  2  5  1 -1</clus>
<clus scale="  104.236">  1  5  2 -1</clus>
</clustering>
</event>
<event>
 9    1  0.1713970E-005  0.2503999E+03  0.7546771E-02  0.1113059E+00
          1   -1    0    0  502    0  0.00000000000E+00  0.00000000000E+00  0.11839170402E+04  0.11839170402E+04  0.00000000000E+00 0. -1.
         -1   -1    0    0    0  501 -0.00000000000E+00 -0.00000000000E+00 -0.77126877247E+02  0.77126877247E+02  0.00000000000E+00 0.  1.
         23    2    1    2    0    0  0.23937092575E+02  0.25697568380E+03  0.61206529551E+03  0.67052685568E+03  0.91503288238E+02 0.  0.
         23    2    1    2    0    0  0.37806952739E+02 -0.20919177254E+03  0.43315774725E+03  0.49108799362E+03  0.91385010246E+02 0.  0.
        -11    1    4    4    0    0  0.29343736579E+01 -0.19233815008E+03  0.35085977271E+03  0.40013142169E+03  0.00000000000E+00 0. -1.
         11    1    4    4    0    0  0.34872579081E+02 -0.16853622465E+02  0.82297974544E+02  0.90956571923E+02  0.00000000000E+00 0.  1.
        -13    1    3    3    0    0  0.49280378741E+02  0.17568079905E+03  0.34593620053E+03  0.39110632022E+03  0.00000000000E+00 0.  1.
         13    1    3    3    0    0 -0.25343286166E+02  0.81294884755E+02  0.26612909498E+03  0.27942053546E+03  0.00000000000E+00 0. -1.
         21    1    1    2  502  501 -0.61744045313E+02 -0.47783911260E+02  0.61567120233E+02  0.99429068188E+02  0.00000000000E+00 0.  1.
<scales pt_clust_5="13000.00000" pt_clust_6="13000.00000" pt_clust_7="13000.00000" pt_clust_8="13000.00000" pt_clust_9="78.07451"></scales>
<clustering>
<clus scale="   78.075">  2  9  1 -1</clus>
<clus scale="   91.385">  5  6 -1 -1</clus>
<clus scale="   91.503">  7  8 -1 -1</clus>
<clus scale="  250.357">  1  5  2 -1</clus>
<clus scale="  250.357">  1  5  2 -1</clus>
</clustering>
</event>
<event>
 9    1  0.1713970E-005  0.1851958E+03  0.7546771E-02  0.1162887E+00
         -2   -1    0    0    0  501 -0.00000000000E+00  0.00000000000E+00  0.14591184483E+03  0.14591184483E+03  0.00000000000E+00 0.  1.
          2   -1    0    0  502    0  0.00000000000E+00 -0.00000000000E+00 -0.41472241612E+03  0.41472241612E+03  0.00000000000E+00 0. -1.
         23    2    1    2    0    0 -0.12232513835E+03 -0.16431348994E+02  0.33291875879E+02  0.15610403241E+03  0.89591803374E+02 0.  0.
         23    2    1    2    0    0  0.17475041077E+03  0.48894267491E+00 -0.28696803163E+03  0.34768288876E+03  0.89413616588E+02 0.  0.
        -11    1    4    4    0    0  0.11649507821E+03 -0.27612941759E+02 -0.23848557747E+03  0.26685004865E+03  0.00000000000E+00 0. -1.
         11    1    4    4    0    0  0.58255332554E+02  0.28101884434E+02 -0.48482454156E+02  0.80832840113E+02  0.00000000000E+00 0.  1.
        -11    1    3    3    0    0 -0.10873994484E+03  0.14517324190E+02  0.47363927875E+02  0.11949255194E+03  0.00000000000E+00 0.  1.
         11    1    3    3    0    0 -0.13585193511E+02 -0.30948673184E+02 -0.14072051996E+02  0.36611480467E+02  0.00000000000E+00 0. -1.
         21    1    1    2  502  501 -0.52425272418E+02  0.15942406319E+02 -0.15134415540E+02  0.56847339789E+02  0.00000000000E+00 0.  1.
<scales pt_clust_5="13000.00000" pt_clust_6="13000.00000" pt_clust_7="13000.00000" pt_clust_8="13000.00000" pt_clust_9="54.79571"></scales>
<clustering>
<clus scale="   54.796">  1  9  2 -1</clus>
<clus scale="   89.414">  5  6 -1 -1</clus>
<clus scale="   89.592">  7  8 -1 -1</clus>
<clus scale="  185.110">  2  5  1 -1</clus>
<clus scale="  185.110">  2  5  1 -1</clus>
</clustering>
</event>
<event>
 9    1  0.1713970E-005  0.9233497E+02  0.7546771E-02  0.1297775E+00
         -2   -1    0    0    0  501 -0.00000000000E+00  0.00000000000E+00  0.61197957652E+02  0.61197957652E+02  0.00000000000E+00 0.  1.
          2   -1    0    0  502    0  0.00000000000E+00 -0.00000000000E+00 -0.28494341335E+03  0.28494341335E+03  0.00000000000E+00 0. -1.
         23    2    1    2    0    0  0.13460949966E+02  0.13649523562E+02 -0.25734573436E+02  0.96463808282E+02  0.90969727772E+02 0.  0.
         23    2    1    2    0    0  0.11079687262E+02 -0.67054925580E+01 -0.20347266000E+03  0.22359512690E+03  0.91792888107E+02 0.  0.
        -11    1    4    4    0    0 -0.34173271281E+02  0.10216880255E+02 -0.42267880349E+02  0.55306155366E+02  0.00000000000E+00 0.  1.
         11    1    4    4    0    0  0.45252958544E+02 -0.16922372813E+02 -0.16120477965E+03  0.16828897154E+03  0.00000000000E+00 0. -1.
        -11    1    3    3    0    0  0.45274628098E+01 -0.32269631580E+02 -0.36013792686E+02  0.48567687874E+02  0.00000000000E+00 0. -1.
         11    1    3    3    0    0  0.89334871560E+01  0.45919155142E+02  0.10279219250E+02  0.47896120408E+02  0.00000000000E+00 0.  1.
         21    1    1    2  502  501 -0.24540637228E+02 -0.69440310043E+01  0.54617777367E+01  0.26082435818E+02  0.00000000000E+00 0. -1.
<scales pt_clust_5="13000.00000" pt_clust_6="13000.00000" pt_clust_7="13000.00000" pt_clust_8="13000.00000" pt_clust_9="25.50417"></scales>
<clustering>
<clus scale="   25.504">  1  9  2 -1</clus>
<clus scale="   90.970">  7  8 -1 -1</clus>
<clus scale="   91.517">  1  7  2 -1</clus>
<clus scale="   91.793">  5  6 -1 -1</clus>
<clus scale="   92.335">  2  5  1 -1</clus>
</clustering>
</event>
<event>
 9    1  0.1713970E-005  0.9458630E+02  0.7546771E-02  0.1292528E+00
          1   -1    0    0  502    0  0.00000000000E+00  0.00000000000E+00  0.28425344822E+03  0.28425344822E+03  0.00000000000E+00 0. -1.
         -1   -1    0    0    0  501 -0.00000000000E+00 -0.00000000000E+00 -0.55809651575E+02  0.55809651575E+02  0.00000000000E+00 0.  1.
         23    2    1    2    0    0  0.11353391770E+02  0.21547117325E+02  0.38677329211E+02  0.99794142290E+02  0.88711652396E+02 0.  0.
         23    2    1    2    0    0  0.20955718865E+02 -0.30967875216E+02  0.18122843693E+03  0.20554825368E+03  0.89488472956E+02 0.  0.
        -13    1    3    3    0    0 -0.30197463983E+02  0.36908918979E+02  0.19459818160E+02  0.51505724478E+02  0.00000000000E+00 0. -1.
         13    1    3    3    0    0  0.41550855753E+02 -0.15361801654E+02  0.19217511051E+02  0.48288417812E+02  0.00000000000E+00 0.  1.
        -13    1    4    4    0    0 -0.31403690724E+02  0.39984974615E+01  0.40718970231E+02  0.51577265434E+02  0.00000000000E+00 0. -1.
         13    1    4    4    0    0  0.52359409588E+02 -0.34966372677E+02  0.14050946669E+03  0.15397098825E+03  0.00000000000E+00 0.  1.
         21    1    1    2  502  501 -0.32309110635E+02  0.94207578913E+01  0.85380305125E+01  0.34720703828E+02  0.00000000000E+00 0.  1.
<scales pt_clust_5="13000.00000" pt_clust_6="13000.00000" pt_clust_7="13000.00000" pt_clust_8="13000.00000" pt_clust_9="33.65456"></scales>
<clustering>
<clus scale="   33.655">  2  9  1 -1</clus>
<clus scale="   88.712">  5  6 -1 -1</clus>
<clus scale="   89.488">  7  8 -1 -1</clus>
<clus scale="   93.852">  2  5  1 -1</clus>
<clus scale="   94.586">  1  5  2 -1</clus>
</clustering>
</event>
<event>
 9    1  0.1713970E-005  0.1010860E+03  0.7546771E-02  0.1279246E+00
          1   -1    0    0  502    0  0.00000000000E+00  0.00000000000E+00  0.32652062731E+03  0.32652062731E+03  0.00000000000E+00 0. -1.
         -1   -1    0    0    0  501 -0.00000000000E+00 -0.00000000000E+00 -0.14023964621E+03  0.14023964621E+03  0.00000000000E+00 0.  1.
         23    2    1    2    0    0 -0.12465113849E+02  0.13721912371E+02 -0.31061379895E+01  0.94959675913E+02  0.93080728478E+02 0.  0.
         23    2    1    2    0    0  0.44143334951E+02  0.84839421938E+01  0.26677102943E+03  0.28528540097E+03  0.90555875383E+02 0.  0.
        -11    1    4    4    0    0  0.58757416210E+02  0.27213822786E+02  0.24375006685E+03  0.25220452256E+03  0.00000000000E+00 0. -1.
         11    1    4    4    0    0 -0.14614081259E+02 -0.18729880592E+02  0.23020962576E+02  0.33080878404E+02  0.00000000000E+00 0.  1.
        -11    1    3    3    0    0  0.29099013139E+02 -0.15666046257E+02 -0.23045325141E+02  0.40289757778E+02  0.00000000000E+00 0.  1.
         11    1    3    3    0    0 -0.41564126988E+02  0.29387958628E+02  0.19939187151E+02  0.54669918135E+02  0.00000000000E+00 0. -1.
         21    1    1    2  502  501 -0.31678221101E+02 -0.22205854564E+02 -0.77383910341E+02  0.86515196635E+02  0.00000000000E+00 0.  1.
<scales pt_clust_5="13000.00000" pt_clust_6="13000.00000" pt_clust_7="13000.00000" pt_clust_8="13000.00000" pt_clust_9="38.68604"></scales>
<clustering>
<clus scale="   38.686">  2  9  1 -1</clus>
<clus scale="   90.556">  5  6 -1 -1</clus>
<clus scale="   93.081">  7  8 -1 -1</clus>
<clus scale="   98.766">  1  5  2 -1</clus>
<clus scale="   98.766">  1  5  2 -1</clus>
</clustering>
</event>
<event>
 9    1  0.1713970E-005  0.9405854E+02  0.7546771E-02  0.1294801E+00
          3   -1    0    0  502    0  0.00000000000E+00  0.00000000000E+00  0.22754059294E+03  0.22754059294E+03  0.00000000000E+00 0. -1.
         -3   -1    0    0    0  501 -0.00000000000E+00 -0.00000000000E+00 -0.22866104137E+03  0.22866104137E+03  0.00000000000E+00 0.  1.
         23    2    1    2    0    0  0.97550787946E+01  0.15422159185E+02 -0.71406097920E+02  0.11733667887E+03  0.91302030817E+02 0.  0.
         23    2    1    2    0    0  0.16060201068E+02 -0.18431009361E+02  0.19280904947E+03  0.21361534309E+03  0.88648480428E+02 0.  0.
        -13    1    4    4    0    0  0.34024031047E+02  0.23389144189E+02  0.57001402611E+02  0.70383568070E+02  0.00000000000E+00 0.  1.
         13    1    4    4    0    0 -0.17963829979E+02 -0.41820153551E+02  0.13580764686E+03  0.14323177502E+03  0.00000000000E+00 0. -1.
        -13    1    3    3    0    0 -0.14089738358E+02  0.35220326952E+02 -0.77005829789E+02  0.85842238898E+02  0.00000000000E+00 0.  1.
         13    1    3    3    0    0  0.23844817152E+02 -0.19798167767E+02  0.55997318690E+01  0.31494439969E+02  0.00000000000E+00 0. -1.
         21    1    1    2  502  501 -0.25815279862E+02  0.30088501766E+01 -0.12252339997E+03  0.12524961235E+03  0.00000000000E+00 0.  1.
<scales pt_clust_5="13000.00000" pt_clust_6="13000.00000" pt_clust_7="13000.00000" pt_clust_8="13000.00000" pt_clust_9="25.99003"></scales>
<clustering>
<clus scale="   25.990">  2  9  1 -1</clus>
<clus scale="   88.648">  5  6 -1 -1</clus>
<clus scale="   91.302">  7  8 -1 -1</clus>
<clus scale="   91.485">  1  5  2 -1</clus>
<clus scale="   91.485">  1  5  2 -1</clus>
</clustering>
</event>
<event>
 9    1  0.1713970E-005  0.1195067E+03  0.7546771E-02  0.1245691E+00
         -1   -1    0    0    0  501 -0.00000000000E+00  0.00000000000E+00  0.30911357897E+03  0.30911357897E+03  0.00000000000E+00 0.  1.
          1   -1    0    0  502    0  0.00000000000E+00 -0.00000000000E+00 -0.23843897221E+03  0.23843897221E+03  0.00000000000E+00 0. -1.
         23    2    1    2    0    0  0.55427815125E+01  0.19178660639E+02  0.19713303498E+03  0.21566497977E+03  0.85155191059E+02 0.  0.
         23    2    1    2    0    0 -0.59391407251E+02 -0.57747255775E+02 -0.19885572177E+03  0.23376224779E+03  0.90769519161E+02 0.  0.
        -11    1    4    4    0    0 -0.33656284974E+02 -0.47780183416E+02 -0.19768100838E+03  0.20613944921E+03  0.00000000000E+00 0. -1.
         11    1    4    4    0    0 -0.25735122277E+02 -0.99670723590E+01 -0.11747133857E+01  0.27622798583E+02  0.00000000000E+00 0.  1.
        -13    1    3    3    0    0  0.38374575845E+02 -0.11177171526E+01  0.47191590106E+02  0.60835051900E+02  0.00000000000E+00 0.  1.
         13    1    3    3    0    0 -0.32831794333E+02  0.20296377792E+02  0.14994144488E+03  0.15482992786E+03  0.00000000000E+00 0. -1.
         21    1    1    2  502  501  0.53848625738E+02  0.38568595136E+02  0.72397293540E+02  0.98125323626E+02  0.00000000000E+00 0.  1.
<scales pt_clust_5="13000.00000" pt_clust_6="13000.00000" pt_clust_7="13000.00000" pt_clust_8="13000.00000" pt_clust_9="66.23603"></scales>
<clustering>
<clus scale="   66.236">  1  9  2 -1</clus>
<clus scale="   85.155">  7  8 -1 -1</clus>
<clus scale="   90.770">  5  6 -1 -1</clus>
<clus scale="  115.300">  1  7  2 -1</clus>
<clus scale="  119.507">  2  5  1 -1</clus>
</clustering>
</event>
<event>
 9    1  0.1713970E-005  0.2179506E+03  0.7546771E-02  0.1135597E+00
          1   -1    0    0  502    0  0.00000000000E+00  0.00000000000E+00  0.23782446065E+03  0.23782446065E+03  0.00000000000E+00 0. -1.
         -1   -1    0    0    0  501 -0.00000000000E+00 -0.00000000000E+00 -0.41146947382E+03  0.41146947382E+03  0.00000000000E+00 0.  1.
         23    2    1    2    0    0 -0.56805195041E+02  0.15483991545E+03 -0.14446754131E+03  0.23616762843E+03  0.87761316238E+02 0.  0.
         23    2    1    2    0    0 -0.56910126606E+02 -0.21831416556E+03  0.66117107738E+02  0.25175340960E+03  0.90047042804E+02 0.  0.
        -13    1    4    4    0    0  0.12627252871E+02 -0.11660369601E+03  0.49985471091E+02  0.12749281061E+03  0.00000000000E+00 0.  1.
         13    1    4    4    0    0 -0.69537379477E+02 -0.10171046955E+03  0.16131636647E+02  0.12426059899E+03  0.00000000000E+00 0. -1.
        -13    1    3    3    0    0 -0.74500550406E+02  0.14074435070E+03 -0.14208642166E+03  0.21341943558E+03  0.00000000000E+00 0.  1.
         13    1    3    3    0    0  0.17695355365E+02  0.14095564745E+02 -0.23811196476E+01  0.22748192846E+02  0.00000000000E+00 0. -1.
         21    1    1    2  502  501  0.11371532165E+03  0.63474250109E+02 -0.95294579596E+02  0.16137289644E+03  0.00000000000E+00 0.  1.
<scales pt_clust_5="13000.00000" pt_clust_6="13000.00000" pt_clust_7="13000.00000" pt_clust_8="13000.00000" pt_clust_9="130.23116"></scales>
<clustering>
<clus scale="   87.761">  7  8 -1 -1</clus>
<clus scale="   90.047">  5  6 -1 -1</clus>
<clus scale="  130.231">  2  9  1 -1</clus>
<clus scale="  217.016">  2  7  1 -1</clus>
<clus scale="  217.951">  1  5  2 -1</clus>
</clustering>
</event>
<event>
 9    1  0.1713970E-005  0.4118293E+03  0.7546771E-02  0.1039799E+00
          1   -1    0    0  502    0  0.00000000000E+00  0.00000000000E+00  0.91060048454E+03  0.91060048454E+03  0.00000000000E+00 0. -1.
         -1   -1    0    0    0  501 -0.00000000000E+00 -0.00000000000E+00 -0.43973015513E+03  0.43973015513E+03  0.00000000000E+00 0.  1.
         23    2    1    2    0    0 -0.13518860778E+03  0.37720836198E+03 -0.26559928722E+03  0.48958858404E+03  0.92692460491E+02 0.  0.
         23    2    1    2    0    0  0.15785547008E+03 -0.37373544547E+03  0.72345575632E+03  0.83437525157E+03  0.90538922278E+02 0.  0.
        -11    1    4    4    0    0  0.17767592524E+02 -0.11337343739E+03  0.14668119670E+03  0.18623801200E+03  0.00000000000E+00 0.  1.
         11    1    4    4    0    0  0.14008787756E+03 -0.26036200808E+03  0.57677455962E+03  0.64813723957E+03  0.00000000000E+00 0. -1.
        -11    1    3    3    0    0 -0.66099872880E+02  0.28148338792E+03 -0.15617660406E+03  0.32862322274E+03  0.00000000000E+00 0.  1.
         11    1    3    3    0    0 -0.69088734896E+02  0.95724974061E+02 -0.10942268316E+03  0.16096536130E+03  0.00000000000E+00 0. -1.
         21    1    1    2  502  501 -0.22666862306E+02 -0.34729165127E+01  0.13013860307E+02  0.26366804053E+02  0.00000000000E+00 0.  1.
<scales pt_clust_5="13000.00000" pt_clust_6="13000.00000" pt_clust_7="13000.00000" pt_clust_8="13000.00000" pt_clust_9="22.93137"></scales>
<clustering>
<clus scale="   22.931">  1  9  2 -1</clus>
<clus scale="   90.539">  5  6 -1 -1</clus>
<clus scale="   92.692">  7  8 -1 -1</clus>
<clus scale="  411.350">  1  5  2 -1</clus>
<clus scale="   22.931">  1  5  2 -1</clus>
</clustering>
</event>
<event>
 9    1  0.1713970E-005  0.9547832E+02  0.7546771E-02  0.1290970E+00
          2   -1    0    0  502    0  0.00000000000E+00  0.00000000000E+00  0.18626082886E+03  0.18626082886E+03  0.00000000000E+00 0. -1.
         -2   -1    0    0    0  501 -0.00000000000E+00 -0.00000000000E+00 -0.13575904057E+03  0.13575904057E+03  0.00000000000E+00 0.  1.
         23    2    1    2    0    0 -0.13149693248E+02  0.77846676896E+01 -0.57854422622E+02  0.11001530717E+03  0.92318568612E+02 0.  0.
         23    2    1    2    0    0  0.64998203106E+02  0.31847108345E+02  0.59111342696E+02  0.13024881206E+03  0.90728151583E+02 0.  0.
        -13    1    4    4    0    0  0.83086674531E+02  0.44267421855E+01  0.43117212007E+02  0.93712781958E+02  0.00000000000E+00 0.  1.
         13    1    4    4    0    0 -0.18088471425E+02  0.27420366159E+02  0.15994130690E+02  0.36536030098E+02  0.00000000000E+00 0. -1.
        -13    1    3    3    0    0  0.39573612623E+02  0.98163405351E+01 -0.23639685638E+02  0.47130309723E+02  0.00000000000E+00 0.  1.
         13    1    3    3    0    0 -0.52723305872E+02 -0.20316728454E+01 -0.34214736983E+02  0.62884997443E+02  0.00000000000E+00 0. -1.
         21    1    1    2  502  501 -0.51848509858E+02 -0.39631776034E+02  0.49244868219E+02  0.81755750207E+02  0.00000000000E+00 0. -1.
<scales pt_clust_5="13000.00000" pt_clust_6="13000.00000" pt_clust_7="13000.00000" pt_clust_8="13000.00000" pt_clust_9="65.26060"></scales>
<clustering>
<clus scale="   65.261">  1  9  2 -1</clus>
<clus scale="   90.728">  5  6 -1 -1</clus>
<clus scale="   92.319">  7  8 -1 -1</clus>
<clus scale="   93.941">  1  5  2 -1</clus>
<clus scale="   65.261">  1  5  2 -1</clus>
</clustering>
</event>
<event>
 9    1  0.1713970E-005  0.1081332E+03  0.7546771E-02  0.1264386E+00
         -2   -1    0    0    0  501 -0.00000000000E+00  0.00000000000E+00  0.35212729235E+03  0.35212729235E+03  0.00000000000E+00 0.  1.
          2   -1    0    0  502    0  0.00000000000E+00 -0.00000000000E+00 -0.20736180420E+03  0.20736180420E+03  0.00000000000E+00 0. -1.
         23    2    1    2    0    0  0.47052339050E+02  0.15178527746E+02  0.16299422115E+03  0.19496104620E+03  0.94859807566E+02 0.  0.
         23    2    1    2    0    0 -0.33201038144E+02 -0.41001899692E+02 -0.17470783738E+03  0.20532875644E+03  0.94093597388E+02 0.  0.
        -11    1    3    3    0    0  0.36350390929E+01 -0.38053651633E+02  0.61172577224E+02  0.72134444726E+02  0.00000000000E+00 0. -1.
         11    1    3    3    0    0  0.43417299957E+02  0.53232179379E+02  0.10182164393E+03  0.12282660147E+03  0.00000000000E+00 0.  1.
        -13    1    4    4    0    0  0.22473064514E+02 -0.12831551761E+02 -0.76291095195E+01  0.26979448870E+02  0.00000000000E+00 0.  1.
         13    1    4    4    0    0 -0.55674102658E+02 -0.28170347931E+02 -0.16707872786E+03  0.17834930757E+03  0.00000000000E+00 0. -1.
         21    1    1    2  502  501 -0.13851300906E+02  0.25823371945E+02  0.15647910437E+03  0.15919929391E+03  0.00000000000E+00 0.  1.
<scales pt_clust_5="13000.00000" pt_clust_6="13000.00000" pt_clust_7="13000.00000" pt_clust_8="13000.00000" pt_clust_9="29.30367"></scales>
<clustering>
<clus scale="   29.304">  1  9  2 -1</clus>
<clus scale="   94.094">  7  8 -1 -1</clus>
<clus scale="   94.860">  5  6 -1 -1</clus>
<clus scale="  107.462">  2  7  1 -1</clus>
<clus scale="  107.462">  2  5  1 -1</clus>
</clustering>
</event>
<event>
 9    1  0.1713970E-005  0.1932633E+03  0.7546771E-02  0.1155588E+00
         -2   -1    0    0    0  501 -0.00000000000E+00  0.00000000000E+00  0.70522478839E+02  0.70522478839E+02  0.00000000000E+00 0.  1.
          2   -1    0    0  502    0  0.00000000000E+00 -0.00000000000E+00 -0.62925689462E+03  0.62925689462E+03  0.00000000000E+00 0. -1.
         23    2    1    2    0    0 -0.13745453144E+03  0.11127589964E+03 -0.20979848878E+03  0.28964802065E+03  0.92760422166E+02 0.  0.
         23    2    1    2    0    0  0.14088957959E+03 -0.85930845914E+02 -0.31561879010E+03  0.36812893722E+03  0.93111276634E+02 0.  0.
        -11    1    3    3    0    0 -0.37227350103E+02  0.70391046953E+02 -0.42165523408E+02  0.90103864796E+02  0.00000000000E+00 0.  1.
         11    1    3    3    0    0 -0.10022718133E+03  0.40884852685E+02 -0.16763296537E+03  0.19954415585E+03  0.00000000000E+00 0. -1.
        -11    1    4    4    0    0  0.10000891438E+03 -0.10718802878E+02 -0.13598711598E+03  0.16914245890E+03  0.00000000000E+00 0.  1.
         11    1    4    4    0    0  0.40880665210E+02 -0.75212043037E+02 -0.17963167412E+03  0.19898647832E+03  0.00000000000E+00 0. -1.
         21    1    1    2  502  501 -0.34350481515E+01 -0.25345053724E+02 -0.33317136906E+02  0.42002415594E+02  0.00000000000E+00 0. -1.
<scales pt_clust_5="13000.00000" pt_clust_6="13000.00000" pt_clust_7="13000.00000" pt_clust_8="13000.00000" pt_clust_9="25.57677"></scales>
<clustering>
<clus scale="   25.577">  1  9  2 -1</clus>
<clus scale="   92.760">  5  6 -1 -1</clus>
<clus scale="   93.111">  7  8 -1 -1</clus>
<clus scale="  193.095">  1  5  2 -1</clus>
<clus scale="  193.263">  2  5  1 -1</clus>
</clustering>
</event>
<event>
 9    1  0.1713970E-005  0.9697827E+02  0.7546771E-02  0.1287221E+00
          1   -1    0    0  502    0  0.00000000000E+00  0.00000000000E+00  0.18246595235E+03  0.18246595235E+03  0.00000000000E+00 0. -1.
         -1   -1    0    0    0  501 -0.00000000000E+00 -0.00000000000E+00 -0.10657123290E+03  0.10657123290E+03  0.00000000000E+00 0.  1.
         23    2    1    2    0    0  0.16529114821E+02 -0.39920221396E+01 -0.25736393721E+02  0.95883010982E+02  0.90785692461E+02 0.  0.
         23    2    1    2    0    0 -0.31094224806E+02 -0.20814085610E+02  0.12259295201E+03  0.15756085892E+03  0.91631410580E+02 0.  0.
        -11    1    4    4    0    0 -0.21062628469E+02  0.35486536087E+02  0.59470142563E+02  0.72385263817E+02  0.00000000000E+00 0. -1.
         11    1    4    4    0    0 -0.10031596337E+02 -0.56300621697E+02  0.63122809444E+02  0.85175595100E+02  0.00000000000E+00 0.  1.
        -11    1    3    3    0    0  0.33882746259E+02  0.26152892187E+02  0.12108352403E+02  0.44481754256E+02  0.00000000000E+00 0. -1.
         11    1    3    3    0    0 -0.17353631438E+02 -0.30144914326E+02 -0.37844746124E+02  0.51401256726E+02  0.00000000000E+00 0.  1.
         21    1    1    2  502  501  0.14565109985E+02  0.24806107750E+02 -0.20961838834E+02  0.35593315354E+02  0.00000000000E+00 0.  1.
<scales pt_clust_5="13000.00000" pt_clust_6="13000.00000" pt_clust_7="13000.00000" pt_clust_8="13000.00000" pt_clust_9="28.76605"></scales>
<clustering>
<clus scale="   28.766">  2  9  1 -1</clus>
<clus scale="   90.786">  7  8 -1 -1</clus>
<clus scale="   91.631">  5  6 -1 -1</clus>
<clus scale="   96.180">  2  7  1 -1</clus>
<clus scale="   96.978">  1  5  2 -1</clus>
</clustering>
</event>
<event>
 9    1  0.1713970E-005  0.9732582E+02  0.7546771E-02  0.1286047E+00
         -1   -1    0    0    0  501 -0.00000000000E+00  0.00000000000E+00  0.30942496017E+02  0.30942496017E+02  0.00000000000E+00 0.  1.
          1   -1    0    0  502    0  0.00000000000E+00 -0.00000000000E+00 -0.56448512486E+03  0.56448512486E+03  0.00000000000E+00 0. -1.
         23    2    1    2    0    0  0.41152689525E+00  0.23324855587E+02 -0.10274942036E+03  0.13804247886E+03  0.89185561281E+02 0.  0.
         23    2    1    2    0    0 -0.12448541689E+02 -0.42556265900E+02 -0.42110924008E+03  0.43271702268E+03  0.89134884771E+02 0.  0.
        -11    1    4    4    0    0 -0.16339344376E+02  0.22279934210E+02 -0.63402823489E+02  0.69161316279E+02  0.00000000000E+00 0.  1.
         11    1    4    4    0    0  0.38908026863E+01 -0.64836200110E+02 -0.35770641659E+03  0.36355570640E+03  0.00000000000E+00 0. -1.
        -11    1    3    3    0    0 -0.27948740351E+02 -0.19789773546E+02 -0.17670941383E+02  0.38536079116E+02  0.00000000000E+00 0. -1.
         11    1    3    3    0    0  0.28360267247E+02  0.43114629133E+02 -0.85078478980E+02  0.99506399740E+02  0.00000000000E+00 0.  1.
         21    1    1    2  502  501  0.12037014794E+02  0.19231410313E+02 -0.96839684052E+01  0.24668119342E+02  0.00000000000E+00 0. -1.
<scales pt_clust_5="13000.00000" pt_clust_6="13000.00000" pt_clust_7="13000.00000" pt_clust_8="13000.00000" pt_clust_9="22.68781"></scales>
<clustering>
<clus scale="   22.688">  1  9  2 -1</clus>
<clus scale="   89.135">  5  6 -1 -1</clus>
<clus scale="   89.186">  7  8 -1 -1</clus>
<clus scale="   97.279">  2  5  1 -1</clus>
<clus scale="   97.279">  2  5  1 -1</clus>
</clustering>
</event>
<event>
 9    1  0.1713970E-005  0.1303082E+03  0.7546771E-02  0.1228953E+00
         -4   -1    0    0    0  501 -0.00000000000E+00  0.00000000000E+00  0.32574594673E+02  0.32574594673E+02  0.00000000000E+00 0.  1.
          4   -1    0    0  502    0  0.00000000000E+00 -0.00000000000E+00 -0.70084876041E+03  0.70084876041E+03  0.00000000000E+00 0. -1.
         23    2    1    2    0    0 -0.56838179689E+02 -0.74989903720E+02 -0.21870827137E+03  0.25572078685E+03  0.93304600791E+02 0.  0.
         23    2    1    2    0    0  0.69735548396E+02  0.57353946387E+02 -0.43213052764E+03  0.44974973075E+03  0.85938963894E+02 0.  0.
        -13    1    3    3    0    0 -0.77644464777E+02 -0.31882571597E+02 -0.12622223088E+03  0.15158236326E+03  0.00000000000E+00 0.  1.
         13    1    3    3    0    0  0.20806285088E+02 -0.43107332123E+02 -0.92486040495E+02  0.10413842359E+03  0.00000000000E+00 0. -1.
        -13    1    4    4    0    0  0.29853055141E+02 -0.17835272460E+02 -0.18848407136E+03  0.19166519507E+03  0.00000000000E+00 0.  1.
         13    1    4    4    0    0  0.39882493255E+02  0.75189218848E+02 -0.24364645628E+03  0.25808453568E+03  0.00000000000E+00 0. -1.
         21    1    1    2  502  501 -0.12897368706E+02  0.17635957333E+02 -0.17435366718E+02  0.27952837480E+02  0.00000000000E+00 0.  1.
<scales pt_clust_5="13000.00000" pt_clust_6="13000.00000" pt_clust_7="13000.00000" pt_clust_8="13000.00000" pt_clust_9="21.84878"></scales>
<clustering>
<clus scale="   21.849">  1  9  2 -1</clus>
<clus scale="   85.939">  7  8 -1 -1</clus>
<clus scale="   93.305">  5  6 -1 -1</clus>
<clus scale="  125.140">  2  7  1 -1</clus>
<clus scale="  125.140">  2  5  1 -1</clus>
</clustering>
</event>
<event>
 9    1  0.1713970E-005  0.9679439E+02  0.7546771E-02  0.1288420E+00
         -2   -1    0    0    0  501 -0.00000000000E+00  0.00000000000E+00  0.23071309895E+03  0.23071309895E+03  0.00000000000E+00 0.  1.
          2   -1    0    0  502    0  0.00000000000E+00 -0.00000000000E+00 -0.21204417505E+03  0.21204417505E+03  0.00000000000E+00 0. -1.
         23    2    1    2    0    0  0.28185493568E+02  0.71102424255E+01 -0.59102722297E+02  0.11320652884E+03  0.92073931126E+02 0.  0.
         23    2    1    2    0    0 -0.17765389209E+02 -0.29116998259E+02 -0.10667050381E+03  0.14350832373E+03  0.89736469478E+02 0.  0.
        -11    1    3    3    0    0  0.58507396254E+02  0.11047859112E+02 -0.18441981548E+02  0.62331992514E+02  0.00000000000E+00 0.  1.
         11    1    3    3    0    0 -0.30321902686E+02 -0.39376166869E+01 -0.40660740748E+02  0.50874536321E+02  0.00000000000E+00 0. -1.
        -13    1    4    4    0    0  0.19707639604E+02  0.13659364342E+02 -0.15960129346E+01  0.24031574028E+02  0.00000000000E+00 0.  1.
         13    1    4    4    0    0 -0.37473028812E+02 -0.42776362601E+02 -0.10507449087E+03  0.11947674970E+03  0.00000000000E+00 0. -1.
         21    1    1    2  502  501 -0.10420104359E+02  0.22006755833E+02  0.18444215001E+03  0.18604242144E+03  0.00000000000E+00 0.  1.
<scales pt_clust_5="13000.00000" pt_clust_6="13000.00000" pt_clust_7="13000.00000" pt_clust_8="13000.00000" pt_clust_9="24.34904"></scales>
<clustering>
<clus scale="   24.349">  1  9  2 -1</clus>
<clus scale="   89.736">  7  8 -1 -1</clus>
<clus scale="   92.074">  5  6 -1 -1</clus>
<clus scale="   94.574">  2  7  1 -1</clus>
<clus scale="   94.574">  2  5  1 -1</clus>
</clustering>
</event>
<event>
 9    1  0.1713970E-005  0.1487536E+03  0.7546771E-02  0.1202034E+00
          2   -1    0    0  502    0  0.00000000000E+00  0.00000000000E+00  0.32254201414E+03  0.32254201414E+03  0.00000000000E+00 0. -1.
         -2   -1    0    0    0  501 -0.00000000000E+00 -0.00000000000E+00 -0.13130891948E+03  0.13130891948E+03  0.00000000000E+00 0.  1.
         23    2    1    2    0    0 -0.10530409540E+03  0.58265821226E+02  0.34405845927E+02  0.15532797258E+03  0.91973683206E+02 0.  0.
         23    2    1    2    0    0  0.60257175433E+02 -0.10470819409E+03  0.17459860028E+03  0.23142646388E+03  0.92080420643E+02 0.  0.
        -11    1    3    3    0    0 -0.22693600974E+02  0.55187443771E+02  0.40997363356E+02  0.72397771217E+02  0.00000000000E+00 0. -1.
         11    1    3    3    0    0 -0.82610494423E+02  0.30783774549E+01 -0.65915174291E+01  0.82930201366E+02  0.00000000000E+00 0.  1.
        -13    1    4    4    0    0  0.97064644332E+01 -0.91740273782E+02  0.14374282712E+03  0.17079957152E+03  0.00000000000E+00 0.  1.
         13    1    4    4    0    0  0.50550711000E+02 -0.12967920305E+02  0.30855773164E+02  0.60626892360E+02  0.00000000000E+00 0. -1.
         21    1    1    2  502  501  0.45046919964E+02  0.46442372862E+02 -0.17771351546E+02  0.67096497159E+02  0.00000000000E+00 0.  1.
<scales pt_clust_5="13000.00000" pt_clust_6="13000.00000" pt_clust_7="13000.00000" pt_clust_8="13000.00000" pt_clust_9="64.70022"></scales>
<clustering>
<clus scale="   64.700">  2  9  1 -1</clus>
<clus scale="   91.974">  5  6 -1 -1</clus>
<clus scale="   92.080">  7  8 -1 -1</clus>
<clus scale="  148.688">  2  5  1 -1</clus>
<clus scale="  148.754">  1  5  2 -1</clus>
</clustering>
</event>
<event>
 9    1  0.1713970E-005  0.9306083E+02  0.7546771E-02  0.1296665E+00
         -3   -1    0    0    0  501 -0.00000000000E+00  0.00000000000E+00  0.67192399640E+02  0.67192399640E+02  0.00000000000E+00 0.  1.
          3   -1    0    0  502    0  0.00000000000E+00 -0.00000000000E+00 -0.62267779143E+03  0.62267779143E+03  0.00000000000E+00 0. -1.
         23    2    1    2    0    0  0.27480568557E+02 -0.10201601707E+02 -0.24506252920E+03  0.26340444744E+03  0.92016332204E+02 0.  0.
         23    2    1    2    0    0  0.14206735516E+02 -0.30563053427E+02 -0.34533683522E+03  0.35850565304E+03  0.90182270604E+02 0.  0.
        -11    1    3    3    0    0  0.61501435015E+01 -0.42344901392E+02 -0.56162197765E+02  0.70605292980E+02  0.00000000000E+00 0.  1.
         11    1    3    3    0    0  0.21330425055E+02  0.32143299685E+02 -0.18890033143E+03  0.19279915446E+03  0.00000000000E+00 0. -1.
        -13    1    4    4    0    0  0.13553331159E+02 -0.59933736346E+02 -0.17087213472E+03  0.18158477899E+03  0.00000000000E+00 0. -1.
         13    1    4    4    0    0  0.65340435631E+00  0.29370682919E+02 -0.17446470050E+03  0.17692087405E+03  0.00000000000E+00 0.  1.
         21    1    1    2  502  501 -0.41687304072E+02  0.40764655134E+02  0.34913972622E+02  0.67960090592E+02  0.00000000000E+00 0.  1.
<scales pt_clust_5="13000.00000" pt_clust_6="13000.00000" pt_clust_7="13000.00000" pt_clust_8="13000.00000" pt_clust_9="58.30599"></scales>
<clustering>
<clus scale="   58.306">  1  9  2 -1</clus>
<clus scale="   90.182">  7  8 -1 -1</clus>
<clus scale="   91.248">  2  7  1 -1</clus>
<clus scale="   92.016">  5  6 -1 -1</clus>
<clus scale="   91.248">  2  5  1 -1</clus>
</clustering>
</event>
<event>
 9    1  0.1713970E-005  0.1858495E+03  0.7546771E-02  0.1162577E+00
          1   -1    0    0  502    0  0.00000000000E+00  0.00000000000E+00  0.34649255543E+03  0.34649255543E+03  0.00000000000E+00 0. -1.
         -1   -1    0    0    0  501 -0.00000000000E+00 -0.00000000000E+00 -0.15729424695E+03  0.15729424695E+03  0.00000000000E+00 0.  1.
         23    2    1    2    0    0 -0.11212448803E+03 -0.13127115899E+03  0.48310817401E+02  0.19696962395E+03  0.81603184263E+02 0.  0.
         23    2    1    2    0    0  0.12939288427E+03  0.99091584864E+02  0.17728555929E+03  0.25525612850E+03  0.84639594257E+02 0.  0.
        -11    1    3    3    0    0 -0.41564467516E+02 -0.10044840357E+03  0.54476958521E+01  0.10884467893E+03  0.00000000000E+00 0. -1.
         11    1    3    3    0    0 -0.70560020513E+02 -0.30822755417E+02  0.42863121549E+02  0.88124945023E+02  0.00000000000E+00 0.  1.
        -11    1    4    4    0    0  0.47974479582E+02  0.72832656925E+02  0.13268114510E+03  0.15877793572E+03  0.00000000000E+00 0. -1.
         11    1    4    4    0    0  0.81418404684E+02  0.26258927939E+02  0.44604414190E+02  0.96478192785E+02  0.00000000000E+00 0.  1.
         21    1    1    2  502  501 -0.17268396236E+02  0.32179574126E+02 -0.36398068213E+02  0.51561049923E+02  0.00000000000E+00 0.  1.
<scales pt_clust_5="13000.00000" pt_clust_6="13000.00000" pt_clust_7="13000.00000" pt_clust_8="13000.00000" pt_clust_9="36.52017"></scales>
<clustering>
<clus scale="   36.520">  2  9  1 -1</clus>
<clus scale="   81.603">  5  6 -1 -1</clus>
<clus scale="   84.640">  7  8 -1 -1</clus>
<clus scale="  184.486">  2  5  1 -1</clus>
<clus scale="  185.850">  1  5  2 -1</clus>
</clustering>
</event>
<event>
 9    1  0.1713970E-005  0.2720832E+03  0.7546771E-02  0.1100130E+00
         -1   -1    0    0    0  501 -0.00000000000E+00  0.00000000000E+00  0.35243127010E+02  0.35243127010E+02  0.00000000000E+00 0.  1.
          1   -1    0    0  502    0  0.00000000000E+00 -0.00000000000E+00 -0.24072109036E+04  0.24072109036E+04  0.00000000000E+00 0. -1.
         23    2    1    2    0    0 -0.10613931791E+03  0.21683388966E+03 -0.91141682763E+03  0.94724319575E+03  0.91140263860E+02 0.  0.
         23    2    1    2    0    0  0.11988759080E+03 -0.23923385390E+03 -0.14113356571E+04  0.14394173015E+04  0.91912783473E+02 0.  0.
        -11    1    3    3    0    0 -0.54769253425E+02  0.17530192930E+03 -0.76293968361E+03  0.78473396662E+03  0.00000000000E+00 0. -1.
         11    1    3    3    0    0 -0.51370064489E+02  0.41531960362E+02 -0.14847714402E+03  0.16250922913E+03  0.00000000000E+00 0.  1.
        -13    1    4    4    0    0  0.43057316911E+02 -0.54229921531E+02 -0.20044749414E+03  0.21207077789E+03  0.00000000000E+00 0. -1.
         13    1    4    4    0    0  0.76830273890E+02 -0.18500393237E+03 -0.12108881629E+04  0.12273465236E+04  0.00000000000E+00 0.  1.
         21    1    1    2  502  501 -0.13748272887E+02  0.22399964238E+02 -0.49215291924E+02  0.55793533357E+02  0.00000000000E+00 0.  1.
<scales pt_clust_5="13000.00000" pt_clust_6="13000.00000" pt_clust_7="13000.00000" pt_clust_8="13000.00000" pt_clust_9="26.28257"></scales>
<clustering>
<clus scale="   26.283">  1  9  2 -1</clus>
<clus scale="   91.140">  5  6 -1 -1</clus>
<clus scale="   91.913">  7  8 -1 -1</clus>
<clus scale="  271.823">  1  5  2 -1</clus>
<clus scale="  272.083">  2  5  1 -1</clus>
</clustering>
</event>
<event>
 9    1  0.1713970E-005  0.1695617E+03  0.7546771E-02  0.1183782E+00
         -2   -1    0    0    0  501 -0.00000000000E+00  0.00000000000E+00  0.59366153509E+03  0.59366153509E+03  0.00000000000E+00 0.  1.
          2   -1    0    0  502    0  0.00000000000E+00 -0.00000000000E+00 -0.10861807137E+03  0.10861807137E+03  0.00000000000E+00 0. -1.
         23    2    1    2    0    0 -0.77207172911E+02 -0.32858090549E+02  0.24367750804E+03  0.28306860642E+03  0.11708333081E+03 0.  0.
         23    2    1    2    0    0  0.13281501556E+03  0.19455074261E+02 -0.11473131601E+02  0.15998238074E+03  0.86280942994E+02 0.  0.
        -11    1    3    3    0    0 -0.81758027271E+02 -0.64693046477E+02  0.14024344751E+03  0.17475065051E+03  0.00000000000E+00 0.  1.
         11    1    3    3    0    0  0.45508543599E+01  0.31834955929E+02  0.10343406053E+03  0.10831795591E+03  0.00000000000E+00 0. -1.
        -13    1    4    4    0    0  0.62881926999E+02  0.46452275401E+01 -0.48434034909E+02  0.79508305350E+02  0.00000000000E+00 0. -1.
         13    1    4    4    0    0  0.69933088565E+02  0.14809846720E+02  0.36960903308E+02  0.80474075388E+02  0.00000000000E+00 0.  1.
         21    1    1    2  502  501 -0.55607842654E+02  0.13403016288E+02  0.25283908728E+03  0.25922861930E+03  0.00000000000E+00 0. -1.
<scales pt_clust_5="13000.00000" pt_clust_6="13000.00000" pt_clust_7="13000.00000" pt_clust_8="13000.00000" pt_clust_9="57.20029"></scales>
<clustering>
<clus scale="   57.200">  1  9  2 -1</clus>
<clus scale="   86.281">  7  8 -1 -1</clus>
<clus scale="  117.083">  5  6 -1 -1</clus>
<clus scale="  149.957">  2  7  1 -1</clus>
<clus scale="  149.957">  2  5  1 -1</clus>
</clustering>
</event>
<event>
 9    1  0.1713970E-005  0.9699950E+02  0.7546771E-02  0.1289685E+00
         -2   -1    0    0    0  501 -0.00000000000E+00  0.00000000000E+00  0.21572213559E+02  0.21572213559E+02  0.00000000000E+00 0.  1.
          2   -1    0    0  502    0  0.00000000000E+00 -0.00000000000E+00 -0.95245607989E+03  0.95245607989E+03  0.00000000000E+00 0. -1.
         23    2    1    2    0    0 -0.44596447107E+02  0.45079357003E+02 -0.39403402114E+03  0.40863065471E+03  0.87722349665E+02 0.  0.
         23    2    1    2    0    0 -0.11745167027E+02 -0.95033987601E+01 -0.42367924223E+03  0.43406747593E+03  0.93178376411E+02 0.  0.
        -11    1    4    4    0    0  0.24570564075E+02 -0.38957115866E+02 -0.17077110065E+03  0.17687322667E+03  0.00000000000E+00 0.  1.
         11    1    4    4    0    0 -0.36315731102E+02  0.29453717106E+02 -0.25290814158E+03  0.25719424926E+03  0.00000000000E+00 0. -1.
        -13    1    3    3    0    0 -0.23494185480E+02 -0.18348089301E+02 -0.50403867715E+02  0.58559192386E+02  0.00000000000E+00 0.  1.
         13    1    3    3    0    0 -0.21102261627E+02  0.63427446304E+02 -0.34363015343E+03  0.35007146233E+03  0.00000000000E+00 0. -1.
         21    1    1    2  502  501  0.56341614134E+02 -0.35575958243E+02 -0.11317060297E+03  0.13133016281E+03  0.00000000000E+00 0.  1.
<scales pt_clust_5="13000.00000" pt_clust_6="13000.00000" pt_clust_7="13000.00000" pt_clust_8="13000.00000" pt_clust_9="66.63352"></scales>
<clustering>
<clus scale="   66.634">  1  9  2 -1</clus>
<clus scale="   87.722">  7  8 -1 -1</clus>
<clus scale="   91.771">  1  7  2 -1</clus>
<clus scale="   93.178">  5  6 -1 -1</clus>
<clus scale="   97.000">  2  5  1 -1</clus>
</clustering>
</event>
<event>
 9    1  0.1713970E-005  0.1187077E+03  0.7546771E-02  0.1245585E+00
         -2   -1    0    0    0  501 -0.00000000000E+00  0.00000000000E+00  0.33090071994E+02  0.33090071994E+02  0.00000000000E+00 0.  1.
          2   -1    0    0  502    0  0.00000000000E+00 -0.00000000000E+00 -0.65818369454E+03  0.65818369454E+03  0.00000000000E+00 0. -1.
         23    2    1    2    0    0 -0.47672717771E+02  0.75456677665E+02 -0.25212489846E+03  0.28238329274E+03  0.90592280956E+02 0.  0.
         23    2    1    2    0    0  0.62853532966E+02 -0.32167435119E+02 -0.31076528376E+03  0.33160086481E+03  0.91644756857E+02 0.  0.
        -11    1    4    4    0    0  0.61269740498E+02  0.12521803685E+02 -0.11615928325E+03  0.13192329496E+03  0.00000000000E+00 0. -1.
         11    1    4    4    0    0  0.15837924685E+01 -0.44689238804E+02 -0.19460600052E+03  0.19967756985E+03  0.00000000000E+00 0.  1.
        -11    1    3    3    0    0  0.29920686308E+01  0.73571708234E+02 -0.11909013948E+03  0.14001503508E+03  0.00000000000E+00 0. -1.
         11    1    3    3    0    0 -0.50664786402E+02  0.18849694312E+01 -0.13303475898E+03  0.14236825766E+03  0.00000000000E+00 0.  1.
         21    1    1    2  502  501 -0.15180815195E+02 -0.43289242546E+02 -0.62203440326E+02  0.77289608995E+02  0.00000000000E+00 0.  1.
<scales pt_clust_5="13000.00000" pt_clust_6="13000.00000" pt_clust_7="13000.00000" pt_clust_8="13000.00000" pt_clust_9="45.87391"></scales>
<clustering>
<clus scale="   45.874">  1  9  2 -1</clus>
<clus scale="   90.592">  7  8 -1 -1</clus>
<clus scale="   91.645">  5  6 -1 -1</clus>
<clus scale="  117.897">  1  7  2 -1</clus>
<clus scale="  118.708">  2  5  1 -1</clus>
</clustering>
</event>
<event>
 9    1  0.1713970E-005  0.1245457E+03  0.7546771E-02  0.1238583E+00
         -1   -1    0    0    0  501 -0.00000000000E+00  0.00000000000E+00  0.24789220625E+03  0.24789220625E+03  0.00000000000E+00 0.  1.
          1   -1    0    0  502    0  0.00000000000E+00 -0.00000000000E+00 -0.51767717591E+03  0.51767717591E+03  0.00000000000E+00 0. -1.
         23    2    1    2    0    0 -0.83801513043E+02  0.26625929238E+02  0.28994892964E+02  0.13571037730E+03  0.99221817116E+02 0.  0.
         23    2    1    2    0    0  0.74183915025E+02  0.96754058520E+01 -0.45464153954E+03  0.46953699311E+03  0.90383580904E+02 0.  0.
        -11    1    4    4    0    0  0.91477302351E+02 -0.84423648066E+01 -0.34007567928E+03  0.35226529492E+03  0.00000000000E+00 0. -1.
         11    1    4    4    0    0 -0.17293387326E+02  0.18117770659E+02 -0.11456586027E+03  0.11727169820E+03  0.00000000000E+00 0.  1.
        -13    1    3    3    0    0 -0.19562081970E+02  0.20835116619E+02 -0.34772620967E+02  0.45010135575E+02  0.00000000000E+00 0. -1.
         13    1    3    3    0    0 -0.64239431073E+02  0.57908126196E+01  0.63767513931E+02  0.90700241721E+02  0.00000000000E+00 0.  1.
         21    1    1    2  502  501  0.96175980183E+01 -0.36301335090E+02  0.15586167692E+03  0.16032201175E+03  0.00000000000E+00 0.  1.
<scales pt_clust_5="13000.00000" pt_clust_6="13000.00000" pt_clust_7="13000.00000" pt_clust_8="13000.00000" pt_clust_9="37.55376"></scales>
<clustering>
<clus scale="   37.554">  1  9  2 -1</clus>
<clus scale="   90.384">  5  6 -1 -1</clus>
<clus scale="   99.222">  7  8 -1 -1</clus>
<clus scale="  117.626">  2  5  1 -1</clus>
<clus scale="  117.626">  2  5  1 -1</clus>
</clustering>
</event>
<event>
 9    1  0.1713970E-005  0.9529511E+02  0.7546771E-02  0.1291506E+00
         -1   -1    0    0    0  501 -0.00000000000E+00  0.00000000000E+00  0.22417627055E+03  0.22417627055E+03  0.00000000000E+00 0.  1.
          1   -1    0    0  502    0  0.00000000000E+00 -0.00000000000E+00 -0.73015248952E+02  0.73015248952E+02  0.00000000000E+00 0. -1.
         23    2    1    2    0    0 -0.20637192466E+02  0.17412275042E+02  0.10159747308E+03  0.13900748262E+03  0.90950275717E+02 0.  0.
         23    2    1    2    0    0 -0.61383686587E+01 -0.23485696082E+02 -0.61485731663E+01  0.96073992451E+02  0.92753164816E+02 0.  0.
        -11    1    4    4    0    0  0.24919361398E+02 -0.40742920994E+02  0.20184242064E+02  0.51849434049E+02  0.00000000000E+00 0.  1.
         11    1    4    4    0    0 -0.31057730056E+02  0.17257224912E+02 -0.26332815230E+02  0.44224558402E+02  0.00000000000E+00 0. -1.
        -13    1    3    3    0    0 -0.19308043511E+02  0.53623590134E+02  0.49148852033E+02  0.75258883988E+02  0.00000000000E+00 0.  1.
         13    1    3    3    0    0 -0.13291489547E+01 -0.36211315092E+02  0.52448621049E+02  0.63748598632E+02  0.00000000000E+00 0. -1.
         21    1    1    2  502  501  0.26775561125E+02  0.60734210400E+01  0.55712121686E+02  0.62110044433E+02  0.00000000000E+00 0. -1.
<scales pt_clust_5="13000.00000" pt_clust_6="13000.00000" pt_clust_7="13000.00000" pt_clust_8="13000.00000" pt_clust_9="27.45573"></scales>
<clustering>
<clus scale="   27.456">  1  9  2 -1</clus>
<clus scale="   90.950">  7  8 -1 -1</clus>
<clus scale="   92.753">  5  6 -1 -1</clus>
<clus scale="   93.541">  1  7  2 -1</clus>
<clus scale="   95.295">  2  5  1 -1</clus>
</clustering>
</event>
<event>
 9    1  0.1713970E-005  0.1939138E+03  0.7546771E-02  0.1154993E+00
          1   -1    0    0  502    0  0.00000000000E+00  0.00000000000E+00  0.16558618516E+03  0.16558618516E+03  0.00000000000E+00 0. -1.
         -1   -1    0    0    0  501 -0.00000000000E+00 -0.00000000000E+00 -0.39978609598E+03  0.39978609598E+03  0.00000000000E+00 0.  1.
         23    2    1    2    0    0  0.13937559499E+03  0.13849129125E+03 -0.10749696386E+03  0.24150832605E+03  0.90361939354E+02 0.  0.
         23    2    1    2    0    0 -0.12243866937E+03 -0.10171981847E+03  0.79209912408E+01  0.18328442103E+03  0.90511257106E+02 0.  0.
        -11    1    4    4    0    0 -0.25075609411E+01 -0.33122981953E+02 -0.24612967351E+02  0.41342689283E+02  0.00000000000E+00 0.  1.
         11    1    4    4    0    0 -0.11993110843E+03 -0.68596836514E+02  0.32533958591E+02  0.14194173175E+03  0.00000000000E+00 0. -1.
        -13    1    3    3    0    0  0.96600095008E+02  0.11881715508E+03 -0.11793567679E+03  0.19328196645E+03  0.00000000000E+00 0.  1.
         13    1    3    3    0    0  0.42775499984E+02  0.19674136171E+02  0.10438712929E+02  0.48226359603E+02  0.00000000000E+00 0. -1.
         21    1    1    2  502  501 -0.16936925617E+02 -0.36771472781E+02 -0.13462393820E+03  0.14057953406E+03  0.00000000000E+00 0. -1.
<scales pt_clust_5="13000.00000" pt_clust_6="13000.00000" pt_clust_7="13000.00000" pt_clust_8="13000.00000" pt_clust_9="40.48457"></scales>
<clustering>
<clus scale="   40.485">  2  9  1 -1</clus>
<clus scale="   90.362">  7  8 -1 -1</clus>
<clus scale="   90.511">  5  6 -1 -1</clus>
<clus scale="  193.844">  2  7  1 -1</clus>
<clus scale="  193.914">  1  5  2 -1</clus>
</clustering>
</event>
<event>
 9    1  0.1713970E-005  0.2141639E+03  0.7546771E-02  0.1170776E+00
          1   -1    0    0  502    0  0.00000000000E+00  0.00000000000E+00  0.94147617816E+03  0.94147617816E+03  0.00000000000E+00 0. -1.
         -1   -1    0    0    0  501 -0.00000000000E+00 -0.00000000000E+00 -0.32850826179E+03  0.32850826179E+03  0.00000000000E+00 0.  1.
         23    2    1    2    0    0 -0.11736014658E+03 -0.11230254772E+03  0.50969153172E+03  0.54228584135E+03  0.88899999997E+02 0.  0.
         23    2    1    2    0    0 -0.19887768463E+02 -0.28738120548E+02  0.37732460854E+03  0.39030878058E+03  0.93518346195E+02 0.  0.
        -11    1    3    3    0    0 -0.17522285700E+02 -0.67941791418E+02  0.26829992077E+03  0.27732285337E+03  0.00000000000E+00 0. -1.
         11    1    3    3    0    0 -0.99837860882E+02 -0.44360756299E+02  0.24139161095E+03  0.26496298799E+03  0.00000000000E+00 0.  1.
        -11    1    4    4    0    0 -0.53679837130E+02 -0.16102191161E+01  0.25333559034E+03  0.25896532404E+03  0.00000000000E+00 0. -1.
         11    1    4    4    0    0  0.33792068667E+02 -0.27127901432E+02  0.12398901820E+03  0.13134345654E+03  0.00000000000E+00 0.  1.
         21    1    1    2  502  501  0.13724791505E+03  0.14104066826E+03 -0.27404822389E+03  0.33738981803E+03  0.00000000000E+00 0.  1.
<scales pt_clust_5="13000.00000" pt_clust_6="13000.00000" pt_clust_7="13000.00000" pt_clust_8="13000.00000" pt_clust_9="194.84090"></scales>
<clustering>
<clus scale="   88.900">  5  6 -1 -1</clus>
<clus scale="   93.518">  7  8 -1 -1</clus>
<clus scale="   99.835">  1  7  2 -1</clus>
<clus scale="  194.841">  2  9  1 -1</clus>
<clus scale="   99.835">  1  5  2 -1</clus>
</clustering>
</event>
<event>
 9    1  0.1713970E-005  0.1008478E+03  0.7546771E-02  0.1280178E+00
         -2   -1    0    0    0  501 -0.00000000000E+00  0.00000000000E+00  0.31252937311E+02  0.31252937311E+02  0.00000000000E+00 0.  1.
          2   -1    0    0  502    0  0.00000000000E+00 -0.00000000000E+00 -0.66732590828E+03  0.66732590828E+03  0.00000000000E+00 0. -1.
         23    2    1    2    0    0  0.35314642049E+02 -0.49383881941E+02 -0.31399705087E+03  0.33430940612E+03  0.97379357812E+02 0.  0.
         23    2    1    2    0    0 -0.75177527625E+00 -0.33022657074E+01 -0.25685526963E+03  0.27358231160E+03  0.94133849162E+02 0.  0.
        -11    1    4    4    0    0 -0.40610084166E+02 -0.20365874272E+02 -0.17675924491E+03  0.18250418744E+03  0.00000000000E+00 0.  1.
         11    1    4    4    0    0  0.39858308890E+02  0.17063608565E+02 -0.80096024717E+02  0.91078124159E+02  0.00000000000E+00 0. -1.
        -13    1    3    3    0    0  0.42570425925E+02  0.11464749204E+02 -0.20086952115E+03  0.20565078693E+03  0.00000000000E+00 0. -1.
         13    1    3    3    0    0 -0.72557838766E+01 -0.60848631145E+02 -0.11312752972E+03  0.12865861920E+03  0.00000000000E+00 0.  1.
         21    1    1    2  502  501 -0.34562866773E+02  0.52686147648E+02 -0.65220650463E+02  0.90687127865E+02  0.00000000000E+00 0. -1.
<scales pt_clust_5="13000.00000" pt_clust_6="13000.00000" pt_clust_7="13000.00000" pt_clust_8="13000.00000" pt_clust_9="63.01128"></scales>
<clustering>
<clus scale="   63.011">  1  9  2 -1</clus>
<clus scale="   94.134">  5  6 -1 -1</clus>
<clus scale="   97.379">  7  8 -1 -1</clus>
<clus scale="   97.718">  2  5  1 -1</clus>
<clus scale="   97.718">  2  5  1 -1</clus>
</clustering>
</event>
<event>
 9    1  0.1713970E-005  0.9393909E+02  0.7546771E-02  0.1298456E+00
          1   -1    0    0  502    0  0.00000000000E+00  0.00000000000E+00  0.23888674950E+03  0.23888674950E+03  0.00000000000E+00 0. -1.
         -1   -1    0    0    0  501 -0.00000000000E+00 -0.00000000000E+00 -0.74261518634E+02  0.74261518634E+02  0.00000000000E+00 0.  1.
         23    2    1    2    0    0 -0.14381333913E+02 -0.50492793300E+02  0.51837268665E+02  0.11580643535E+03  0.89261879350E+02 0.  0.
         23    2    1    2    0    0 -0.27050809139E+02  0.14351024457E+02  0.11322673850E+03  0.14235963150E+03  0.80673863125E+02 0.  0.
        -11    1    3    3    0    0 -0.41001108269E+02  0.36851178233E+01  0.10007331708E+02  0.42365288392E+02  0.00000000000E+00 0.  1.
         11    1    3    3    0    0  0.26619774355E+02 -0.54177911124E+02  0.41829936957E+02  0.73441146957E+02  0.00000000000E+00 0. -1.
        -11    1    4    4    0    0 -0.28688151669E+02  0.40719015081E+02  0.38063751483E+02  0.62688893851E+02  0.00000000000E+00 0.  1.
         11    1    4    4    0    0  0.16373425305E+01 -0.26367990624E+02  0.75162987021E+02  0.79670737652E+02  0.00000000000E+00 0. -1.
         21    1    1    2  502  501  0.41432143052E+02  0.36141768844E+02 -0.43877630301E+00  0.54982201281E+02  0.00000000000E+00 0. -1.
<scales pt_clust_5="13000.00000" pt_clust_6="13000.00000" pt_clust_7="13000.00000" pt_clust_8="13000.00000" pt_clust_9="54.98045"></scales>
<clustering>
<clus scale="   54.980">  2  9  1 -1</clus>
<clus scale="   80.674">  7  8 -1 -1</clus>
<clus scale="   85.820">  1  7  2 -1</clus>
<clus scale="   89.262">  5  6 -1 -1</clus>
<clus scale="   85.820">  1  5  2 -1</clus>
</clustering>
</event>
<event>
 9    1  0.1713970E-005  0.9507303E+02  0.7546771E-02  0.1292598E+00
          3   -1    0    0  502    0  0.00000000000E+00  0.00000000000E+00  0.25171948160E+03  0.25171948160E+03  0.00000000000E+00 0. -1.
         -3   -1    0    0    0  501 -0.00000000000E+00 -0.00000000000E+00 -0.69448445010E+02  0.69448445010E+02  0.00000000000E+00 0.  1.
         23    2    1    2    0    0 -0.24351099949E+02  0.52273203939E+01  0.10167143811E+02  0.93818657578E+02  0.89879189745E+02 0.  0.
         23    2    1    2    0    0  0.10755387661E+02  0.22005192420E+02  0.17197667200E+03  0.19691131030E+03  0.92726380032E+02 0.  0.
        -11    1    3    3    0    0 -0.52842961755E+01  0.46774693852E+02  0.99115248801E+01  0.48104408285E+02  0.00000000000E+00 0. -1.
         11    1    3    3    0    0 -0.19066803773E+02 -0.41547373458E+02  0.25561893127E+00  0.45714249293E+02  0.00000000000E+00 0.  1.
        -13    1    4    4    0    0 -0.17217940030E+02  0.52068356599E+02  0.98723809222E+02  0.11293343936E+03  0.00000000000E+00 0. -1.
         13    1    4    4    0    0  0.27973327691E+02 -0.30063164178E+02  0.73252862776E+02  0.83977870939E+02  0.00000000000E+00 0.  1.
         21    1    1    2  502  501  0.13595712288E+02 -0.27232512814E+02  0.12722077979E+00  0.30437958735E+02  0.00000000000E+00 0.  1.
<scales pt_clust_5="13000.00000" pt_clust_6="13000.00000" pt_clust_7="13000.00000" pt_clust_8="13000.00000" pt_clust_9="30.43769"></scales>
<clustering>
<clus scale="   30.438">  2  9  1 -1</clus>
<clus scale="   89.879">  5  6 -1 -1</clus>
<clus scale="   92.298">  2  5  1 -1</clus>
<clus scale="   92.726">  7  8 -1 -1</clus>
<clus scale="   95.073">  1  5  2 -1</clus>
</clustering>
</event>
<event>
 9    1  0.1713970E-005  0.1594528E+03  0.7546771E-02  0.1189902E+00
          1   -1    0    0  502    0  0.00000000000E+00  0.00000000000E+00  0.17397936110E+03  0.17397936110E+03  0.00000000000E+00 0. -1.
         -1   -1    0    0    0  501 -0.00000000000E+00 -0.00000000000E+00 -0.27310976849E+03  0.27310976849E+03  0.00000000000E+00 0.  1.
         23    2    1    2    0    0  0.12498872474E+03  0.78358733732E+02 -0.53620099973E+02  0.18052956130E+03  0.89182593124E+02 0.  0.
         23    2    1    2    0    0 -0.96397207044E+02 -0.74267617252E+02  0.54528819481E+02  0.16243445591E+03  0.92754837156E+02 0.  0.
        -13    1    3    3    0    0  0.97664201177E+02  0.61601378768E+02 -0.78778079690E+02  0.13978201564E+03  0.00000000000E+00 0.  1.
         13    1    3    3    0    0  0.27324523567E+02  0.16757354964E+02  0.25157979716E+02  0.40747545656E+02  0.00000000000E+00 0. -1.
        -13    1    4    4    0    0 -0.63514795081E+02  0.83293286914E+01  0.24847643799E+02  0.68708895443E+02  0.00000000000E+00 0. -1.
         13    1    4    4    0    0 -0.32882411963E+02 -0.82596945944E+02  0.29681175682E+02  0.93725560471E+02  0.00000000000E+00 0.  1.
         21    1    1    2  502  501 -0.28591517700E+02 -0.40911164799E+01 -0.10003912689E+03  0.10412511238E+03  0.00000000000E+00 0.  1.
<scales pt_clust_5="13000.00000" pt_clust_6="13000.00000" pt_clust_7="13000.00000" pt_clust_8="13000.00000" pt_clust_9="28.88273"></scales>
<clustering>
<clus scale="   28.883">  2  9  1 -1</clus>
<clus scale="   89.183">  5  6 -1 -1</clus>
<clus scale="   92.755">  7  8 -1 -1</clus>
<clus scale="  157.402">  2  5  1 -1</clus>
<clus scale="  159.453">  1  5  2 -1</clus>
</clustering>
</event>
<event>
 9    1  0.1713970E-005  0.9988978E+02  0.7546771E-02  0.1281541E+00
         -3   -1    0    0    0  501 -0.00000000000E+00  0.00000000000E+00  0.42244739348E+03  0.42244739348E+03  0.00000000000E+00 0.  1.
          3   -1    0    0  502    0  0.00000000000E+00 -0.00000000000E+00 -0.77522689664E+02  0.77522689664E+02  0.00000000000E+00 0. -1.
         23    2    1    2    0    0 -0.11304800450E+02  0.13957267480E+02  0.79583633866E+02  0.12206680823E+03  0.90797285556E+02 0.  0.
         23    2    1    2    0    0  0.29898232394E+02 -0.43802273188E+02 -0.67366809310E+01  0.10356271538E+03  0.88697856291E+02 0.  0.
        -11    1    4    4    0    0  0.20367335334E+02 -0.70804995897E+02  0.17476086069E+01  0.73696878689E+02  0.00000000000E+00 0. -1.
         11    1    4    4    0    0  0.95308970595E+01  0.27002722709E+02 -0.84842895379E+01  0.29865836694E+02  0.00000000000E+00 0.  1.
        -13    1    3    3    0    0 -0.35779380284E+02 -0.11741527546E+02  0.77916641884E+02  0.86539185373E+02  0.00000000000E+00 0.  1.
         13    1    3    3    0    0  0.24474579834E+02  0.25698795026E+02  0.16669919824E+01  0.35527622861E+02  0.00000000000E+00 0. -1.
         21    1    1    2  502  501 -0.18593431944E+02  0.29845005708E+02  0.27207775089E+03  0.27434055953E+03  0.00000000000E+00 0.  1.
<scales pt_clust_5="13000.00000" pt_clust_6="13000.00000" pt_clust_7="13000.00000" pt_clust_8="13000.00000" pt_clust_9="35.16305"></scales>
<clustering>
<clus scale="   35.163">  1  9  2 -1</clus>
<clus scale="   88.698">  5  6 -1 -1</clus>
<clus scale="   90.797">  7  8 -1 -1</clus>
<clus scale="   97.985">  2  5  1 -1</clus>
<clus scale="   97.985">  2  5  1 -1</clus>
</clustering>
</event>
<event>
 9    1  0.1713970E-005  0.1269406E+03  0.7546771E-02  0.1232111E+00
         -1   -1    0    0    0  501 -0.00000000000E+00  0.00000000000E+00  0.16745329946E+03  0.16745329946E+03  0.00000000000E+00 0.  1.
          1   -1    0    0  502    0  0.00000000000E+00 -0.00000000000E+00 -0.21958641887E+03  0.21958641887E+03  0.00000000000E+00 0. -1.
         23    2    1    2    0    0  0.95073046816E+02 -0.36457615140E+02 -0.25237276043E+02  0.13926929725E+03  0.91602265923E+02 0.  0.
         23    2    1    2    0    0 -0.81923977550E+02 -0.43002165250E+02 -0.78668918300E+02  0.15202489371E+03  0.91444219542E+02 0.  0.
        -13    1    4    4    0    0 -0.51937520880E+02 -0.58803449973E+02 -0.86969533706E+02  0.11712835522E+03  0.00000000000E+00 0. -1.
         13    1    4    4    0    0 -0.29986456670E+02  0.15801284723E+02  0.83006154052E+01  0.34896538490E+02  0.00000000000E+00 0.  1.
        -13    1    3    3    0    0  0.60884654265E+02 -0.63999148274E+02 -0.33728128334E+02  0.94553787579E+02  0.00000000000E+00 0.  1.
         13    1    3    3    0    0  0.34188392551E+02  0.27541533134E+02  0.84908522905E+01  0.44715509672E+02  0.00000000000E+00 0. -1.
         21    1    1    2  502  501 -0.13149069266E+02  0.79459780390E+02  0.51773074932E+02  0.95745527364E+02  0.00000000000E+00 0.  1.
<scales pt_clust_5="13000.00000" pt_clust_6="13000.00000" pt_clust_7="13000.00000" pt_clust_8="13000.00000" pt_clust_9="80.54039"></scales>
<clustering>
<clus scale="   80.540">  1  9  2 -1</clus>
<clus scale="   91.444">  5  6 -1 -1</clus>
<clus scale="   91.602">  7  8 -1 -1</clus>
<clus scale="  126.827">  2  5  1 -1</clus>
<clus scale="  126.827">  2  5  1 -1</clus>
</clustering>
</event>
<event>
 9    1  0.1713970E-005  0.9914093E+02  0.7546771E-02  0.1282730E+00
         -4   -1    0    0    0  501 -0.00000000000E+00  0.00000000000E+00  0.37855253720E+02  0.37855253720E+02  0.00000000000E+00 0.  1.
          4   -1    0    0  502    0  0.00000000000E+00 -0.00000000000E+00 -0.68048177529E+03  0.68048177529E+03  0.00000000000E+00 0. -1.
         23    2    1    2    0    0 -0.16345843654E+02  0.43602431210E+01 -0.57549205104E+02  0.11147643174E+03  0.93962149301E+02 0.  0.
         23    2    1    2    0    0  0.22588364989E+02  0.20884467348E+02 -0.56558865369E+03  0.57436332883E+03  0.95164663125E+02 0.  0.
        -11    1    3    3    0    0 -0.54760445582E+02  0.12520221313E+02 -0.35189474554E+02  0.66285454373E+02  0.00000000000E+00 0.  1.
         11    1    3    3    0    0  0.38414601928E+02 -0.81599781923E+01 -0.22359730551E+02  0.45190977370E+02  0.00000000000E+00 0. -1.
        -13    1    4    4    0    0  0.59814930121E+01 -0.38100890124E+02 -0.20250831276E+03  0.20614818171E+03  0.00000000000E+00 0. -1.
         13    1    4    4    0    0  0.16606871977E+02  0.58985357472E+02 -0.36308034093E+03  0.36821514711E+03  0.00000000000E+00 0.  1.
         21    1    1    2  502  501 -0.62425213352E+01 -0.25244710469E+02 -0.19488662775E+02  0.32497268440E+02  0.00000000000E+00 0.  1.
<scales pt_clust_5="13000.00000" pt_clust_6="13000.00000" pt_clust_7="13000.00000" pt_clust_8="13000.00000" pt_clust_9="26.00509"></scales>
<clustering>
<clus scale="   26.005">  1  9  2 -1</clus>
<clus scale="   93.962">  5  6 -1 -1</clus>
<clus scale="   95.165">  7  8 -1 -1</clus>
<clus scale="   97.987">  1  5  2 -1</clus>
<clus scale="   99.141">  2  5  1 -1</clus>
</clustering>
</event>
<event>
 9    1  0.1713970E-005  0.1454153E+03  0.7546771E-02  0.1206606E+00
          1   -1    0    0  502    0  0.00000000000E+00  0.00000000000E+00  0.50882635514E+03  0.50882635514E+03  0.00000000000E+00 0. -1.
         -1   -1    0    0    0  501 -0.00000000000E+00 -0.00000000000E+00 -0.77726750614E+02  0.77726750614E+02  0.00000000000E+00 0.  1.
         23    2    1    2    0    0  0.26031252796E+02 -0.15343695647E+03  0.20353320660E+03  0.27216072255E+03  0.91788708326E+02 0.  0.
         23    2    1    2    0    0 -0.23888437387E+02  0.87505709873E+02  0.21057958221E+03  0.24627430306E+03  0.89885289111E+02 0.  0.
        -11    1    4    4    0    0 -0.50539255784E+02  0.65954068716E+02  0.18712316173E+03  0.20474186971E+03  0.00000000000E+00 0.  1.
         11    1    4    4    0    0  0.26650818397E+02  0.21551641157E+02  0.23456420482E+02  0.41532433346E+02  0.00000000000E+00 0. -1.
        -11    1    3    3    0    0  0.44017382630E+02 -0.91581343139E+02  0.17354892949E+03  0.20110669634E+03  0.00000000000E+00 0. -1.
         11    1    3    3    0    0 -0.17986129834E+02 -0.61855613331E+02  0.29984277111E+02  0.71054026212E+02  0.00000000000E+00 0.  1.
         21    1    1    2  502  501 -0.21428154091E+01  0.65931246597E+02  0.16986815713E+02  0.68118080153E+02  0.00000000000E+00 0.  1.
<scales pt_clust_5="13000.00000" pt_clust_6="13000.00000" pt_clust_7="13000.00000" pt_clust_8="13000.00000" pt_clust_9="65.96606"></scales>
<clustering>
<clus scale="   65.966">  2  9  1 -1</clus>
<clus scale="   89.885">  5  6 -1 -1</clus>
<clus scale="   91.789">  7  8 -1 -1</clus>
<clus scale="  144.221">  1  5  2 -1</clus>
<clus scale="  144.221">  1  5  2 -1</clus>
</clustering>
</event>
<event>
 9    1  0.1713970E-005  0.1245781E+03  0.7546771E-02  0.1235929E+00
         -2   -1    0    0    0  501 -0.00000000000E+00  0.00000000000E+00  0.59413139757E+03  0.59413139757E+03  0.00000000000E+00 0.  1.
          2   -1    0    0  502    0  0.00000000000E+00 -0.00000000000E+00 -0.35731440498E+02  0.35731440498E+02  0.00000000000E+00 0. -1.
         23    2    1    2    0    0 -0.43735839427E+02  0.80807314781E+02  0.24475121895E+03  0.27705038547E+03  0.91712110120E+02 0.  0.
         23    2    1    2    0    0  0.64124920227E+02 -0.49741998504E+02  0.21182170927E+03  0.24441728528E+03  0.91022530274E+02 0.  0.
        -11    1    3    3    0    0 -0.62060186316E+02  0.19009503954E+02  0.11116712311E+03  0.12872823011E+03  0.00000000000E+00 0.  1.
         11    1    3    3    0    0  0.18324346888E+02  0.61797810827E+02  0.13358409584E+03  0.14832215536E+03  0.00000000000E+00 0. -1.
        -13    1    4    4    0    0  0.23780397011E+02 -0.59702200902E+02  0.63347518472E+02  0.90237288142E+02  0.00000000000E+00 0. -1.
         13    1    4    4    0    0  0.40344523215E+02  0.99602023977E+01  0.14847419080E+03  0.15417999714E+03  0.00000000000E+00 0.  1.
         21    1    1    2  502  501 -0.20389080799E+02 -0.31065316277E+02  0.10182702885E+03  0.10839516731E+03  0.00000000000E+00 0. -1.
<scales pt_clust_5="13000.00000" pt_clust_6="13000.00000" pt_clust_7="13000.00000" pt_clust_8="13000.00000" pt_clust_9="37.15869"></scales>
<clustering>
<clus scale="   37.159">  1  9  2 -1</clus>
<clus scale="   91.023">  7  8 -1 -1</clus>
<clus scale="   91.712">  5  6 -1 -1</clus>
<clus scale="  124.071">  2  7  1 -1</clus>
<clus scale="  124.071">  2  5  1 -1</clus>
</clustering>
</event>
<event>
 9    1  0.1713970E-005  0.1089644E+03  0.7546771E-02  0.1263045E+00
         -2   -1    0    0    0  501 -0.00000000000E+00  0.00000000000E+00  0.15684282569E+03  0.15684282569E+03  0.00000000000E+00 0.  1.
          2   -1    0    0  502    0  0.00000000000E+00 -0.00000000000E+00 -0.18772857853E+03  0.18772857853E+03  0.00000000000E+00 0. -1.
         23    2    1    2    0    0 -0.38029016954E+02  0.27964996572E+02 -0.38998197008E+02  0.10994802825E+03  0.91320656927E+02 0.  0.
         23    2    1    2    0    0  0.59600739519E+02 -0.28270067499E+02 -0.83109703442E+02  0.14088484336E+03  0.92681559190E+02 0.  0.
        -11    1    3    3    0    0 -0.36062389119E+02 -0.28125230531E+02 -0.10160971568E+02  0.46848370778E+02  0.00000000000E+00 0.  1.
         11    1    3    3    0    0 -0.19666278348E+01  0.56090227103E+02 -0.28837225441E+02  0.63099657468E+02  0.00000000000E+00 0. -1.
        -11    1    4    4    0    0  0.48328263622E+02  0.10439259611E+02 -0.87322095674E+02  0.10034813201E+03  0.00000000000E+00 0. -1.
         11    1    4    4    0    0  0.11272475897E+02 -0.38709327110E+02  0.42123922311E+01  0.40536711342E+02  0.00000000000E+00 0.  1.
         21    1    1    2  502  501 -0.21571722565E+02  0.30507092691E+00  0.91222147609E+02  0.93738532617E+02  0.00000000000E+00 0.  1.
<scales pt_clust_5="13000.00000" pt_clust_6="13000.00000" pt_clust_7="13000.00000" pt_clust_8="13000.00000" pt_clust_9="21.57388"></scales>
<clustering>
<clus scale="   21.574">  1  9  2 -1</clus>
<clus scale="   91.321">  5  6 -1 -1</clus>
<clus scale="   92.682">  7  8 -1 -1</clus>
<clus scale="  107.809">  1  5  2 -1</clus>
<clus scale="  108.964">  2  5  1 -1</clus>
</clustering>
</event>
<event>
 9    1  0.1713970E-005  0.9741284E+02  0.7546771E-02  0.1286637E+00
          2   -1    0    0  502    0  0.00000000000E+00  0.00000000000E+00  0.11121014956E+03  0.11121014956E+03  0.00000000000E+00 0. -1.
         -2   -1    0    0    0  501 -0.00000000000E+00 -0.00000000000E+00 -0.21382199179E+03  0.21382199179E+03  0.00000000000E+00 0.  1.
         23    2    1    2    0    0 -0.96718228597E+01  0.28469149462E+02 -0.14514785801E+03  0.17460804700E+03  0.92282353479E+02 0.  0.
         23    2    1    2    0    0  0.32740771910E+02  0.74199165548E+01  0.40983183378E+02  0.10773202531E+03  0.93805941449E+02 0.  0.
        -13    1    4    4    0    0 -0.16518628468E+02 -0.26556083468E+02  0.35995843374E+02  0.47684288774E+02  0.00000000000E+00 0.  1.
         13    1    4    4    0    0  0.49259400378E+02  0.33976000023E+02  0.49873400033E+01  0.60047736539E+02  0.00000000000E+00 0. -1.
        -13    1    3    3    0    0  0.17131609563E+02 -0.15173104676E+02 -0.11032857446E+03  0.11267701405E+03  0.00000000000E+00 0.  1.
         13    1    3    3    0    0 -0.26803432422E+02  0.43642254137E+02 -0.34819283549E+02  0.61931032954E+02  0.00000000000E+00 0. -1.
         21    1    1    2  502  501 -0.23068949050E+02 -0.35889066016E+02  0.15528324020E+01  0.42692069032E+02  0.00000000000E+00 0. -1.
<scales pt_clust_5="13000.00000" pt_clust_6="13000.00000" pt_clust_7="13000.00000" pt_clust_8="13000.00000" pt_clust_9="42.66382"></scales>
<clustering>
<clus scale="   42.664">  1  9  2 -1</clus>
<clus scale="   92.282">  7  8 -1 -1</clus>
<clus scale="   93.806">  5  6 -1 -1</clus>
<clus scale="   95.947">  2  7  1 -1</clus>
<clus scale="   42.664">  1  5  2 -1</clus>
</clustering>
</event>
<event>
 9    1  0.1713970E-005  0.1155030E+03  0.7546771E-02  0.1251989E+00
         -1   -1    0    0    0  501 -0.00000000000E+00  0.00000000000E+00  0.80990071294E+02  0.80990071294E+02  0.00000000000E+00 0.  1.
          1   -1    0    0  502    0  0.00000000000E+00 -0.00000000000E+00 -0.38778226599E+03  0.38778226599E+03  0.00000000000E+00 0. -1.
         23    2    1    2    0    0  0.13627543450E+02 -0.35195756683E+02 -0.41080316078E+02  0.10623450601E+03  0.90408664791E+02 0.  0.
         23    2    1    2    0    0  0.43913818363E+01  0.79567575493E+02 -0.28531073790E+03  0.31079176613E+03  0.94016070038E+02 0.  0.
        -11    1    3    3    0    0  0.92068739515E+00  0.20559733566E+02 -0.44415829471E+02  0.48952182966E+02  0.00000000000E+00 0. -1.
         11    1    3    3    0    0  0.12706856055E+02 -0.55755490249E+02  0.33355133929E+01  0.57282323044E+02  0.00000000000E+00 0.  1.
        -11    1    4    4    0    0 -0.33407737928E+02 -0.11938067128E+01 -0.64297718383E+02  0.72468605045E+02  0.00000000000E+00 0.  1.
         11    1    4    4    0    0  0.37799119764E+02  0.80761382206E+02 -0.22101301952E+03  0.23832316108E+03  0.00000000000E+00 0. -1.
         21    1    1    2  502  501 -0.18018925286E+02 -0.44371818810E+02  0.19598859283E+02  0.51746065147E+02  0.00000000000E+00 0.  1.
<scales pt_clust_5="13000.00000" pt_clust_6="13000.00000" pt_clust_7="13000.00000" pt_clust_8="13000.00000" pt_clust_9="47.89092"></scales>
<clustering>
<clus scale="   47.891">  1  9  2 -1</clus>
<clus scale="   90.409">  5  6 -1 -1</clus>
<clus scale="   94.016">  7  8 -1 -1</clus>
<clus scale="  112.586">  1  5  2 -1</clus>
<clus scale="  115.503">  2  5  1 -1</clus>
</clustering>
</event>
<event>
 9    1  0.1713970E-005  0.9937833E+02  0.7546771E-02  0.1283292E+00
         -1   -1    0    0    0  501 -0.00000000000E+00  0.00000000000E+00  0.13436311076E+03  0.13436311076E+03  0.00000000000E+00 0.  1.
          1   -1    0    0  502    0  0.00000000000E+00 -0.00000000000E+00 -0.94707560496E+02  0.94707560496E+02  0.00000000000E+00 0. -1.
         23    2    1    2    0    0  0.42687928464E+01 -0.22371392857E+02  0.36332976022E+02  0.10518392908E+03  0.96046197113E+02 0.  0.
         23    2    1    2    0    0 -0.25157028654E+02  0.16714918084E+02 -0.10562837516E+02  0.98174512363E+02  0.92813774647E+02 0.  0.
        -11    1    4    4    0    0  0.30316568925E+02  0.80758249624E+01 -0.25102342828E+02  0.40180105969E+02  0.00000000000E+00 0.  1.
         11    1    4    4    0    0 -0.55473597579E+02  0.86390931215E+01  0.14539505312E+02  0.57994406395E+02  0.00000000000E+00 0. -1.
        -13    1    3    3    0    0 -0.12446053551E+01 -0.54913278541E+02 -0.15376752768E+01  0.54948900334E+02  0.00000000000E+00 0. -1.
         13    1    3    3    0    0  0.55133982015E+01  0.32541885684E+02  0.37870651298E+02  0.50235028749E+02  0.00000000000E+00 0.  1.
         21    1    1    2  502  501  0.20888235808E+02  0.56564747729E+01  0.13885411756E+02  0.25712229807E+02  0.00000000000E+00 0. -1.
<scales pt_clust_5="13000.00000" pt_clust_6="13000.00000" pt_clust_7="13000.00000" pt_clust_8="13000.00000" pt_clust_9="21.64057"></scales>
<clustering>
<clus scale="   21.641">  1  9  2 -1</clus>
<clus scale="   92.814">  5  6 -1 -1</clus>
<clus scale="   96.046">  7  8 -1 -1</clus>
<clus scale="   96.258">  2  5  1 -1</clus>
<clus scale="   96.258">  2  5  1 -1</clus>
</clustering>
</event>
<event>
 9    1  0.1713970E-005  0.1387678E+03  0.7546771E-02  0.1234591E+00
         -1   -1    0    0    0  501 -0.00000000000E+00  0.00000000000E+00  0.26446998565E+03  0.26446998565E+03  0.00000000000E+00 0.  1.
          1   -1    0    0  502    0  0.00000000000E+00 -0.00000000000E+00 -0.21942015564E+03  0.21942015564E+03  0.00000000000E+00 0. -1.
         23    2    1    2    0    0 -0.54011665582E+02  0.75319999790E+02 -0.65355646305E+02  0.14723171135E+03  0.93890648816E+02 0.  0.
         23    2    1    2    0    0 -0.30725051190E+01  0.10857085773E+02 -0.78618324260E+02  0.12121681418E+03  0.91571603298E+02 0.  0.
        -11    1    3    3    0    0 -0.36724606945E+02  0.97280899717E+02 -0.51353146613E+02  0.11597161667E+03  0.00000000000E+00 0. -1.
         11    1    3    3    0    0 -0.17287058636E+02 -0.21960899927E+02 -0.14002499692E+02  0.31260094682E+02  0.00000000000E+00 0.  1.
        -11    1    4    4    0    0  0.18365521256E+01 -0.37706638226E+02 -0.14063914456E+02  0.40285942708E+02  0.00000000000E+00 0.  1.
         11    1    4    4    0    0 -0.49090572447E+01  0.48563723999E+02 -0.64554409804E+02  0.80930871470E+02  0.00000000000E+00 0. -1.
         21    1    1    2  502  501  0.57084170701E+02 -0.86177085563E+02  0.18902380057E+03  0.21544161577E+03  0.00000000000E+00 0.  1.
<scales pt_clust_5="13000.00000" pt_clust_6="13000.00000" pt_clust_7="13000.00000" pt_clust_8="13000.00000" pt_clust_9="102.18141"></scales>
<clustering>
<clus scale="   91.572">  7  8 -1 -1</clus>
<clus scale="   92.264">  2  7  1 -1</clus>
<clus scale="   93.891">  5  6 -1 -1</clus>
<clus scale="  102.181">  1  9  2 -1</clus>
<clus scale="   92.264">  2  5  1 -1</clus>
</clustering>
</event>
<event>
 9    1  0.1713970E-005  0.1206212E+03  0.7546771E-02  0.1251052E+00
         -1   -1    0    0    0  501 -0.00000000000E+00  0.00000000000E+00  0.28361516195E+02  0.28361516195E+02  0.00000000000E+00 0.  1.
          1   -1    0    0  502    0  0.00000000000E+00 -0.00000000000E+00 -0.70730705089E+03  0.70730705089E+03  0.00000000000E+00 0. -1.
         23    2    1    2    0    0 -0.15022513328E+02  0.16958172562E+02 -0.16442167214E+03  0.20372878844E+03  0.11814261487E+03 0.  0.
         23    2    1    2    0    0  0.36600060439E+02  0.92806790620E+00 -0.44282443767E+03  0.45495721135E+03  0.97735131003E+02 0.  0.
        -11    1    4    4    0    0 -0.30951884393E+02 -0.14346059480E+02 -0.11805822689E+03  0.12288845962E+03  0.00000000000E+00 0.  1.
         11    1    4    4    0    0  0.67551944832E+02  0.15274127387E+02 -0.32476621078E+03  0.33206875174E+03  0.00000000000E+00 0. -1.
        -11    1    3    3    0    0  0.21659308461E+02  0.80120355316E+01  0.10073740911E+02  0.25195210106E+02  0.00000000000E+00 0.  1.
         11    1    3    3    0    0 -0.36681821789E+02  0.89461370303E+01 -0.17449541305E+03  0.17853357834E+03  0.00000000000E+00 0. -1.
         21    1    1    2  502  501 -0.21577547112E+02 -0.17886240468E+02 -0.71699424882E+02  0.76982567286E+02  0.00000000000E+00 0.  1.
<scales pt_clust_5="13000.00000" pt_clust_6="13000.00000" pt_clust_7="13000.00000" pt_clust_8="13000.00000" pt_clust_9="28.02692"></scales>
<clustering>
<clus scale="   28.027">  2  9  1 -1</clus>
<clus scale="   97.735">  5  6 -1 -1</clus>
<clus scale="  100.717">  2  5  1 -1</clus>
<clus scale="  118.143">  7  8 -1 -1</clus>
<clus scale="   28.027">  2  5  1 -1</clus>
</clustering>
</event>
<event>
 9    1  0.1713970E-005  0.1048030E+03  0.7546771E-02  0.1278286E+00
         -1   -1    0    0    0  501 -0.00000000000E+00  0.00000000000E+00  0.50346177759E+02  0.50346177759E+02  0.00000000000E+00 0.  1.
          1   -1    0    0  502    0  0.00000000000E+00 -0.00000000000E+00 -0.29220127242E+03  0.29220127242E+03  0.00000000000E+00 0. -1.
         23    2    1    2    0    0  0.35915305897E+02 -0.24912460944E+02 -0.10021560910E+03  0.14184012928E+03  0.90359914003E+02 0.  0.
         23    2    1    2    0    0 -0.63048638225E+02  0.41752353500E+01 -0.13491382281E+03  0.16590093086E+03  0.72998739033E+02 0.  0.
        -11    1    4    4    0    0 -0.50870615319E+02 -0.16244848584E+02 -0.36568030984E+02  0.64721986207E+02  0.00000000000E+00 0. -1.
         11    1    4    4    0    0 -0.12178022906E+02  0.20420083934E+02 -0.98345791829E+02  0.10117894465E+03  0.00000000000E+00 0.  1.
        -11    1    3    3    0    0  0.50429548682E+02  0.89140233027E+01 -0.22675811630E+02  0.56007067632E+02  0.00000000000E+00 0.  1.
         11    1    3    3    0    0 -0.14514242785E+02 -0.33826484246E+02 -0.77539797466E+02  0.85833061644E+02  0.00000000000E+00 0. -1.
         21    1    1    2  502  501  0.27133332328E+02  0.20737225594E+02 -0.67256627493E+01  0.34806390045E+02  0.00000000000E+00 0.  1.
<scales pt_clust_5="13000.00000" pt_clust_6="13000.00000" pt_clust_7="13000.00000" pt_clust_8="13000.00000" pt_clust_9="34.15041"></scales>
<clustering>
<clus scale="   34.150">  1  9  2 -1</clus>
<clus scale="   72.999">  5  6 -1 -1</clus>
<clus scale="   90.264">  2  5  1 -1</clus>
<clus scale="   90.360">  7  8 -1 -1</clus>
<clus scale="   90.264">  2  5  1 -1</clus>
</clustering>
</event>
<event>
 9    1  0.1713970E-005  0.1085411E+03  0.7546771E-02  0.1264721E+00
          2   -1    0    0  502    0  0.00000000000E+00  0.00000000000E+00  0.40295024190E+03  0.40295024190E+03  0.00000000000E+00 0. -1.
         -2   -1    0    0    0  501 -0.00000000000E+00 -0.00000000000E+00 -0.72375964714E+02  0.72375964714E+02  0.00000000000E+00 0.  1.
         23    2    1    2    0    0 -0.50143108581E+02 -0.78714348431E+01  0.70806080439E+02  0.12379507169E+03  0.87951281536E+02 0.  0.
         23    2    1    2    0    0  0.21973574881E+02  0.69148879101E+02  0.25897122365E+03  0.28408424493E+03  0.91506054810E+02 0.  0.
        -11    1    4    4    0    0 -0.19112573624E+01 -0.21968432809E+02  0.60523544086E+02  0.64415559716E+02  0.00000000000E+00 0.  1.
         11    1    4    4    0    0  0.23884832244E+02  0.91117311910E+02  0.19844767956E+03  0.21966868521E+03  0.00000000000E+00 0. -1.
        -13    1    3    3    0    0 -0.64285894719E+02  0.22384012856E+02  0.49753954589E+02  0.84315931404E+02  0.00000000000E+00 0.  1.
         13    1    3    3    0    0  0.14142786138E+02 -0.30255447699E+02  0.21052125850E+02  0.39479140290E+02  0.00000000000E+00 0. -1.
         21    1    1    2  502  501  0.28169533700E+02 -0.61277444258E+02  0.79697310494E+00  0.67446889994E+02  0.00000000000E+00 0. -1.
<scales pt_clust_5="13000.00000" pt_clust_6="13000.00000" pt_clust_7="13000.00000" pt_clust_8="13000.00000" pt_clust_9="67.44218"></scales>
<clustering>
<clus scale="   67.442">  2  9  1 -1</clus>
<clus scale="   87.951">  7  8 -1 -1</clus>
<clus scale="   91.506">  5  6 -1 -1</clus>
<clus scale="  105.562">  2  7  1 -1</clus>
<clus scale="  108.541">  1  5  2 -1</clus>
</clustering>
</event>
<event>
 9    1  0.1713970E-005  0.9444609E+02  0.7546771E-02  0.1293389E+00
         -3   -1    0    0    0  501 -0.00000000000E+00  0.00000000000E+00  0.65783819043E+02  0.65783819043E+02  0.00000000000E+00 0.  1.
          3   -1    0    0  502    0  0.00000000000E+00 -0.00000000000E+00 -0.21133089621E+03  0.21133089621E+03  0.00000000000E+00 0. -1.
         23    2    1    2    0    0 -0.18569110878E+02 -0.34994408852E+02 -0.37620806907E+02  0.10687083707E+03  0.91851130495E+02 0.  0.
         23    2    1    2    0    0 -0.64136914397E+01  0.15324624878E+02 -0.10333148306E+03  0.13811674196E+03  0.90126907477E+02 0.  0.
        -13    1    4    4    0    0 -0.13428587849E+02  0.35312525651E+02 -0.56922545293E+01  0.38206062360E+02  0.00000000000E+00 0.  1.
         13    1    4    4    0    0  0.70148964093E+01 -0.19987900773E+02 -0.97639228533E+02  0.99910679596E+02  0.00000000000E+00 0. -1.
        -13    1    3    3    0    0  0.34324163097E+02 -0.23378906851E+02 -0.31996077605E+02  0.52425856597E+02  0.00000000000E+00 0.  1.
         13    1    3    3    0    0 -0.52893273975E+02 -0.11615502000E+02 -0.56247293024E+01  0.54444980469E+02  0.00000000000E+00 0. -1.
         21    1    1    2  502  501  0.24982802318E+02  0.19669783974E+02 -0.45947872022E+01  0.32127136235E+02  0.00000000000E+00 0.  1.
<scales pt_clust_5="13000.00000" pt_clust_6="13000.00000" pt_clust_7="13000.00000" pt_clust_8="13000.00000" pt_clust_9="31.79687"></scales>
<clustering>
<clus scale="   31.797">  1  9  2 -1</clus>
<clus scale="   90.127">  5  6 -1 -1</clus>
<clus scale="   91.851">  7  8 -1 -1</clus>
<clus scale="   92.770">  2  5  1 -1</clus>
<clus scale="   92.770">  2  5  1 -1</clus>
</clustering>
</event>
<event>
 9    1  0.1713970E-005  0.3234461E+03  0.7546771E-02  0.1097955E+00
         -1   -1    0    0    0  501 -0.00000000000E+00  0.00000000000E+00  0.50001135394E+03  0.50001135394E+03  0.00000000000E+00 0.  1.
          1   -1    0    0  502    0  0.00000000000E+00 -0.00000000000E+00 -0.72988834745E+03  0.72988834745E+03  0.00000000000E+00 0. -1.
         23    2    1    2    0    0  0.14233347966E+03 -0.27232102010E+02  0.33013798095E+03  0.37189464852E+03  0.91181885919E+02 0.  0.
         23    2    1    2    0    0 -0.14697435003E+03 -0.28730103668E+03 -0.28849803399E+03  0.44246434250E+03  0.91652787856E+02 0.  0.
        -11    1    4    4    0    0  0.81496049880E+01 -0.57931137967E+02 -0.46860526161E+02  0.74955598322E+02  0.00000000000E+00 0.  1.
         11    1    4    4    0    0 -0.15512395502E+03 -0.22936989871E+03 -0.24163750783E+03  0.36750874418E+03  0.00000000000E+00 0. -1.
        -11    1    3    3    0    0  0.77072683745E+02 -0.45888126514E+02  0.25657234129E+03  0.27180008287E+03  0.00000000000E+00 0.  1.
         11    1    3    3    0    0  0.65260795911E+02  0.18656024504E+02  0.73565639662E+02  0.10009456565E+03  0.00000000000E+00 0. -1.
         21    1    1    2  502  501  0.46408703772E+01  0.31453313869E+03 -0.27151694047E+03  0.41554071036E+03  0.00000000000E+00 0.  1.
<scales pt_clust_5="13000.00000" pt_clust_6="13000.00000" pt_clust_7="13000.00000" pt_clust_8="13000.00000" pt_clust_9="310.18887"></scales>
<clustering>
<clus scale="   91.182">  7  8 -1 -1</clus>
<clus scale="   91.653">  5  6 -1 -1</clus>
<clus scale="  171.215">  1  7  2 -1</clus>
<clus scale="  310.189">  2  9  1 -1</clus>
<clus scale="  310.189">  2  5  1 -1</clus>
</clustering>
</event>
<event>
 9    1  0.1713970E-005  0.1661197E+03  0.7546771E-02  0.1183339E+00
          2   -1    0    0  502    0  0.00000000000E+00  0.00000000000E+00  0.76306853216E+03  0.76306853216E+03  0.00000000000E+00 0. -1.
         -2   -1    0    0    0  501 -0.00000000000E+00 -0.00000000000E+00 -0.95762029724E+02  0.95762029724E+02  0.00000000000E+00 0.  1.
         23    2    1    2    0    0 -0.42529941748E+02 -0.11308402928E+03  0.22290354140E+03  0.26646509163E+03  0.81980867702E+02 0.  0.
         23    2    1    2    0    0  0.44473214964E+02  0.14445820878E+03  0.49900217316E+03  0.52936396698E+03  0.91525951453E+02 0.  0.
        -13    1    3    3    0    0 -0.27850919000E+02  0.25490456133E+01  0.29482226483E+02  0.40637088984E+02  0.00000000000E+00 0.  1.
         13    1    3    3    0    0 -0.14679022748E+02 -0.11563307489E+03  0.19342131491E+03  0.22582800265E+03  0.00000000000E+00 0. -1.
        -13    1    4    4    0    0  0.25119792340E+02  0.89430305794E+02  0.42553305178E+03  0.43555385628E+03  0.00000000000E+00 0. -1.
         13    1    4    4    0    0  0.19353422624E+02  0.55027902986E+02  0.73469121381E+02  0.93810110707E+02  0.00000000000E+00 0.  1.
         21    1    1    2  502  501 -0.19432732161E+01 -0.31374179503E+02 -0.54599212118E+02  0.63001503269E+02  0.00000000000E+00 0.  1.
<scales pt_clust_5="13000.00000" pt_clust_6="13000.00000" pt_clust_7="13000.00000" pt_clust_8="13000.00000" pt_clust_9="31.43430"></scales>
<clustering>
<clus scale="   31.434">  2  9  1 -1</clus>
<clus scale="   81.981">  5  6 -1 -1</clus>
<clus scale="   91.526">  7  8 -1 -1</clus>
<clus scale="  161.058">  2  5  1 -1</clus>
<clus scale="  166.120">  1  5  2 -1</clus>
</clustering>
</event>
<event>
 9    1  0.1713970E-005  0.1746517E+03  0.7546771E-02  0.1174407E+00
         -1   -1    0    0    0  501 -0.00000000000E+00  0.00000000000E+00  0.42138434385E+03  0.42138434385E+03  0.00000000000E+00 0.  1.
          1   -1    0    0  502    0  0.00000000000E+00 -0.00000000000E+00 -0.18449486400E+03  0.18449486400E+03  0.00000000000E+00 0. -1.
         23    2    1    2    0    0  0.28875587002E+02  0.14116976948E+03  0.29740156399E+03  0.34363561050E+03  0.94207426462E+02 0.  0.
         23    2    1    2    0    0 -0.60763891018E+02 -0.13488583133E+03 -0.11026010934E+03  0.20281954646E+03  0.84214243259E+02 0.  0.
        -11    1    4    4    0    0 -0.37767418224E+02 -0.82499409220E+02 -0.11374634627E+03  0.14550175838E+03  0.00000000000E+00 0. -1.
         11    1    4    4    0    0 -0.22996472793E+02 -0.52386422115E+02  0.34862369265E+01  0.57317788084E+02  0.00000000000E+00 0.  1.
        -11    1    3    3    0    0  0.41631524517E+02  0.12249382059E+03  0.16681296012E+03  0.21110301651E+03  0.00000000000E+00 0.  1.
         11    1    3    3    0    0 -0.12755937514E+02  0.18675948893E+02  0.13058860388E+03  0.13253259400E+03  0.00000000000E+00 0. -1.
         21    1    1    2  502  501  0.31888304015E+02 -0.62839381445E+01  0.49748025207E+02  0.59424050885E+02  0.00000000000E+00 0. -1.
<scales pt_clust_5="13000.00000" pt_clust_6="13000.00000" pt_clust_7="13000.00000" pt_clust_8="13000.00000" pt_clust_9="32.50157"></scales>
<clustering>
<clus scale="   32.502">  1  9  2 -1</clus>
<clus scale="   84.214">  5  6 -1 -1</clus>
<clus scale="   94.207">  7  8 -1 -1</clus>
<clus scale="  169.470">  2  5  1 -1</clus>
<clus scale="  169.470">  2  5  1 -1</clus>
</clustering>
</event>
<event>
 9    1  0.1713970E-005  0.9303903E+02  0.7546771E-02  0.1296728E+00
         -2   -1    0    0    0  501 -0.00000000000E+00  0.00000000000E+00  0.45096656354E+03  0.45096656354E+03  0.00000000000E+00 0.  1.
          2   -1    0    0  502    0  0.00000000000E+00 -0.00000000000E+00 -0.28790702334E+02  0.28790702334E+02  0.00000000000E+00 0. -1.
         23    2    1    2    0    0 -0.13020320838E+01  0.16619986556E+01  0.18482398805E+03  0.20636806797E+03  0.91779166449E+02 0.  0.
         23    2    1    2    0    0 -0.12401915276E+02  0.24357292749E+02  0.12007455127E+03  0.15248108433E+03  0.89919397253E+02 0.  0.
        -11    1    4    4    0    0  0.22691904592E+02  0.37986180616E+02  0.10102154291E+03  0.11028701004E+03  0.00000000000E+00 0.  1.
         11    1    4    4    0    0 -0.35093819868E+02 -0.13628887866E+02  0.19053008362E+02  0.42194074289E+02  0.00000000000E+00 0. -1.
        -13    1    3    3    0    0  0.15610347195E+02 -0.36421269936E+02  0.42665699332E+02  0.58228461621E+02  0.00000000000E+00 0. -1.
         13    1    3    3    0    0 -0.16912379279E+02  0.38083268591E+02  0.14215828872E+03  0.14813960635E+03  0.00000000000E+00 0.  1.
         21    1    1    2  502  501  0.13703947360E+02 -0.26019291405E+02  0.11727732188E+03  0.12090811357E+03  0.00000000000E+00 0. -1.
<scales pt_clust_5="13000.00000" pt_clust_6="13000.00000" pt_clust_7="13000.00000" pt_clust_8="13000.00000" pt_clust_9="29.40751"></scales>
<clustering>
<clus scale="   29.408">  1  9  2 -1</clus>
<clus scale="   89.919">  5  6 -1 -1</clus>
<clus scale="   91.205">  2  5  1 -1</clus>
<clus scale="   91.779">  7  8 -1 -1</clus>
<clus scale="   91.205">  2  5  1 -1</clus>
</clustering>
</event>
<event>
 9    1  0.1713970E-005  0.1237804E+03  0.7546771E-02  0.1249135E+00
          1   -1    0    0  502    0  0.00000000000E+00  0.00000000000E+00  0.56957904089E+03  0.56957904089E+03  0.00000000000E+00 0. -1.
         -1   -1    0    0    0  501 -0.00000000000E+00 -0.00000000000E+00 -0.28114379027E+02  0.28114379027E+02  0.00000000000E+00 0.  1.
         23    2    1    2    0    0  0.10497965256E+02 -0.38287971661E+02  0.22746319293E+03  0.24829030885E+03  0.91281965819E+02 0.  0.
         23    2    1    2    0    0 -0.23990204291E+02  0.14847408588E+02  0.28159030007E+03  0.30718955426E+03  0.11948367966E+03 0.  0.
        -13    1    3    3    0    0 -0.31696068035E+02 -0.63132649872E+01  0.15623385889E+03  0.15954158300E+03  0.00000000000E+00 0. -1.
         13    1    3    3    0    0  0.42194033291E+02 -0.31974706673E+02  0.71229334047E+02  0.88748725856E+02  0.00000000000E+00 0.  1.
        -13    1    4    4    0    0  0.11522178846E+02 -0.48618406720E+02  0.10931171100E+03  0.12018968441E+03  0.00000000000E+00 0. -1.
         13    1    4    4    0    0 -0.35512383137E+02  0.63465815308E+02  0.17227858908E+03  0.18699986985E+03  0.00000000000E+00 0.  1.
         21    1    1    2  502  501  0.13492239035E+02  0.23440563073E+02  0.32411168854E+02  0.42213556802E+02  0.00000000000E+00 0.  1.
<scales pt_clust_5="13000.00000" pt_clust_6="13000.00000" pt_clust_7="13000.00000" pt_clust_8="13000.00000" pt_clust_9="27.04627"></scales>
<clustering>
<clus scale="   27.046">  2  9  1 -1</clus>
<clus scale="   91.282">  5  6 -1 -1</clus>
<clus scale="   96.838">  2  5  1 -1</clus>
<clus scale="  119.484">  7  8 -1 -1</clus>
<clus scale="  123.780">  1  5  2 -1</clus>
</clustering>
</event>
<event>
 9    1  0.1713970E-005  0.3119250E+03  0.7546771E-02  0.1079616E+00
          1   -1    0    0  502    0  0.00000000000E+00  0.00000000000E+00  0.25626718173E+03  0.25626718173E+03  0.00000000000E+00 0. -1.
         -1   -1    0    0    0  501 -0.00000000000E+00 -0.00000000000E+00 -0.43754172500E+03  0.43754172500E+03  0.00000000000E+00 0.  1.
         23    2    1    2    0    0  0.60531720369E+02 -0.29488167555E+03 -0.14450520301E+03  0.34786158101E+03  0.97501969704E+02 0.  0.
         23    2    1    2    0    0 -0.89394146417E+02  0.27989952273E+03 -0.18253667292E+02  0.30852627969E+03  0.92304997987E+02 0.  0.
        -11    1    4    4    0    0 -0.19700510900E+02  0.19201828861E+02 -0.26980231130E+02  0.38532495807E+02  0.00000000000E+00 0.  1.
         11    1    4    4    0    0 -0.69693635517E+02  0.26069769387E+03  0.87265638380E+01  0.26999378388E+03  0.00000000000E+00 0. -1.
        -13    1    3    3    0    0 -0.15667800630E+02 -0.15925112986E+03 -0.60626032331E+02  0.17111960184E+03  0.00000000000E+00 0. -1.
         13    1    3    3    0    0  0.76199520999E+02 -0.13563054569E+03 -0.83879170680E+02  0.17674197916E+03  0.00000000000E+00 0.  1.
         21    1    1    2  502  501  0.28862426049E+02  0.14982152821E+02 -0.18515672970E+02  0.37421046032E+02  0.00000000000E+00 0. -1.
<scales pt_clust_5="13000.00000" pt_clust_6="13000.00000" pt_clust_7="13000.00000" pt_clust_8="13000.00000" pt_clust_9="32.51929"></scales>
<clustering>
<clus scale="   32.519">  2  9  1 -1</clus>
<clus scale="   92.305">  5  6 -1 -1</clus>
<clus scale="   97.502">  7  8 -1 -1</clus>
<clus scale="  310.340">  1  5  2 -1</clus>
<clus scale="  310.340">  1  5  2 -1</clus>
</clustering>
</event>
<event>
 9    1  0.1713970E-005  0.9214466E+02  0.7546771E-02  0.1298354E+00
         -1   -1    0    0    0  501 -0.00000000000E+00  0.00000000000E+00  0.35408521526E+02  0.35408521526E+02  0.00000000000E+00 0.  1.
          1   -1    0    0  502    0  0.00000000000E+00 -0.00000000000E+00 -0.39363136758E+03  0.39363136758E+03  0.00000000000E+00 0. -1.
         23    2    1    2    0    0 -0.68855186652E+01  0.45743531746E+02 -0.15394450939E+03  0.18343087614E+03  0.88363415994E+02 0.  0.
         23    2    1    2    0    0  0.20161390024E+02 -0.10064698113E+01 -0.13901381292E+03  0.16537740117E+03  0.87277431263E+02 0.  0.
        -11    1    4    4    0    0 -0.15911128908E+02  0.19288766894E+02 -0.55093913028E+01  0.25604178252E+02  0.00000000000E+00 0.  1.
         11    1    4    4    0    0  0.36072518933E+02 -0.20295236706E+02 -0.13350442161E+03  0.13977322292E+03  0.00000000000E+00 0. -1.
        -13    1    3    3    0    0 -0.47771629714E+00 -0.22735296753E+02 -0.76718397531E+02  0.80017713358E+02  0.00000000000E+00 0. -1.
         13    1    3    3    0    0 -0.64078023681E+01  0.68478828499E+02 -0.77226111864E+02  0.10341316279E+03  0.00000000000E+00 0.  1.
         21    1    1    2  502  501 -0.13275871359E+02 -0.44737061934E+02 -0.65264523740E+02  0.80231611786E+02  0.00000000000E+00 0. -1.
<scales pt_clust_5="13000.00000" pt_clust_6="13000.00000" pt_clust_7="13000.00000" pt_clust_8="13000.00000" pt_clust_9="46.66533"></scales>
<clustering>
<clus scale="   46.665">  1  9  2 -1</clus>
<clus scale="   87.277">  5  6 -1 -1</clus>
<clus scale="   88.363">  7  8 -1 -1</clus>
<clus scale="   91.104">  2  5  1 -1</clus>
<clus scale="   91.104">  2  5  1 -1</clus>
</clustering>
</event>
<event>
 9    1  0.1713970E-005  0.1152073E+03  0.7546771E-02  0.1252108E+00
          1   -1    0    0  502    0  0.00000000000E+00  0.00000000000E+00  0.94633267812E+02  0.94633267812E+02  0.00000000000E+00 0. -1.
         -1   -1    0    0    0  501 -0.00000000000E+00 -0.00000000000E+00 -0.58691093333E+03  0.58691093333E+03  0.00000000000E+00 0.  1.
         23    2    1    2    0    0  0.12023378626E+03  0.25134623659E+02 -0.31480931642E+03  0.35030224811E+03  0.92297598346E+02 0.  0.
         23    2    1    2    0    0 -0.52475715111E+02  0.40511554462E+02  0.19093384264E+02  0.11321192774E+03  0.89763559081E+02 0.  0.
        -11    1    4    4    0    0 -0.75544713725E+02  0.26236616959E+02 -0.11598585732E+00  0.79971102868E+02  0.00000000000E+00 0. -1.
         11    1    4    4    0    0  0.23068998614E+02  0.14274937503E+02  0.19209370122E+02  0.33240824873E+02  0.00000000000E+00 0.  1.
        -13    1    3    3    0    0  0.27113499158E+01 -0.22245867779E+02 -0.22725952307E+02  0.31917063773E+02  0.00000000000E+00 0. -1.
         13    1    3    3    0    0  0.11752243634E+03  0.47380491438E+02 -0.29208336412E+03  0.31838518434E+03  0.00000000000E+00 0.  1.
         21    1    1    2  502  501 -0.67758071144E+02 -0.65646178121E+02 -0.19656173336E+03  0.21803002529E+03  0.00000000000E+00 0.  1.
<scales pt_clust_5="13000.00000" pt_clust_6="13000.00000" pt_clust_7="13000.00000" pt_clust_8="13000.00000" pt_clust_9="94.34287"></scales>
<clustering>
<clus scale="   89.764">  5  6 -1 -1</clus>
<clus scale="   92.298">  7  8 -1 -1</clus>
<clus scale="   94.343">  2  9  1 -1</clus>
<clus scale="  113.187">  1  5  2 -1</clus>
<clus scale="  113.187">  1  5  2 -1</clus>
</clustering>
</event>
<event>
 9    1  0.1713970E-005  0.3143792E+03  0.7546771E-02  0.1078337E+00
          2   -1    0    0  502    0  0.00000000000E+00  0.00000000000E+00  0.12712827230E+04  0.12712827230E+04  0.00000000000E+00 0. -1.
         -2   -1    0    0    0  501 -0.00000000000E+00 -0.00000000000E+00 -0.21564372434E+03  0.21564372434E+03  0.00000000000E+00 0.  1.
         23    2    1    2    0    0 -0.25663407146E+03 -0.51931035680E+01 -0.46456122928E+02  0.27648497968E+03  0.91639280194E+02 0.  0.
         23    2    1    2    0    0  0.30478363700E+03  0.37392596361E+02  0.11070255963E+04  0.11523080213E+04  0.89536771975E+02 0.  0.
        -13    1    3    3    0    0 -0.87984292885E+02 -0.33844028860E+02  0.13469160803E+02  0.95226426882E+02  0.00000000000E+00 0. -1.
         13    1    3    3    0    0 -0.16864977858E+03  0.28650925292E+02 -0.59925283732E+02  0.18125855280E+03  0.00000000000E+00 0.  1.
        -13    1    4    4    0    0  0.14960094373E+02 -0.19413420578E+02  0.87201992429E+02  0.90580752954E+02  0.00000000000E+00 0.  1.
         13    1    4    4    0    0  0.28982354262E+03  0.56806016939E+02  0.10198236039E+04  0.10617272684E+04  0.00000000000E+00 0. -1.
         21    1    1    2  502  501 -0.48149565535E+02 -0.32199492793E+02 -0.49304747374E+01  0.58133446298E+02  0.00000000000E+00 0.  1.
<scales pt_clust_5="13000.00000" pt_clust_6="13000.00000" pt_clust_7="13000.00000" pt_clust_8="13000.00000" pt_clust_9="57.92398"></scales>
<clustering>
<clus scale="   57.924">  2  9  1 -1</clus>
<clus scale="   89.537">  7  8 -1 -1</clus>
<clus scale="   91.639">  5  6 -1 -1</clus>
<clus scale="  313.773">  1  7  2 -1</clus>
<clus scale="  313.773">  1  5  2 -1</clus>
</clustering>
</event>
<event>
 9    1  0.1713970E-005  0.1266772E+03  0.7546771E-02  0.1234242E+00
          1   -1    0    0  502    0  0.00000000000E+00  0.00000000000E+00  0.91860828284E+03  0.91860828284E+03  0.00000000000E+00 0. -1.
         -1   -1    0    0    0  501 -0.00000000000E+00 -0.00000000000E+00 -0.25425997329E+02  0.25425997329E+02  0.00000000000E+00 0.  1.
         23    2    1    2    0    0  0.85218802365E+02  0.20206972270E+02  0.26815545372E+03  0.29686337846E+03  0.92465951063E+02 0.  0.
         23    2    1    2    0    0 -0.66732195845E+02 -0.39324911155E+02  0.59029802418E+03  0.60342915636E+03  0.98363381395E+02 0.  0.
        -11    1    3    3    0    0 -0.11317268597E+02  0.24352400532E+02  0.32442896926E+02  0.42114861286E+02  0.00000000000E+00 0.  1.
         11    1    3    3    0    0  0.96536070961E+02 -0.41454282615E+01  0.23571255680E+03  0.25474851718E+03  0.00000000000E+00 0. -1.
        -13    1    4    4    0    0 -0.88952512792E+02 -0.21064101366E+02  0.51018769590E+03  0.51831238741E+03  0.00000000000E+00 0.  1.
         13    1    4    4    0    0  0.22220316948E+02 -0.18260809789E+02  0.80110328279E+02  0.85116768950E+02  0.00000000000E+00 0. -1.
         21    1    1    2  502  501 -0.18486606520E+02  0.19117938885E+02  0.34728807613E+02  0.43741745348E+02  0.00000000000E+00 0.  1.
<scales pt_clust_5="13000.00000" pt_clust_6="13000.00000" pt_clust_7="13000.00000" pt_clust_8="13000.00000" pt_clust_9="26.59418"></scales>
<clustering>
<clus scale="   26.594">  2  9  1 -1</clus>
<clus scale="   92.466">  5  6 -1 -1</clus>
<clus scale="   98.363">  7  8 -1 -1</clus>
<clus scale="  122.154">  2  5  1 -1</clus>
<clus scale="  126.677">  1  5  2 -1</clus>
</clustering>
</event>
<event>
 9    1  0.1713970E-005  0.1025450E+03  0.7546771E-02  0.1275699E+00
         -1   -1    0    0    0  501 -0.00000000000E+00  0.00000000000E+00  0.24226440868E+03  0.24226440868E+03  0.00000000000E+00 0.  1.
          1   -1    0    0  502    0  0.00000000000E+00 -0.00000000000E+00 -0.20796013152E+03  0.20796013152E+03  0.00000000000E+00 0. -1.
         23    2    1    2    0    0  0.58995707711E+02 -0.30328274388E+02  0.18773409930E+03  0.21816610343E+03  0.89174317450E+02 0.  0.
         23    2    1    2    0    0 -0.46158863968E+02  0.80866741381E+01 -0.17225837367E+03  0.20021526338E+03  0.90648603784E+02 0.  0.
        -11    1    3    3    0    0  0.37991710936E+02 -0.61430796850E+02  0.13909536936E+03  0.15673109034E+03  0.00000000000E+00 0.  1.
         11    1    3    3    0    0  0.21003996775E+02  0.31102522462E+02  0.48638729939E+02  0.61435013095E+02  0.00000000000E+00 0. -1.
        -13    1    4    4    0    0 -0.52682161624E+02  0.42060067394E+02 -0.11642231139E+03  0.13453108939E+03  0.00000000000E+00 0. -1.
         13    1    4    4    0    0  0.65232976559E+01 -0.33973393255E+02 -0.55836062278E+02  0.65684173987E+02  0.00000000000E+00 0.  1.
         21    1    1    2  502  501 -0.12836843743E+02  0.22241600250E+02  0.18828551534E+02  0.31843173394E+02  0.00000000000E+00 0.  1.
<scales pt_clust_5="13000.00000" pt_clust_6="13000.00000" pt_clust_7="13000.00000" pt_clust_8="13000.00000" pt_clust_9="25.68021"></scales>
<clustering>
<clus scale="   25.680">  1  9  2 -1</clus>
<clus scale="   89.174">  5  6 -1 -1</clus>
<clus scale="   90.649">  7  8 -1 -1</clus>
<clus scale="  101.244">  1  5  2 -1</clus>
<clus scale="  102.545">  2  5  1 -1</clus>
</clustering>
</event>
<event>
 9    1  0.1713970E-005  0.9275002E+02  0.7546771E-02  0.1296373E+00
          3   -1    0    0  502    0  0.00000000000E+00  0.00000000000E+00  0.53698859312E+02  0.53698859312E+02  0.00000000000E+00 0. -1.
         -3   -1    0    0    0  501 -0.00000000000E+00 -0.00000000000E+00 -0.29545403875E+03  0.29545403875E+03  0.00000000000E+00 0.  1.
         23    2    1    2    0    0 -0.18821737487E+01 -0.13208824218E+02 -0.64863948519E+02  0.11300187528E+03  0.91564602238E+02 0.  0.
         23    2    1    2    0    0 -0.29392053818E+02 -0.37360837810E+01 -0.58556641552E+02  0.11258613191E+03  0.91481723194E+02 0.  0.
        -13    1    3    3    0    0  0.43105023262E+02  0.47379335588E+01 -0.23586264660E+02  0.49363984092E+02  0.00000000000E+00 0.  1.
         13    1    3    3    0    0 -0.44987197010E+02 -0.17946757777E+02 -0.41277683859E+02  0.63637891183E+02  0.00000000000E+00 0. -1.
        -13    1    4    4    0    0 -0.14385580655E+02 -0.47623416236E+02 -0.28913950483E+02  0.57540865802E+02  0.00000000000E+00 0.  1.
         13    1    4    4    0    0 -0.15006473163E+02  0.43887332455E+02 -0.29642691069E+02  0.55045266105E+02  0.00000000000E+00 0. -1.
         21    1    1    2  502  501  0.31274227567E+02  0.16944907999E+02 -0.11833458936E+03  0.12356489088E+03  0.00000000000E+00 0.  1.
<scales pt_clust_5="13000.00000" pt_clust_6="13000.00000" pt_clust_7="13000.00000" pt_clust_8="13000.00000" pt_clust_9="35.56975"></scales>
<clustering>
<clus scale="   35.570">  2  9  1 -1</clus>
<clus scale="   91.482">  7  8 -1 -1</clus>
<clus scale="   91.565">  5  6 -1 -1</clus>
<clus scale="   92.668">  1  7  2 -1</clus>
<clus scale="   92.668">  1  5  2 -1</clus>
</clustering>
</event>
<event>
 9    1  0.1713970E-005  0.1010265E+03  0.7546771E-02  0.1278335E+00
         -2   -1    0    0    0  501 -0.00000000000E+00  0.00000000000E+00  0.32251448384E+02  0.32251448384E+02  0.00000000000E+00 0.  1.
          2   -1    0    0  502    0  0.00000000000E+00 -0.00000000000E+00 -0.48048840854E+03  0.48048840854E+03  0.00000000000E+00 0. -1.
         23    2    1    2    0    0  0.56579002703E+02 -0.71509902278E+01 -0.20619819270E+03  0.23253129353E+03  0.91108658131E+02 0.  0.
         23    2    1    2    0    0 -0.27925182220E+02  0.23250483812E+02 -0.21974164554E+03  0.24049210878E+03  0.90717488947E+02 0.  0.
        -11    1    4    4    0    0 -0.56148962335E+02  0.35939919301E+02 -0.15536723158E+03  0.16906614214E+03  0.00000000000E+00 0.  1.
         11    1    4    4    0    0  0.28223780115E+02 -0.12689435489E+02 -0.64374413963E+02  0.71425966637E+02  0.00000000000E+00 0. -1.
        -13    1    3    3    0    0 -0.89335178879E+01 -0.33775820778E+02 -0.89520597775E+02  0.96096572452E+02  0.00000000000E+00 0.  1.
         13    1    3    3    0    0  0.65512520591E+02  0.26624830551E+02 -0.11667759493E+03  0.13643472107E+03  0.00000000000E+00 0. -1.
         21    1    1    2  502  501 -0.28653820484E+02 -0.16099493584E+02 -0.22297121912E+02  0.39716454619E+02  0.00000000000E+00 0.  1.
<scales pt_clust_5="13000.00000" pt_clust_6="13000.00000" pt_clust_7="13000.00000" pt_clust_8="13000.00000" pt_clust_9="32.86693"></scales>
<clustering>
<clus scale="   32.867">  1  9  2 -1</clus>
<clus scale="   90.717">  5  6 -1 -1</clus>
<clus scale="   91.109">  7  8 -1 -1</clus>
<clus scale="  100.674">  2  5  1 -1</clus>
<clus scale="  100.674">  2  5  1 -1</clus>
</clustering>
</event>
<event>
 9    1  0.1713970E-005  0.1102750E+03  0.7546771E-02  0.1260690E+00
         -1   -1    0    0    0  501 -0.00000000000E+00  0.00000000000E+00  0.16415859008E+03  0.16415859008E+03  0.00000000000E+00 0.  1.
          1   -1    0    0  502    0  0.00000000000E+00 -0.00000000000E+00 -0.16679769466E+03  0.16679769466E+03  0.00000000000E+00 0. -1.
         23    2    1    2    0    0  0.94296099337E+02  0.10948843384E+02  0.63557611513E+02  0.14544427116E+03  0.90015745910E+02 0.  0.
         23    2    1    2    0    0 -0.48432988268E+02  0.26495718427E+02 -0.67110079195E+02  0.12629753564E+03  0.91648935239E+02 0.  0.
        -11    1    3    3    0    0  0.76461696787E+02 -0.28543738277E+02  0.20058011688E+02  0.84044392455E+02  0.00000000000E+00 0.  1.
         11    1    3    3    0    0  0.17834402551E+02  0.39492581661E+02  0.43499599825E+02  0.61399878709E+02  0.00000000000E+00 0. -1.
        -13    1    4    4    0    0  0.76262272040E+01  0.44634281236E+02 -0.43599892135E+02  0.62859597493E+02  0.00000000000E+00 0.  1.
         13    1    4    4    0    0 -0.56059215472E+02 -0.18138562809E+02 -0.23510187060E+02  0.63437938142E+02  0.00000000000E+00 0. -1.
         21    1    1    2  502  501 -0.45863111070E+02 -0.37444561811E+02  0.91336310531E+00  0.59214477946E+02  0.00000000000E+00 0. -1.
<scales pt_clust_5="13000.00000" pt_clust_6="13000.00000" pt_clust_7="13000.00000" pt_clust_8="13000.00000" pt_clust_9="59.20743"></scales>
<clustering>
<clus scale="   59.207">  1  9  2 -1</clus>
<clus scale="   90.016">  5  6 -1 -1</clus>
<clus scale="   91.649">  7  8 -1 -1</clus>
<clus scale="  108.921">  1  5  2 -1</clus>
<clus scale="  110.275">  2  5  1 -1</clus>
</clustering>
</event>
<event>
 9    1  0.1713970E-005  0.2999292E+03  0.7546771E-02  0.1085346E+00
         -1   -1    0    0    0  501 -0.00000000000E+00  0.00000000000E+00  0.27313213602E+03  0.27313213602E+03  0.00000000000E+00 0.  1.
          1   -1    0    0  502    0  0.00000000000E+00 -0.00000000000E+00 -0.77478130128E+03  0.77478130128E+03  0.00000000000E+00 0. -1.
         23    2    1    2    0    0 -0.53801067464E+02  0.31296893330E+03  0.68270965037E+02  0.33768641714E+03  0.92342209121E+02 0.  0.
         23    2    1    2    0    0  0.27449035828E+02 -0.27865151797E+03 -0.59240614749E+03  0.66146499051E+03  0.90502884185E+02 0.  0.
        -11    1    4    4    0    0 -0.15379967315E+02 -0.24375869202E+02 -0.24761361138E+02  0.37998044678E+02  0.00000000000E+00 0.  1.
         11    1    4    4    0    0  0.42829003143E+02 -0.25427564877E+03 -0.56764478635E+03  0.62346694583E+03  0.00000000000E+00 0. -1.
        -11    1    3    3    0    0 -0.36544014654E+02  0.15864877605E+03  0.81081882532E+02  0.18187680122E+03  0.00000000000E+00 0. -1.
         11    1    3    3    0    0 -0.17257052810E+02  0.15432015725E+03 -0.12810917496E+02  0.15580961592E+03  0.00000000000E+00 0.  1.
         21    1    1    2  502  501  0.26352031636E+02 -0.34317415327E+02  0.22486017199E+02  0.48762029650E+02  0.00000000000E+00 0. -1.
<scales pt_clust_5="13000.00000" pt_clust_6="13000.00000" pt_clust_7="13000.00000" pt_clust_8="13000.00000" pt_clust_9="43.26794"></scales>
<clustering>
<clus scale="   43.268">  1  9  2 -1</clus>
<clus scale="   90.503">  5  6 -1 -1</clus>
<clus scale="   92.342">  7  8 -1 -1</clus>
<clus scale="  299.368">  2  5  1 -1</clus>
<clus scale="  299.368">  2  5  1 -1</clus>
</clustering>
</event>
<event>
 9    1  0.1713970E-005  0.1182415E+03  0.7546771E-02  0.1247710E+00
         -1   -1    0    0    0  501 -0.00000000000E+00  0.00000000000E+00  0.51373519942E+02  0.51373519942E+02  0.00000000000E+00 0.  1.
          1   -1    0    0  502    0  0.00000000000E+00 -0.00000000000E+00 -0.55757853223E+03  0.55757853223E+03  0.00000000000E+00 0. -1.
         23    2    1    2    0    0  0.62727781391E+02  0.25663538796E+02 -0.10961357110E+03  0.16044491759E+03  0.95572196954E+02 0.  0.
         23    2    1    2    0    0 -0.26635844903E+02 -0.71904781635E+02 -0.36069159798E+03  0.37973447169E+03  0.90664625295E+02 0.  0.
        -11    1    4    4    0    0 -0.48998235269E+02 -0.95805311703E+01 -0.19530438492E+03  0.20158476234E+03  0.00000000000E+00 0. -1.
         11    1    4    4    0    0  0.22362390366E+02 -0.62324250465E+02 -0.16538721305E+03  0.17814970935E+03  0.00000000000E+00 0.  1.
        -13    1    3    3    0    0  0.69576958006E+02 -0.11443062978E+02 -0.98447167339E+02  0.12109393681E+03  0.00000000000E+00 0.  1.
         13    1    3    3    0    0 -0.68491766157E+01  0.37106601774E+02 -0.11166403762E+02  0.39350980782E+02  0.00000000000E+00 0. -1.
         21    1    1    2  502  501 -0.36091936487E+02  0.46241242839E+02 -0.35899843211E+02  0.68772662892E+02  0.00000000000E+00 0.  1.
<scales pt_clust_5="13000.00000" pt_clust_6="13000.00000" pt_clust_7="13000.00000" pt_clust_8="13000.00000" pt_clust_9="58.65902"></scales>
<clustering>
<clus scale="   58.659">  1  9  2 -1</clus>
<clus scale="   90.665">  5  6 -1 -1</clus>
<clus scale="   95.572">  7  8 -1 -1</clus>
<clus scale="  114.311">  2  5  1 -1</clus>
<clus scale="  114.311">  2  5  1 -1</clus>
</clustering>
</event>
<event>
 9    1  0.1713970E-005  0.1172815E+03  0.7546771E-02  0.1249532E+00
          1   -1    0    0  502    0  0.00000000000E+00  0.00000000000E+00  0.14298776797E+03  0.14298776797E+03  0.00000000000E+00 0. -1.
         -1   -1    0    0    0  501 -0.00000000000E+00 -0.00000000000E+00 -0.17190909269E+03  0.17190909269E+03  0.00000000000E+00 0.  1.
         23    2    1    2    0    0  0.18200838988E+02  0.92783517470E+02 -0.33238409235E+02  0.13635456958E+03  0.92453908213E+02 0.  0.
         23    2    1    2    0    0 -0.37566233333E+02 -0.38886037354E+02  0.30222024179E+02  0.11568512951E+03  0.97705335867E+02 0.  0.
        -11    1    4    4    0    0 -0.48596232435E+02  0.18705756655E+02  0.21774049900E+02  0.56441194069E+02  0.00000000000E+00 0. -1.
         11    1    4    4    0    0  0.11029999102E+02 -0.57591794009E+02  0.84479742787E+01  0.59243935443E+02  0.00000000000E+00 0.  1.
        -11    1    3    3    0    0 -0.11533048130E+01  0.10711710656E+03 -0.20350726780E+02  0.10903924390E+03  0.00000000000E+00 0. -1.
         11    1    3    3    0    0  0.19354143801E+02 -0.14333589086E+02 -0.12887682455E+02  0.27315325687E+02  0.00000000000E+00 0.  1.
         21    1    1    2  502  501  0.19365394345E+02 -0.53897480116E+02 -0.25904939668E+02  0.62857161566E+02  0.00000000000E+00 0.  1.
<scales pt_clust_5="13000.00000" pt_clust_6="13000.00000" pt_clust_7="13000.00000" pt_clust_8="13000.00000" pt_clust_9="57.27091"></scales>
<clustering>
<clus scale="   57.271">  2  9  1 -1</clus>
<clus scale="   92.454">  7  8 -1 -1</clus>
<clus scale="   97.705">  5  6 -1 -1</clus>
<clus scale="  112.944">  2  7  1 -1</clus>
<clus scale="  117.282">  1  5  2 -1</clus>
</clustering>
</event>
<event>
 9    1  0.1713970E-005  0.1049785E+03  0.7546771E-02  0.1270482E+00
          1   -1    0    0  502    0  0.00000000000E+00  0.00000000000E+00  0.16666261627E+03  0.16666261627E+03  0.00000000000E+00 0. -1.
         -1   -1    0    0    0  501 -0.00000000000E+00 -0.00000000000E+00 -0.11216528159E+03  0.11216528159E+03  0.00000000000E+00 0.  1.
         23    2    1    2    0    0  0.66022732245E+02  0.33927708208E+02 -0.98035571904E+01  0.11813137402E+03  0.91371884275E+02 0.  0.
         23    2    1    2    0    0 -0.16656110720E+02 -0.12226203276E+02  0.46295155168E+02  0.10384386171E+03  0.90627811140E+02 0.  0.
        -13    1    4    4    0    0  0.16741380190E+02  0.31798532196E+02  0.28256938843E+02  0.45715151244E+02  0.00000000000E+00 0.  1.
         13    1    4    4    0    0 -0.33397490909E+02 -0.44024735472E+02  0.18038216325E+02  0.58128710467E+02  0.00000000000E+00 0. -1.
        -13    1    3    3    0    0  0.46470411906E+02  0.40373354314E+02  0.33571772522E+02  0.70118263181E+02  0.00000000000E+00 0.  1.
         13    1    3    3    0    0  0.19552320339E+02 -0.64456461061E+01 -0.43375329713E+02  0.48013110835E+02  0.00000000000E+00 0. -1.
         21    1    1    2  502  501 -0.49366621525E+02 -0.21701504932E+02  0.18005736708E+02  0.56852662132E+02  0.00000000000E+00 0. -1.
<scales pt_clust_5="13000.00000" pt_clust_6="13000.00000" pt_clust_7="13000.00000" pt_clust_8="13000.00000" pt_clust_9="53.92605"></scales>
<clustering>
<clus scale="   53.926">  1  9  2 -1</clus>
<clus scale="   90.628">  5  6 -1 -1</clus>
<clus scale="   91.372">  7  8 -1 -1</clus>
<clus scale="  104.332">  1  5  2 -1</clus>
<clus scale="   53.926">  1  5  2 -1</clus>
</clustering>
</event>
<event>
 9    1  0.1713970E-005  0.1649287E+03  0.7546771E-02  0.1185088E+00
         -2   -1    0    0    0  501 -0.00000000000E+00  0.00000000000E+00  0.10677374155E+03  0.10677374155E+03  0.00000000000E+00 0.  1.
          2   -1    0    0  502    0  0.00000000000E+00 -0.00000000000E+00 -0.49026659680E+03  0.49026659680E+03  0.00000000000E+00 0. -1.
         23    2    1    2    0    0 -0.93830042858E+02 -0.88580025364E+02 -0.16133951823E+03  0.23051878740E+03  0.10226423308E+03 0.  0.
         23    2    1    2    0    0  0.67485829986E+02  0.11292718514E+03 -0.26565431010E+03  0.31013771993E+03  0.91138940378E+02 0.  0.
        -11    1    4    4    0    0 -0.16505752565E+01  0.80529360563E+02 -0.16681630053E+03  0.18524411039E+03  0.00000000000E+00 0.  1.
         11    1    4    4    0    0  0.69136405243E+02  0.32397824581E+02 -0.98838009568E+02  0.12489360954E+03  0.00000000000E+00 0. -1.
        -13    1    3    3    0    0 -0.74068587758E+02 -0.64780419025E+02 -0.17169807775E+03  0.19789615531E+03  0.00000000000E+00 0. -1.
         13    1    3    3    0    0 -0.19761455100E+02 -0.23799606338E+02  0.10358559521E+02  0.32622632096E+02  0.00000000000E+00 0.  1.
         21    1    1    2  502  501  0.26344212872E+02 -0.24347159781E+02  0.43500973081E+02  0.56383831018E+02  0.00000000000E+00 0.  1.
<scales pt_clust_5="13000.00000" pt_clust_6="13000.00000" pt_clust_7="13000.00000" pt_clust_8="13000.00000" pt_clust_9="35.87202"></scales>
<clustering>
<clus scale="   35.872">  1  9  2 -1</clus>
<clus scale="   91.139">  5  6 -1 -1</clus>
<clus scale="  102.264">  7  8 -1 -1</clus>
<clus scale="  158.271">  2  5  1 -1</clus>
<clus scale="  158.271">  2  5  1 -1</clus>
</clustering>
</event>
<event>
 9    1  0.1713970E-005  0.2599136E+03  0.7546771E-02  0.1139675E+00
         -2   -1    0    0    0  501 -0.00000000000E+00  0.00000000000E+00  0.16527562943E+03  0.16527562943E+03  0.00000000000E+00 0.  1.
          2   -1    0    0  502    0  0.00000000000E+00 -0.00000000000E+00 -0.63919800889E+03  0.63919800889E+03  0.00000000000E+00 0. -1.
         23    2    1    2    0    0  0.18254515693E+02 -0.67717449989E+02 -0.12394799416E+02  0.11658701732E+03  0.92303960798E+02 0.  0.
         23    2    1    2    0    0  0.18589775447E+03  0.17963528758E+03 -0.29025464232E+03  0.39885691495E+03  0.89511281690E+02 0.  0.
        -13    1    4    4    0    0  0.32231378451E+02  0.28525753506E+02 -0.80798041856E+01  0.43793419661E+02  0.00000000000E+00 0.  1.
         13    1    4    4    0    0  0.15366637602E+03  0.15110953408E+03 -0.28217483814E+03  0.35506349529E+03  0.00000000000E+00 0. -1.
        -13    1    3    3    0    0  0.39704680905E+02 -0.30217165029E+02  0.28193489273E+02  0.57309786124E+02  0.00000000000E+00 0.  1.
         13    1    3    3    0    0 -0.21450165212E+02 -0.37500284960E+02 -0.40588288689E+02  0.59277231197E+02  0.00000000000E+00 0. -1.
         21    1    1    2  502  501 -0.20415227017E+03 -0.11191783760E+03 -0.17127293773E+03  0.28902970606E+03  0.00000000000E+00 0.  1.
<scales pt_clust_5="13000.00000" pt_clust_6="13000.00000" pt_clust_7="13000.00000" pt_clust_8="13000.00000" pt_clust_9="244.01399"></scales>
<clustering>
<clus scale="   89.511">  5  6 -1 -1</clus>
<clus scale="   92.304">  7  8 -1 -1</clus>
<clus scale="  115.926">  1  7  2 -1</clus>
<clus scale="  244.014">  1  9  2 -1</clus>
<clus scale="  259.914">  2  5  1 -1</clus>
</clustering>
</event>
<event>
 9    1  0.1713970E-005  0.9905530E+02  0.7546771E-02  0.1284592E+00
         -2   -1    0    0    0  501 -0.00000000000E+00  0.00000000000E+00  0.20514885805E+03  0.20514885805E+03  0.00000000000E+00 0.  1.
          2   -1    0    0  502    0  0.00000000000E+00 -0.00000000000E+00 -0.21275341634E+03  0.21275341634E+03  0.00000000000E+00 0. -1.
         23    2    1    2    0    0  0.65999702109E+01 -0.24125257733E+02  0.16957291435E+03  0.19434935082E+03  0.91602997865E+02 0.  0.
         23    2    1    2    0    0  0.14673484632E+02  0.22048098842E+02 -0.17593150708E+03  0.20214201747E+03  0.95958690209E+02 0.  0.
        -13    1    3    3    0    0  0.31115188414E+02  0.22676868313E+02  0.46204837904E+02  0.60143847168E+02  0.00000000000E+00 0. -1.
         13    1    3    3    0    0 -0.24515218203E+02 -0.46802126046E+02  0.12336807644E+03  0.13420550366E+03  0.00000000000E+00 0.  1.
        -13    1    4    4    0    0 -0.33098608776E+02 -0.11518146391E+02 -0.10251526098E+03  0.10834004030E+03  0.00000000000E+00 0. -1.
         13    1    4    4    0    0  0.47772093408E+02  0.33566245233E+02 -0.73416246104E+02  0.93801977163E+02  0.00000000000E+00 0.  1.
         21    1    1    2  502  501 -0.21273454843E+02  0.20771588914E+01 -0.12459655566E+01  0.21410906104E+02  0.00000000000E+00 0.  1.
<scales pt_clust_5="13000.00000" pt_clust_6="13000.00000" pt_clust_7="13000.00000" pt_clust_8="13000.00000" pt_clust_9="21.37462"></scales>
<clustering>
<clus scale="   21.375">  2  9  1 -1</clus>
<clus scale="   91.603">  5  6 -1 -1</clus>
<clus scale="   94.842">  1  5  2 -1</clus>
<clus scale="   95.959">  7  8 -1 -1</clus>
<clus scale="   21.375">  2  5  1 -1</clus>
</clustering>
</event>
<event>
 9    1  0.1713970E-005  0.1024257E+03  0.7546771E-02  0.1275743E+00
         -1   -1    0    0    0  501 -0.00000000000E+00  0.00000000000E+00  0.42956909527E+02  0.42956909527E+02  0.00000000000E+00 0.  1.
          1   -1    0    0  502    0  0.00000000000E+00 -0.00000000000E+00 -0.61856468202E+03  0.61856468202E+03  0.00000000000E+00 0. -1.
         23    2    1    2    0    0  0.28983175149E+02 -0.29280407588E+02 -0.20829343892E+03  0.23128244952E+03  0.91695409099E+02 0.  0.
         23    2    1    2    0    0 -0.50399757825E+02  0.96869872727E+01 -0.38322572742E+03  0.39713710905E+03  0.90674979557E+02 0.  0.
        -13    1    4    4    0    0 -0.41340310634E+02  0.48050885908E+02 -0.26651647599E+03  0.27395061762E+03  0.00000000000E+00 0. -1.
         13    1    4    4    0    0 -0.90594471910E+01 -0.38363898636E+02 -0.11670925143E+03  0.12318649143E+03  0.00000000000E+00 0.  1.
        -13    1    3    3    0    0  0.35675320652E+02 -0.50229929247E+02 -0.19729963952E+03  0.20669523954E+03  0.00000000000E+00 0.  1.
         13    1    3    3    0    0 -0.66921455030E+01  0.20949521659E+02 -0.10993799396E+02  0.24587209974E+02  0.00000000000E+00 0. -1.
         21    1    1    2  502  501  0.21416582676E+02  0.19593420315E+02  0.15911393842E+02  0.33102032977E+02  0.00000000000E+00 0.  1.
<scales pt_clust_5="13000.00000" pt_clust_6="13000.00000" pt_clust_7="13000.00000" pt_clust_8="13000.00000" pt_clust_9="29.02709"></scales>
<clustering>
<clus scale="   29.027">  1  9  2 -1</clus>
<clus scale="   90.675">  5  6 -1 -1</clus>
<clus scale="   91.695">  7  8 -1 -1</clus>
<clus scale="  101.513">  2  5  1 -1</clus>
<clus scale="  101.513">  2  5  1 -1</clus>
</clustering>
</event>
<event>
 9    1  0.1713970E-005  0.1061917E+03  0.7546771E-02  0.1268182E+00
         -3   -1    0    0    0  501 -0.00000000000E+00  0.00000000000E+00  0.41829952170E+02  0.41829952170E+02  0.00000000000E+00 0.  1.
          3   -1    0    0  502    0  0.00000000000E+00 -0.00000000000E+00 -0.51344458610E+03  0.51344458610E+03  0.00000000000E+00 0. -1.
         23    2    1    2    0    0  0.27733389611E+02 -0.15086151062E+02 -0.11894781113E+03  0.15325077092E+03  0.91326251221E+02 0.  0.
         23    2    1    2    0    0 -0.31031785031E+02  0.58597610677E+02 -0.33704022221E+03  0.35567382478E+03  0.92255658834E+02 0.  0.
        -11    1    3    3    0    0  0.24906091321E+02 -0.51932522552E+02 -0.87347888346E+02  0.10462769176E+03  0.00000000000E+00 0.  1.
         11    1    3    3    0    0  0.28272982897E+01  0.36846371490E+02 -0.31599922786E+02  0.48623079167E+02  0.00000000000E+00 0. -1.
        -13    1    4    4    0    0 -0.41183455574E+02 -0.11367804353E+02 -0.11711358406E+03  0.12466312832E+03  0.00000000000E+00 0.  1.
         13    1    4    4    0    0  0.10151670543E+02  0.69965415030E+02 -0.21992663814E+03  0.23101069646E+03  0.00000000000E+00 0. -1.
         21    1    1    2  502  501  0.32983954200E+01 -0.43511459615E+02 -0.15626600591E+02  0.46349942570E+02  0.00000000000E+00 0.  1.
<scales pt_clust_5="13000.00000" pt_clust_6="13000.00000" pt_clust_7="13000.00000" pt_clust_8="13000.00000" pt_clust_9="43.63630"></scales>
<clustering>
<clus scale="   43.636">  1  9  2 -1</clus>
<clus scale="   91.326">  5  6 -1 -1</clus>
<clus scale="   92.256">  7  8 -1 -1</clus>
<clus scale="  105.385">  1  5  2 -1</clus>
<clus scale="  106.192">  2  5  1 -1</clus>
</clustering>
</event>
<event>
 9    1  0.1713970E-005  0.4970622E+03  0.7546771E-02  0.1014605E+00
         -1   -1    0    0    0  501 -0.00000000000E+00  0.00000000000E+00  0.13075689189E+04  0.13075689189E+04  0.00000000000E+00 0.  1.
          1   -1    0    0  502    0  0.00000000000E+00 -0.00000000000E+00 -0.31722386287E+03  0.31722386287E+03  0.00000000000E+00 0. -1.
         23    2    1    2    0    0  0.41861628492E+03  0.72504776577E+02  0.63171833237E+03  0.76623254276E+03  0.86877623741E+02 0.  0.
         23    2    1    2    0    0 -0.51924947959E+03  0.84339247071E+02  0.10561310155E+03  0.54432628063E+03  0.91672470871E+02 0.  0.
        -11    1    4    4    0    0 -0.43964275202E+02 -0.17803088644E+02  0.15558221559E+02  0.49918590899E+02  0.00000000000E+00 0.  1.
         11    1    4    4    0    0 -0.47528520439E+03  0.10214233571E+03  0.90054879996E+02  0.49440768973E+03  0.00000000000E+00 0. -1.
        -11    1    3    3    0    0  0.28160078690E+03  0.40318365581E+02  0.48941182500E+03  0.56608171515E+03  0.00000000000E+00 0.  1.
         11    1    3    3    0    0  0.13701549802E+03  0.32186410996E+02  0.14230650737E+03  0.20015082761E+03  0.00000000000E+00 0. -1.
         21    1    1    2  502  501  0.10063319467E+03 -0.15684402365E+03  0.25301362211E+03  0.31423395838E+03  0.00000000000E+00 0.  1.
<scales pt_clust_5="13000.00000" pt_clust_6="13000.00000" pt_clust_7="13000.00000" pt_clust_8="13000.00000" pt_clust_9="186.35205"></scales>
<clustering>
<clus scale="   86.878">  7  8 -1 -1</clus>
<clus scale="   91.672">  5  6 -1 -1</clus>
<clus scale="  186.352">  1  9  2 -1</clus>
<clus scale="  496.200">  1  7  2 -1</clus>
<clus scale="  497.062">  2  5  1 -1</clus>
</clustering>
</event>
<event>
 9    1  0.1713970E-005  0.1408781E+03  0.7546771E-02  0.1220150E+00
         -1   -1    0    0    0  501 -0.00000000000E+00  0.00000000000E+00  0.26312976207E+02  0.26312976207E+02  0.00000000000E+00 0.  1.
          1   -1    0    0  502    0  0.00000000000E+00 -0.00000000000E+00 -0.94849214770E+03  0.94849214770E+03  0.00000000000E+00 0. -1.
         23    2    1    2    0    0  0.60581824127E+02  0.54012059716E+02 -0.48706500406E+03  0.50761678678E+03  0.11770736609E+03 0.  0.
         23    2    1    2    0    0 -0.71258173598E+02 -0.28052388741E+02 -0.41767644607E+03  0.43414347245E+03  0.90345322222E+02 0.  0.
        -11    1    3    3    0    0  0.20732131355E+02  0.88054987204E+02 -0.29899384630E+03  0.31237929215E+03  0.00000000000E+00 0.  1.
         11    1    3    3    0    0  0.39849692772E+02 -0.34042927488E+02 -0.18807115777E+03  0.19523749463E+03  0.00000000000E+00 0. -1.
        -13    1    4    4    0    0 -0.28585386583E+02 -0.54591676487E+02 -0.29869029331E+03  0.30498076461E+03  0.00000000000E+00 0. -1.
         13    1    4    4    0    0 -0.42672787015E+02  0.26539287746E+02 -0.11898615277E+03  0.12916270784E+03  0.00000000000E+00 0.  1.
         21    1    1    2  502  501  0.10676349470E+02 -0.25959670975E+02 -0.17437721352E+02  0.33044864670E+02  0.00000000000E+00 0. -1.
<scales pt_clust_5="13000.00000" pt_clust_6="13000.00000" pt_clust_7="13000.00000" pt_clust_8="13000.00000" pt_clust_9="28.06936"></scales>
<clustering>
<clus scale="   28.069">  1  9  2 -1</clus>
<clus scale="   90.345">  7  8 -1 -1</clus>
<clus scale="  117.707">  5  6 -1 -1</clus>
<clus scale="  118.970">  2  7  1 -1</clus>
<clus scale="  118.970">  2  5  1 -1</clus>
</clustering>
</event>
<event>
 9    1  0.1713970E-005  0.1210453E+03  0.7546771E-02  0.1241541E+00
          1   -1    0    0  502    0  0.00000000000E+00  0.00000000000E+00  0.73595862224E+02  0.73595862224E+02  0.00000000000E+00 0. -1.
         -1   -1    0    0    0  501 -0.00000000000E+00 -0.00000000000E+00 -0.27519698860E+03  0.27519698860E+03  0.00000000000E+00 0.  1.
         23    2    1    2    0    0  0.63244215892E+02 -0.41392689761E+02 -0.77506145369E+02  0.14097798941E+03  0.90301745940E+02 0.  0.
         23    2    1    2    0    0 -0.54783228164E+02  0.65953985640E+02 -0.59811970896E+02  0.13848124072E+03  0.90820987992E+02 0.  0.
        -11    1    4    4    0    0 -0.10900598406E+02  0.67201233758E+02 -0.50098985848E+01  0.68263664918E+02  0.00000000000E+00 0. -1.
         11    1    4    4    0    0 -0.43882629758E+02 -0.12472481181E+01 -0.54802072311E+02  0.70217575805E+02  0.00000000000E+00 0.  1.
        -13    1    3    3    0    0  0.31566107309E+02  0.95200520617E+01  0.10396552883E+02  0.34570780057E+02  0.00000000000E+00 0. -1.
         13    1    3    3    0    0  0.31678108583E+02 -0.50912741823E+02 -0.87902698252E+02  0.10640720936E+03  0.00000000000E+00 0.  1.
         21    1    1    2  502  501 -0.84609877281E+01 -0.24561295879E+02 -0.64283010112E+02  0.69333620688E+02  0.00000000000E+00 0.  1.
<scales pt_clust_5="13000.00000" pt_clust_6="13000.00000" pt_clust_7="13000.00000" pt_clust_8="13000.00000" pt_clust_9="25.97779"></scales>
<clustering>
<clus scale="   25.978">  2  9  1 -1</clus>
<clus scale="   90.302">  7  8 -1 -1</clus>
<clus scale="   90.821">  5  6 -1 -1</clus>
<clus scale="  120.656">  2  7  1 -1</clus>
<clus scale="  121.045">  1  5  2 -1</clus>
</clustering>
</event>
<event>
 9    1  0.1713970E-005  0.1715492E+03  0.7546771E-02  0.1176356E+00
          1   -1    0    0  502    0  0.00000000000E+00  0.00000000000E+00  0.50668842967E+03  0.50668842967E+03  0.00000000000E+00 0. -1.
         -1   -1    0    0    0  501 -0.00000000000E+00 -0.00000000000E+00 -0.11278738296E+03  0.11278738296E+03  0.00000000000E+00 0.  1.
         23    2    1    2    0    0 -0.12008565138E+03  0.11628922164E+03  0.10981367187E+03  0.21978532886E+03  0.91119709803E+02 0.  0.
         23    2    1    2    0    0  0.91438478929E+02 -0.10161494934E+03  0.31473590880E+03  0.35524582841E+03  0.91947337955E+02 0.  0.
        -13    1    4    4    0    0  0.64777306094E+02 -0.30396513376E+02  0.74654370032E+02  0.10340852177E+03  0.00000000000E+00 0.  1.
         13    1    4    4    0    0  0.26661172835E+02 -0.71218435961E+02  0.24008153877E+03  0.25183730664E+03  0.00000000000E+00 0. -1.
        -13    1    3    3    0    0 -0.97489658040E+02  0.43702529215E+02  0.93631212328E+02  0.14205966495E+03  0.00000000000E+00 0. -1.
         13    1    3    3    0    0 -0.22595993338E+02  0.72586692426E+02  0.16182459538E+02  0.77725663902E+02  0.00000000000E+00 0.  1.
         21    1    1    2  502  501  0.28647172450E+02 -0.14674272305E+02 -0.30648533951E+02  0.44444655364E+02  0.00000000000E+00 0. -1.
<scales pt_clust_5="13000.00000" pt_clust_6="13000.00000" pt_clust_7="13000.00000" pt_clust_8="13000.00000" pt_clust_9="32.18687"></scales>
<clustering>
<clus scale="   32.187">  2  9  1 -1</clus>
<clus scale="   91.120">  7  8 -1 -1</clus>
<clus scale="   91.947">  5  6 -1 -1</clus>
<clus scale="  171.107">  2  7  1 -1</clus>
<clus scale="  171.549">  1  5  2 -1</clus>
</clustering>
</event>
<event>
 9    1  0.1713970E-005  0.2644425E+03  0.7546771E-02  0.1104635E+00
          1   -1    0    0  502    0  0.00000000000E+00  0.00000000000E+00  0.45539960895E+03  0.45539960895E+03  0.00000000000E+00 0. -1.
         -1   -1    0    0    0  501 -0.00000000000E+00 -0.00000000000E+00 -0.29169523076E+03  0.29169523076E+03  0.00000000000E+00 0.  1.
         23    2    1    2    0    0  0.22291541387E+03 -0.13502941725E+02 -0.11429871341E+03  0.26709685152E+03  0.91667448020E+02 0.  0.
         23    2    1    2    0    0 -0.25324404648E+03 -0.10698114725E+02  0.32256185807E+03  0.42091329679E+03  0.94206445588E+02 0.  0.
        -11    1    4    4    0    0 -0.75670468579E+02  0.35626644550E+02  0.72168595882E+02  0.11046983230E+03  0.00000000000E+00 0. -1.
         11    1    4    4    0    0 -0.17757357790E+03 -0.46324759275E+02  0.25039326219E+03  0.31044346449E+03  0.00000000000E+00 0.  1.
        -13    1    3    3    0    0  0.40371020555E+02 -0.13122638669E+02  0.13176212485E+02  0.44448121690E+02  0.00000000000E+00 0.  1.
         13    1    3    3    0    0  0.18254439332E+03 -0.38030305639E+00 -0.12747492590E+03  0.22264872983E+03  0.00000000000E+00 0. -1.
         21    1    1    2  502  501  0.30328632612E+02  0.24201056450E+02 -0.44558766464E+02  0.59084691403E+02  0.00000000000E+00 0.  1.
<scales pt_clust_5="13000.00000" pt_clust_6="13000.00000" pt_clust_7="13000.00000" pt_clust_8="13000.00000" pt_clust_9="38.80099"></scales>
<clustering>
<clus scale="   38.801">  2  9  1 -1</clus>
<clus scale="   91.667">  7  8 -1 -1</clus>
<clus scale="   94.206">  5  6 -1 -1</clus>
<clus scale="  263.549">  2  7  1 -1</clus>
<clus scale="  264.443">  1  5  2 -1</clus>
</clustering>
</event>
<event>
 9    1  0.1713970E-005  0.1058434E+03  0.7546771E-02  0.1270974E+00
          2   -1    0    0  502    0  0.00000000000E+00  0.00000000000E+00  0.46694813504E+02  0.46694813504E+02  0.00000000000E+00 0. -1.
         -2   -1    0    0    0  501 -0.00000000000E+00 -0.00000000000E+00 -0.51204660752E+03  0.51204660752E+03  0.00000000000E+00 0.  1.
         23    2    1    2    0    0  0.10445060795E+02  0.48627872611E+02 -0.16079708177E+03  0.19126487078E+03  0.90844812719E+02 0.  0.
         23    2    1    2    0    0 -0.69972311591E+02 -0.15456484655E+02 -0.92038867843E+02  0.14430213709E+03  0.84952494182E+02 0.  0.
        -11    1    3    3    0    0 -0.14779222644E+02  0.54030010218E+02 -0.15501973666E+03  0.16482956707E+03  0.00000000000E+00 0. -1.
         11    1    3    3    0    0  0.25224283439E+02 -0.54021376073E+01 -0.57773451138E+01  0.26435303711E+02  0.00000000000E+00 0.  1.
        -11    1    4    4    0    0 -0.38941806865E+02  0.17207167082E+02 -0.89579319668E+02  0.99181678919E+02  0.00000000000E+00 0.  1.
         11    1    4    4    0    0 -0.31030504726E+02 -0.32663651737E+02 -0.24595481745E+01  0.45120458171E+02  0.00000000000E+00 0. -1.
         21    1    1    2  502  501  0.59527250796E+02 -0.33171387956E+02 -0.21251584440E+03  0.22317441316E+03  0.00000000000E+00 0.  1.
<scales pt_clust_5="13000.00000" pt_clust_6="13000.00000" pt_clust_7="13000.00000" pt_clust_8="13000.00000" pt_clust_9="68.14569"></scales>
<clustering>
<clus scale="   68.146">  2  9  1 -1</clus>
<clus scale="   84.952">  7  8 -1 -1</clus>
<clus scale="   90.845">  5  6 -1 -1</clus>
<clus scale="  100.831">  1  7  2 -1</clus>
<clus scale="  100.831">  1  5  2 -1</clus>
</clustering>
</event>
<event>
 9    1  0.1713970E-005  0.1372580E+03  0.7546771E-02  0.1217669E+00
          1   -1    0    0  502    0  0.00000000000E+00  0.00000000000E+00  0.74373844368E+02  0.74373844368E+02  0.00000000000E+00 0. -1.
         -1   -1    0    0    0  501 -0.00000000000E+00 -0.00000000000E+00 -0.30340388703E+03  0.30340388703E+03  0.00000000000E+00 0.  1.
         23    2    1    2    0    0  0.91844515035E+02 -0.34610601864E+02 -0.12172496350E+03  0.18146116320E+03  0.92075394699E+02 0.  0.
         23    2    1    2    0    0 -0.88883058069E+02  0.56990844867E+02 -0.76523233653E+02  0.15814370457E+03  0.89473301028E+02 0.  0.
        -13    1    3    3    0    0  0.18525646762E+02  0.25051599354E+02 -0.62713619620E+02  0.70026996965E+02  0.00000000000E+00 0.  1.
         13    1    3    3    0    0  0.73318868273E+02 -0.59662201218E+02 -0.59011343881E+02  0.11143416624E+03  0.00000000000E+00 0. -1.
        -13    1    4    4    0    0 -0.63961168547E+02  0.12796750435E+02 -0.84538195352E+02  0.10677778035E+03  0.00000000000E+00 0. -1.
         13    1    4    4    0    0 -0.24921889522E+02  0.44194094432E+02  0.80149616988E+01  0.51365924220E+02  0.00000000000E+00 0.  1.
         21    1    1    2  502  501 -0.29614569667E+01 -0.22380243002E+02 -0.30781845510E+02  0.38172863624E+02  0.00000000000E+00 0. -1.
<scales pt_clust_5="13000.00000" pt_clust_6="13000.00000" pt_clust_7="13000.00000" pt_clust_8="13000.00000" pt_clust_9="22.57533"></scales>
<clustering>
<clus scale="   22.575">  2  9  1 -1</clus>
<clus scale="   89.473">  7  8 -1 -1</clus>
<clus scale="   92.075">  5  6 -1 -1</clus>
<clus scale="  135.526">  1  7  2 -1</clus>
<clus scale="  135.526">  1  5  2 -1</clus>
</clustering>
</event>
<event>
 9    1  0.1713970E-005  0.9903291E+02  0.7546771E-02  0.1286519E+00
          1   -1    0    0  502    0  0.00000000000E+00  0.00000000000E+00  0.93331779367E+03  0.93331779367E+03  0.00000000000E+00 0. -1.
         -1   -1    0    0    0  501 -0.00000000000E+00 -0.00000000000E+00 -0.18863110815E+02  0.18863110815E+02  0.00000000000E+00 0.  1.
         23    2    1    2    0    0 -0.13344476655E+02 -0.18572514159E+02  0.24229694594E+03  0.26200190602E+03  0.97026673696E+02 0.  0.
         23    2    1    2    0    0 -0.35606543153E+02 -0.91948426041E+01  0.49343744067E+03  0.50280724837E+03  0.89343439123E+02 0.  0.
        -11    1    3    3    0    0  0.14374081522E+02 -0.50749850801E+02  0.94498527962E+02  0.10822261022E+03  0.00000000000E+00 0.  1.
         11    1    3    3    0    0 -0.27718558177E+02  0.32177336642E+02  0.14779841798E+03  0.15377929580E+03  0.00000000000E+00 0. -1.
        -11    1    4    4    0    0 -0.24650939873E+02  0.38963013525E+02  0.27660376604E+03  0.28042009316E+03  0.00000000000E+00 0.  1.
         11    1    4    4    0    0 -0.10955603281E+02 -0.48157856129E+02  0.21683367463E+03  0.22238715521E+03  0.00000000000E+00 0. -1.
         21    1    1    2  502  501  0.48951019808E+02  0.27767356763E+02  0.17872029625E+03  0.18737175010E+03  0.00000000000E+00 0.  1.
<scales pt_clust_5="13000.00000" pt_clust_6="13000.00000" pt_clust_7="13000.00000" pt_clust_8="13000.00000" pt_clust_9="56.27813"></scales>
<clustering>
<clus scale="   56.278">  2  9  1 -1</clus>
<clus scale="   89.343">  7  8 -1 -1</clus>
<clus scale="   91.518">  1  7  2 -1</clus>
<clus scale="   97.027">  5  6 -1 -1</clus>
<clus scale="   91.518">  1  5  2 -1</clus>
</clustering>
</event>
<event>
 9    1  0.1713970E-005  0.1026694E+03  0.7546771E-02  0.1277855E+00
         -1   -1    0    0    0  501 -0.00000000000E+00  0.00000000000E+00  0.39110997809E+03  0.39110997809E+03  0.00000000000E+00 0.  1.
          1   -1    0    0  502    0  0.00000000000E+00 -0.00000000000E+00 -0.22845077969E+03  0.22845077969E+03  0.00000000000E+00 0. -1.
         23    2    1    2    0    0 -0.63826629790E+02 -0.66534261833E+02 -0.10799056352E+02  0.13496427057E+03  0.97969832315E+02 0.  0.
         23    2    1    2    0    0 -0.32766556192E+01  0.20311519403E+02 -0.13556484140E+03  0.16501133927E+03  0.91802078257E+02 0.  0.
        -11    1    4    4    0    0 -0.10042941495E+02 -0.31447812202E+02 -0.21029138476E+02  0.39141413250E+02  0.00000000000E+00 0. -1.
         11    1    4    4    0    0  0.67662858762E+01  0.51759331604E+02 -0.11453570293E+03  0.12586992602E+03  0.00000000000E+00 0.  1.
        -13    1    3    3    0    0  0.19761324381E+02 -0.20629958523E+02  0.19861340638E+02  0.34793361176E+02  0.00000000000E+00 0.  1.
         13    1    3    3    0    0 -0.83587954171E+02 -0.45904303310E+02 -0.30660396990E+02  0.10017090939E+03  0.00000000000E+00 0. -1.
         21    1    1    2  502  501  0.67103285409E+02  0.46222742430E+02  0.30902309615E+03  0.31958514794E+03  0.00000000000E+00 0.  1.
<scales pt_clust_5="13000.00000" pt_clust_6="13000.00000" pt_clust_7="13000.00000" pt_clust_8="13000.00000" pt_clust_9="81.48247"></scales>
<clustering>
<clus scale="   81.482">  1  9  2 -1</clus>
<clus scale="   91.802">  5  6 -1 -1</clus>
<clus scale="   96.802">  2  5  1 -1</clus>
<clus scale="   97.970">  7  8 -1 -1</clus>
<clus scale="   96.802">  2  5  1 -1</clus>
</clustering>
</event>
<event>
 9    1  0.1713970E-005  0.1035774E+03  0.7546771E-02  0.1273449E+00
         -2   -1    0    0    0  501 -0.00000000000E+00  0.00000000000E+00  0.31886866124E+03  0.31886866124E+03  0.00000000000E+00 0.  1.
          2   -1    0    0  502    0  0.00000000000E+00 -0.00000000000E+00 -0.15600515992E+03  0.15600515992E+03  0.00000000000E+00 0. -1.
         23    2    1    2    0    0 -0.41202507662E+02 -0.38972368697E+02 -0.20499659116E+02  0.10916995523E+03  0.91001928227E+02 0.  0.
         23    2    1    2    0    0 -0.23062196695E+01  0.48758391721E+02 -0.58648556809E+02  0.11961760690E+03  0.92119592115E+02 0.  0.
        -13    1    4    4    0    0  0.15123562289E+02  0.38311907063E+02 -0.80099931474E+02  0.90069547469E+02  0.00000000000E+00 0. -1.
         13    1    4    4    0    0 -0.17429781959E+02  0.10446484658E+02  0.21451374666E+02  0.29548059427E+02  0.00000000000E+00 0.  1.
        -13    1    3    3    0    0  0.24817011979E+02  0.80173276264E+01 -0.28465503763E+01  0.26234795118E+02  0.00000000000E+00 0.  1.
         13    1    3    3    0    0 -0.66019519641E+02 -0.46989696323E+02 -0.17653108740E+02  0.82935160109E+02  0.00000000000E+00 0. -1.
         21    1    1    2  502  501  0.43508727331E+02 -0.97860230245E+01  0.24201171725E+03  0.24608625904E+03  0.00000000000E+00 0.  1.
<scales pt_clust_5="13000.00000" pt_clust_6="13000.00000" pt_clust_7="13000.00000" pt_clust_8="13000.00000" pt_clust_9="44.59569"></scales>
<clustering>
<clus scale="   44.596">  1  9  2 -1</clus>
<clus scale="   91.002">  7  8 -1 -1</clus>
<clus scale="   92.120">  5  6 -1 -1</clus>
<clus scale="  102.585">  1  7  2 -1</clus>
<clus scale="  103.577">  2  5  1 -1</clus>
</clustering>
</event>
<event>
 9    1  0.1713970E-005  0.1171511E+03  0.7546771E-02  0.1254334E+00
         -3   -1    0    0    0  501 -0.00000000000E+00  0.00000000000E+00  0.58977625539E+02  0.58977625539E+02  0.00000000000E+00 0.  1.
          3   -1    0    0  502    0  0.00000000000E+00 -0.00000000000E+00 -0.34712256036E+03  0.34712256036E+03  0.00000000000E+00 0. -1.
         23    2    1    2    0    0 -0.45670253656E+02 -0.11788462003E+02 -0.40637499352E+02  0.10884916309E+03  0.89286023801E+02 0.  0.
         23    2    1    2    0    0  0.31227387230E+02  0.48252019181E+02 -0.21542955843E+03  0.24658370012E+03  0.10531011088E+03 0.  0.
        -13    1    4    4    0    0  0.13314144988E+02 -0.30190801186E+02 -0.30606647050E+02  0.45005752706E+02  0.00000000000E+00 0. -1.
         13    1    4    4    0    0  0.17913242241E+02  0.78442820367E+02 -0.18482291138E+03  0.20157794742E+03  0.00000000000E+00 0.  1.
        -13    1    3    3    0    0 -0.13599397551E+02 -0.33508925566E+02 -0.56426792052E+02  0.67020702530E+02  0.00000000000E+00 0. -1.
         13    1    3    3    0    0 -0.32070856105E+02  0.21720463563E+02  0.15789292700E+02  0.41828460558E+02  0.00000000000E+00 0.  1.
         21    1    1    2  502  501  0.14442866426E+02 -0.36463557178E+02 -0.32077877038E+02  0.50667322684E+02  0.00000000000E+00 0. -1.
<scales pt_clust_5="13000.00000" pt_clust_6="13000.00000" pt_clust_7="13000.00000" pt_clust_8="13000.00000" pt_clust_9="39.21973"></scales>
<clustering>
<clus scale="   39.220">  1  9  2 -1</clus>
<clus scale="   89.286">  7  8 -1 -1</clus>
<clus scale="  102.986">  1  7  2 -1</clus>
<clus scale="  105.310">  5  6 -1 -1</clus>
<clus scale="  117.151">  2  5  1 -1</clus>
</clustering>
</event>
<event>
 9    1  0.1713970E-005  0.1175708E+03  0.7546771E-02  0.1247350E+00
         -3   -1    0    0    0  501 -0.00000000000E+00  0.00000000000E+00  0.98816038371E+02  0.98816038371E+02  0.00000000000E+00 0.  1.
          3   -1    0    0  502    0  0.00000000000E+00 -0.00000000000E+00 -0.17765523723E+03  0.17765523723E+03  0.00000000000E+00 0. -1.
         23    2    1    2    0    0  0.46752489109E+02 -0.43424025750E+02 -0.16223496450E+02  0.11113646630E+03  0.89535864625E+02 0.  0.
         23    2    1    2    0    0 -0.74176466374E+02  0.45811760492E+02 -0.58130219338E+02  0.13744403368E+03  0.88943096594E+02 0.  0.
        -13    1    4    4    0    0 -0.11454471528E+02  0.57823585798E+02 -0.39363025736E+02  0.70881730986E+02  0.00000000000E+00 0.  1.
         13    1    4    4    0    0 -0.62721994846E+02 -0.12011825306E+02 -0.18767193603E+02  0.66562302697E+02  0.00000000000E+00 0. -1.
        -13    1    3    3    0    0  0.31568266621E+02 -0.13866019587E+02  0.35609184555E+02  0.49566480421E+02  0.00000000000E+00 0.  1.
         13    1    3    3    0    0  0.15184222488E+02 -0.29558006163E+02 -0.51832681005E+02  0.61569985878E+02  0.00000000000E+00 0. -1.
         21    1    1    2  502  501  0.27423977265E+02 -0.23877347419E+01 -0.44854830719E+01  0.27890775619E+02  0.00000000000E+00 0. -1.
<scales pt_clust_5="13000.00000" pt_clust_6="13000.00000" pt_clust_7="13000.00000" pt_clust_8="13000.00000" pt_clust_9="27.52773"></scales>
<clustering>
<clus scale="   27.528">  1  9  2 -1</clus>
<clus scale="   88.943">  5  6 -1 -1</clus>
<clus scale="   89.536">  7  8 -1 -1</clus>
<clus scale="  117.120">  2  5  1 -1</clus>
<clus scale="  117.120">  2  5  1 -1</clus>
</clustering>
</event>
<event>
 9    1  0.1713970E-005  0.1194657E+03  0.7546771E-02  0.1244050E+00
         -2   -1    0    0    0  501 -0.00000000000E+00  0.00000000000E+00  0.31932937295E+03  0.31932937295E+03  0.00000000000E+00 0.  1.
          2   -1    0    0  502    0  0.00000000000E+00 -0.00000000000E+00 -0.13278812753E+03  0.13278812753E+03  0.00000000000E+00 0. -1.
         23    2    1    2    0    0 -0.91110339043E+01  0.65459502988E+02  0.18516845962E+03  0.21666416617E+03  0.91038700519E+02 0.  0.
         23    2    1    2    0    0  0.52128546004E+02 -0.61614429005E+02 -0.78499089625E+02  0.14465241238E+03  0.90821198878E+02 0.  0.
        -11    1    3    3    0    0  0.20331584814E+02  0.70503297393E+02  0.16511714509E+03  0.18068691122E+03  0.00000000000E+00 0.  1.
         11    1    3    3    0    0 -0.29442618718E+02 -0.50437944049E+01  0.20051314533E+02  0.35977254946E+02  0.00000000000E+00 0. -1.
        -13    1    4    4    0    0  0.37678866154E+02  0.93045419452E+00  0.63865964721E+01  0.38227625013E+02  0.00000000000E+00 0.  1.
         13    1    4    4    0    0  0.14449679850E+02 -0.62544883200E+02 -0.84885686097E+02  0.10642478737E+03  0.00000000000E+00 0. -1.
         21    1    1    2  502  501 -0.43017512099E+02 -0.38450739833E+01  0.79871875424E+02  0.90800921939E+02  0.00000000000E+00 0. -1.
<scales pt_clust_5="13000.00000" pt_clust_6="13000.00000" pt_clust_7="13000.00000" pt_clust_8="13000.00000" pt_clust_9="43.18901"></scales>
<clustering>
<clus scale="   43.189">  1  9  2 -1</clus>
<clus scale="   90.821">  7  8 -1 -1</clus>
<clus scale="   91.039">  5  6 -1 -1</clus>
<clus scale="  119.300">  2  7  1 -1</clus>
<clus scale="  119.300">  2  5  1 -1</clus>
</clustering>
</event>
<event>
 9    1  0.1713970E-005  0.1348762E+03  0.7546771E-02  0.1234762E+00
          3   -1    0    0  502    0  0.00000000000E+00  0.00000000000E+00  0.15082313975E+03  0.15082313975E+03  0.00000000000E+00 0. -1.
         -3   -1    0    0    0  501 -0.00000000000E+00 -0.00000000000E+00 -0.14842944476E+03  0.14842944476E+03  0.00000000000E+00 0.  1.
         23    2    1    2    0    0  0.20545022319E+02 -0.25040596188E+02 -0.47621553331E+02  0.14015222120E+03  0.12777207585E+03 0.  0.
         23    2    1    2    0    0 -0.95267817308E+01  0.46089203783E+02  0.73566143231E+02  0.12564755836E+03  0.90334695531E+02 0.  0.
        -11    1    4    4    0    0 -0.54023546989E+01 -0.20064018661E+02 -0.64385965908E+01  0.21753294169E+02  0.00000000000E+00 0.  1.
         11    1    4    4    0    0 -0.41244270320E+01  0.66153222445E+02  0.80004739822E+02  0.10389426419E+03  0.00000000000E+00 0. -1.
        -13    1    3    3    0    0  0.24435408745E+02 -0.71691129108E+02 -0.34966680694E+01  0.75821724334E+02  0.00000000000E+00 0.  1.
         13    1    3    3    0    0 -0.38903864266E+01  0.46650532920E+02 -0.44124885262E+02  0.64330496871E+02  0.00000000000E+00 0. -1.
         21    1    1    2  502  501 -0.11018240588E+02 -0.21048607595E+02 -0.23550894915E+02  0.33452804945E+02  0.00000000000E+00 0.  1.
<scales pt_clust_5="13000.00000" pt_clust_6="13000.00000" pt_clust_7="13000.00000" pt_clust_8="13000.00000" pt_clust_9="23.75806"></scales>
<clustering>
<clus scale="   23.758">  2  9  1 -1</clus>
<clus scale="   90.335">  5  6 -1 -1</clus>
<clus scale="  100.131">  1  5  2 -1</clus>
<clus scale="  127.772">  7  8 -1 -1</clus>
<clus scale="  100.131">  1  5  2 -1</clus>
</clustering>
</event>
<event>
 9    1  0.1713970E-005  0.4469228E+03  0.7546771E-02  0.1028655E+00
         -1   -1    0    0    0  501 -0.00000000000E+00  0.00000000000E+00  0.13983614499E+03  0.13983614499E+03  0.00000000000E+00 0.  1.
          1   -1    0    0  502    0  0.00000000000E+00 -0.00000000000E+00 -0.17502182679E+04  0.17502182679E+04  0.00000000000E+00 0. -1.
         23    2    1    2    0    0 -0.61349260707E+02  0.44456497938E+03 -0.83469868004E+03  0.95206556349E+03  0.91132859300E+02 0.  0.
         23    2    1    2    0    0  0.53055249983E+02 -0.42323078187E+03 -0.79576764202E+03  0.90753702429E+03  0.91859436640E+02 0.  0.
        -11    1    4    4    0    0  0.56070576586E+01 -0.32515011976E+03 -0.63334779175E+03  0.71195748805E+03  0.00000000000E+00 0.  1.
         11    1    4    4    0    0  0.47448192324E+02 -0.98080662106E+02 -0.16241985028E+03  0.19557953625E+03  0.00000000000E+00 0. -1.
        -13    1    3    3    0    0  0.10482869307E+02  0.32767594557E+02 -0.11219115978E+03  0.11734761239E+03  0.00000000000E+00 0.  1.
         13    1    3    3    0    0 -0.71832130014E+02  0.41179738483E+03 -0.72250752026E+03  0.83471795109E+03  0.00000000000E+00 0. -1.
         21    1    1    2  502  501  0.82940107242E+01 -0.21334197515E+02  0.20084199149E+02  0.30451825117E+02  0.00000000000E+00 0.  1.
<scales pt_clust_5="13000.00000" pt_clust_6="13000.00000" pt_clust_7="13000.00000" pt_clust_8="13000.00000" pt_clust_9="22.88971"></scales>
<clustering>
<clus scale="   22.890">  1  9  2 -1</clus>
<clus scale="   91.133">  7  8 -1 -1</clus>
<clus scale="   91.859">  5  6 -1 -1</clus>
<clus scale="  446.774">  1  7  2 -1</clus>
<clus scale="  446.923">  2  5  1 -1</clus>
</clustering>
</event>
<event>
 9    1  0.1713970E-005  0.9572834E+02  0.7546771E-02  0.1289682E+00
          1   -1    0    0  502    0  0.00000000000E+00  0.00000000000E+00  0.39003373316E+03  0.39003373316E+03  0.00000000000E+00 0. -1.
         -1   -1    0    0    0  501 -0.00000000000E+00 -0.00000000000E+00 -0.64039525650E+02  0.64039525650E+02  0.00000000000E+00 0.  1.
         23    2    1    2    0    0  0.30729280302E+02 -0.58843597438E+02  0.64936870153E+02  0.12978630290E+03  0.90668791147E+02 0.  0.
         23    2    1    2    0    0 -0.21887402687E+02  0.78458675784E+01  0.25554582812E+03  0.27223578892E+03  0.90928754876E+02 0.  0.
        -11    1    3    3    0    0 -0.26500109159E+02 -0.16018289194E+02  0.46673521362E+02  0.56011239679E+02  0.00000000000E+00 0.  1.
         11    1    3    3    0    0  0.57229389461E+02 -0.42825308244E+02  0.18263348792E+02  0.73775063222E+02  0.00000000000E+00 0. -1.
        -11    1    4    4    0    0  0.22299149278E+02 -0.25255352728E+02  0.57549372521E+02  0.66685944377E+02  0.00000000000E+00 0.  1.
         11    1    4    4    0    0 -0.44186551965E+02  0.33101220307E+02  0.19799645560E+03  0.20554984454E+03  0.00000000000E+00 0. -1.
         21    1    1    2  502  501 -0.88418776147E+01  0.50997729860E+02  0.55115092308E+01  0.52051166986E+02  0.00000000000E+00 0. -1.
<scales pt_clust_5="13000.00000" pt_clust_6="13000.00000" pt_clust_7="13000.00000" pt_clust_8="13000.00000" pt_clust_9="51.75855"></scales>
<clustering>
<clus scale="   51.759">  2  9  1 -1</clus>
<clus scale="   90.669">  5  6 -1 -1</clus>
<clus scale="   90.929">  7  8 -1 -1</clus>
<clus scale="   95.481">  2  5  1 -1</clus>
<clus scale="   95.728">  1  5  2 -1</clus>
</clustering>
</event>
<event>
 9    1  0.1713970E-005  0.1672209E+03  0.7546771E-02  0.1185950E+00
          1   -1    0    0  502    0  0.00000000000E+00  0.00000000000E+00  0.92649624514E+02  0.92649624514E+02  0.00000000000E+00 0. -1.
         -1   -1    0    0    0  501 -0.00000000000E+00 -0.00000000000E+00 -0.31517559910E+03  0.31517559910E+03  0.00000000000E+00 0.  1.
         23    2    1    2    0    0 -0.38048205912E+02 -0.10149079201E+03 -0.10977882348E+03  0.17914421413E+03  0.91067077119E+02 0.  0.
         23    2    1    2    0    0  0.58983646149E+02  0.11353809093E+03 -0.94490039147E+02  0.19840309334E+03  0.11859785556E+03 0.  0.
        -11    1    3    3    0    0 -0.58812019788E+01 -0.88547979105E+02 -0.32612316127E+02  0.94545736569E+02  0.00000000000E+00 0. -1.
         11    1    3    3    0    0 -0.32167003933E+02 -0.12942812902E+02 -0.77166507353E+02  0.84598477557E+02  0.00000000000E+00 0.  1.
        -11    1    4    4    0    0  0.32619832397E+02  0.12283259807E+02 -0.86745140706E+02  0.93486102567E+02  0.00000000000E+00 0. -1.
         11    1    4    4    0    0  0.26363813753E+02  0.10125483112E+03 -0.77448984409E+01  0.10491699077E+03  0.00000000000E+00 0.  1.
         21    1    1    2  502  501 -0.20935440238E+02 -0.12047298920E+02 -0.18257111958E+02  0.30277916148E+02  0.00000000000E+00 0. -1.
<scales pt_clust_5="13000.00000" pt_clust_6="13000.00000" pt_clust_7="13000.00000" pt_clust_8="13000.00000" pt_clust_9="24.15430"></scales>
<clustering>
<clus scale="   24.154">  2  9  1 -1</clus>
<clus scale="   91.067">  5  6 -1 -1</clus>
<clus scale="  118.598">  7  8 -1 -1</clus>
<clus scale="  148.965">  2  5  1 -1</clus>
<clus scale="  167.221">  1  5  2 -1</clus>
</clustering>
</event>
<event>
 9    1  0.1713970E-005  0.1208649E+03  0.7546771E-02  0.1242268E+00
          2   -1    0    0  502    0  0.00000000000E+00  0.00000000000E+00  0.40560339724E+03  0.40560339724E+03  0.00000000000E+00 0. -1.
         -2   -1    0    0    0  501 -0.00000000000E+00 -0.00000000000E+00 -0.69948095577E+02  0.69948095577E+02  0.00000000000E+00 0.  1.
         23    2    1    2    0    0 -0.93025251202E+02 -0.27374206655E+02  0.80325206854E+02  0.15595189869E+03  0.92009843481E+02 0.  0.
         23    2    1    2    0    0  0.72667407548E+02  0.55461862832E+01  0.26416595974E+03  0.28847120226E+03  0.90114748766E+02 0.  0.
        -13    1    3    3    0    0 -0.45431545363E+02 -0.27695429929E+02 -0.97329017974E+01  0.54090586339E+02  0.00000000000E+00 0.  1.
         13    1    3    3    0    0 -0.47593705838E+02  0.32122327398E+00  0.90058108652E+02  0.10186131235E+03  0.00000000000E+00 0. -1.
        -13    1    4    4    0    0  0.84244524480E+02 -0.19258472426E+02  0.22170065120E+03  0.23794790902E+03  0.00000000000E+00 0.  1.
         13    1    4    4    0    0 -0.11577116932E+02  0.24804658710E+02  0.42465308539E+02  0.50523293237E+02  0.00000000000E+00 0. -1.
         21    1    1    2  502  501  0.20357843653E+02  0.21828020372E+02 -0.88358649272E+01  0.31128391873E+02  0.00000000000E+00 0.  1.
<scales pt_clust_5="13000.00000" pt_clust_6="13000.00000" pt_clust_7="13000.00000" pt_clust_8="13000.00000" pt_clust_9="29.84802"></scales>
<clustering>
<clus scale="   29.848">  2  9  1 -1</clus>
<clus scale="   90.115">  7  8 -1 -1</clus>
<clus scale="   92.010">  5  6 -1 -1</clus>
<clus scale="  119.429">  1  7  2 -1</clus>
<clus scale="  119.429">  1  5  2 -1</clus>
</clustering>
</event>
<event>
 9    1  0.1713970E-005  0.1247624E+03  0.7546771E-02  0.1236161E+00
         -1   -1    0    0    0  501 -0.00000000000E+00  0.00000000000E+00  0.30435730860E+03  0.30435730860E+03  0.00000000000E+00 0.  1.
          1   -1    0    0  502    0  0.00000000000E+00 -0.00000000000E+00 -0.22909293811E+03  0.22909293811E+03  0.00000000000E+00 0. -1.
         23    2    1    2    0    0  0.37026157118E+02  0.23024736478E+02  0.14191028404E+03  0.17318804817E+03  0.89187984128E+02 0.  0.
         23    2    1    2    0    0 -0.75807727086E+02  0.55355541394E+02 -0.17644963870E+03  0.21989006390E+03  0.91684882927E+02 0.  0.
        -11    1    3    3    0    0  0.66497214191E+02  0.15699424370E+02  0.10657762734E+03  0.12659834940E+03  0.00000000000E+00 0.  1.
         11    1    3    3    0    0 -0.29471057073E+02  0.73253121079E+01  0.35332656694E+02  0.46589698770E+02  0.00000000000E+00 0. -1.
        -13    1    4    4    0    0 -0.53081774998E+02 -0.16708325834E+02 -0.74158196887E+02  0.92716132116E+02  0.00000000000E+00 0.  1.
         13    1    4    4    0    0 -0.22725952088E+02  0.72063867228E+02 -0.10229144181E+03  0.12717393178E+03  0.00000000000E+00 0. -1.
         21    1    1    2  502  501  0.38781569968E+02 -0.78380277871E+02  0.10980372514E+03  0.14037213464E+03  0.00000000000E+00 0.  1.
<scales pt_clust_5="13000.00000" pt_clust_6="13000.00000" pt_clust_7="13000.00000" pt_clust_8="13000.00000" pt_clust_9="87.44986"></scales>
<clustering>
<clus scale="   87.450">  1  9  2 -1</clus>
<clus scale="   89.188">  5  6 -1 -1</clus>
<clus scale="   91.685">  7  8 -1 -1</clus>
<clus scale="  122.939">  1  5  2 -1</clus>
<clus scale="  124.762">  2  5  1 -1</clus>
</clustering>
</event>
<event>
 9    1  0.1713970E-005  0.1901546E+03  0.7546771E-02  0.1160134E+00
         -2   -1    0    0    0  501 -0.00000000000E+00  0.00000000000E+00  0.55703454124E+02  0.55703454124E+02  0.00000000000E+00 0.  1.
          2   -1    0    0  502    0  0.00000000000E+00 -0.00000000000E+00 -0.99480423296E+03  0.99480423296E+03  0.00000000000E+00 0. -1.
         23    2    1    2    0    0  0.72096306620E+01 -0.13923559133E+03 -0.22199672930E+03  0.27749579401E+03  0.91010104968E+02 0.  0.
         23    2    1    2    0    0 -0.11542306308E+02  0.17965942453E+03 -0.70395149278E+03  0.73028194903E+03  0.73166161765E+02 0.  0.
        -11    1    3    3    0    0  0.22930590055E+02 -0.11810678710E+03 -0.11194630013E+03  0.16433806386E+03  0.00000000000E+00 0.  1.
         11    1    3    3    0    0 -0.15720959393E+02 -0.21128804226E+02 -0.11005042917E+03  0.11315773015E+03  0.00000000000E+00 0. -1.
        -11    1    4    4    0    0  0.16872560583E+02  0.68489586328E+02 -0.16839909917E+03  0.18257536345E+03  0.00000000000E+00 0. -1.
         11    1    4    4    0    0 -0.28414866891E+02  0.11116983821E+03 -0.53555239361E+03  0.54770658558E+03  0.00000000000E+00 0.  1.
         21    1    1    2  502  501  0.43326756460E+01 -0.40423833204E+02 -0.13152556759E+02  0.42729944050E+02  0.00000000000E+00 0.  1.
<scales pt_clust_5="13000.00000" pt_clust_6="13000.00000" pt_clust_7="13000.00000" pt_clust_8="13000.00000" pt_clust_9="40.65536"></scales>
<clustering>
<clus scale="   40.655">  1  9  2 -1</clus>
<clus scale="   73.166">  7  8 -1 -1</clus>
<clus scale="   91.010">  5  6 -1 -1</clus>
<clus scale="  182.289">  2  7  1 -1</clus>
<clus scale="  182.289">  2  5  1 -1</clus>
</clustering>
</event>
<event>
 9    1  0.1713970E-005  0.1400844E+03  0.7546771E-02  0.1213420E+00
          1   -1    0    0  502    0  0.00000000000E+00  0.00000000000E+00  0.62599061238E+03  0.62599061238E+03  0.00000000000E+00 0. -1.
         -1   -1    0    0    0  501 -0.00000000000E+00 -0.00000000000E+00 -0.64326761851E+02  0.64326761851E+02  0.00000000000E+00 0.  1.
         23    2    1    2    0    0 -0.96061957999E+00  0.12824466782E+03  0.11177175756E+03  0.19311039730E+03  0.91384255457E+02 0.  0.
         23    2    1    2    0    0 -0.53288224936E+01 -0.10065161174E+03  0.44890599898E+03  0.46888902844E+03  0.90449885422E+02 0.  0.
        -11    1    4    4    0    0  0.20871620260E+02 -0.88282391076E+01  0.22545667561E+02  0.31966693038E+02  0.00000000000E+00 0.  1.
         11    1    4    4    0    0 -0.26200442754E+02 -0.91823372632E+02  0.42636033142E+03  0.43692233540E+03  0.00000000000E+00 0. -1.
        -11    1    3    3    0    0  0.38701489176E+02  0.57804997556E+02  0.23525371350E+02  0.73434774488E+02  0.00000000000E+00 0. -1.
         11    1    3    3    0    0 -0.39662108756E+02  0.70439670261E+02  0.88246386209E+02  0.11967562282E+03  0.00000000000E+00 0.  1.
         21    1    1    2  502  501  0.62894420736E+01 -0.27593056079E+02  0.98609398995E+00  0.28317948490E+02  0.00000000000E+00 0.  1.
<scales pt_clust_5="13000.00000" pt_clust_6="13000.00000" pt_clust_7="13000.00000" pt_clust_8="13000.00000" pt_clust_9="28.30077"></scales>
<clustering>
<clus scale="   28.301">  2  9  1 -1</clus>
<clus scale="   90.450">  5  6 -1 -1</clus>
<clus scale="   91.384">  7  8 -1 -1</clus>
<clus scale="  139.477">  1  5  2 -1</clus>
<clus scale="  139.477">  1  5  2 -1</clus>
</clustering>
</event>
<event>
 9    1  0.1713970E-005  0.1191384E+03  0.7546771E-02  0.1245009E+00
          1   -1    0    0  502    0  0.00000000000E+00  0.00000000000E+00  0.27148187397E+03  0.27148187397E+03  0.00000000000E+00 0. -1.
         -1   -1    0    0    0  501 -0.00000000000E+00 -0.00000000000E+00 -0.88853940808E+02  0.88853940808E+02  0.00000000000E+00 0.  1.
         23    2    1    2    0    0  0.54830140082E+02 -0.84334372880E+01 -0.17119546181E+02  0.10849458363E+03  0.91654398089E+02 0.  0.
         23    2    1    2    0    0 -0.79247166880E+02  0.89353351677E+01  0.18869741808E+03  0.22503550503E+03  0.93135971881E+02 0.  0.
        -13    1    4    4    0    0 -0.94473348086E+02 -0.63030598438E+01  0.17646775992E+03  0.20026435618E+03  0.00000000000E+00 0. -1.
         13    1    4    4    0    0  0.15226181207E+02  0.15238395011E+02  0.12229658160E+02  0.24771148850E+02  0.00000000000E+00 0.  1.
        -13    1    3    3    0    0  0.22756536474E+02  0.29736825534E+02 -0.38983847094E+02  0.54054408510E+02  0.00000000000E+00 0.  1.
         13    1    3    3    0    0  0.32073603608E+02 -0.38170262822E+02  0.21864300913E+02  0.54440175117E+02  0.00000000000E+00 0. -1.
         21    1    1    2  502  501  0.24417026797E+02 -0.50189787973E+00  0.11050061256E+02  0.26805726121E+02  0.00000000000E+00 0.  1.
<scales pt_clust_5="13000.00000" pt_clust_6="13000.00000" pt_clust_7="13000.00000" pt_clust_8="13000.00000" pt_clust_9="24.42218"></scales>
<clustering>
<clus scale="   24.422">  2  9  1 -1</clus>
<clus scale="   91.654">  7  8 -1 -1</clus>
<clus scale="   93.136">  5  6 -1 -1</clus>
<clus scale="  117.984">  2  7  1 -1</clus>
<clus scale="  119.138">  1  5  2 -1</clus>
</clustering>
</event>
<event>
 9    1  0.1713970E-005  0.2728394E+03  0.7546771E-02  0.1099733E+00
          2   -1    0    0  502    0  0.00000000000E+00  0.00000000000E+00  0.11281340683E+04  0.11281340683E+04  0.00000000000E+00 0. -1.
         -2   -1    0    0    0  501 -0.00000000000E+00 -0.00000000000E+00 -0.19828379612E+03  0.19828379612E+03  0.00000000000E+00 0.  1.
         23    2    1    2    0    0 -0.24118243580E+03  0.13846733731E+03  0.15056741394E+02  0.29313038553E+03  0.91414148897E+02 0.  0.
         23    2    1    2    0    0  0.48204534965E+02 -0.21974461518E+03  0.66029983205E+03  0.70372184233E+03  0.92828821331E+02 0.  0.
        -13    1    4    4    0    0  0.23232529586E+02 -0.19644986967E+03  0.62054558871E+03  0.65131338801E+03  0.00000000000E+00 0. -1.
         13    1    4    4    0    0  0.24972005379E+02 -0.23294745507E+02  0.39754243338E+02  0.52408454321E+02  0.00000000000E+00 0.  1.
        -13    1    3    3    0    0 -0.33399818860E+02  0.12996847918E+02 -0.29412480232E+02  0.46363347043E+02  0.00000000000E+00 0. -1.
         13    1    3    3    0    0 -0.20778261694E+03  0.12547048939E+03  0.44469221626E+02  0.24676703849E+03  0.00000000000E+00 0.  1.
         21    1    1    2  502  501  0.19297790084E+03  0.81277277872E+02  0.25449369872E+03  0.32956563656E+03  0.00000000000E+00 0. -1.
<scales pt_clust_5="13000.00000" pt_clust_6="13000.00000" pt_clust_7="13000.00000" pt_clust_8="13000.00000" pt_clust_9="209.39548"></scales>
<clustering>
<clus scale="   91.414">  7  8 -1 -1</clus>
<clus scale="   92.829">  5  6 -1 -1</clus>
<clus scale="  209.395">  1  9  2 -1</clus>
<clus scale="  272.361">  2  7  1 -1</clus>
<clus scale="  209.395">  1  5  2 -1</clus>
</clustering>
</event>
<event>
 9    1  0.1713970E-005  0.1296816E+03  0.7546771E-02  0.1229754E+00
          2   -1    0    0  502    0  0.00000000000E+00  0.00000000000E+00  0.36727875855E+03  0.36727875855E+03  0.00000000000E+00 0. -1.
         -2   -1    0    0    0  501 -0.00000000000E+00 -0.00000000000E+00 -0.73783845946E+02  0.73783845946E+02  0.00000000000E+00 0.  1.
         23    2    1    2    0    0 -0.66820668012E+02  0.45064797273E+02  0.13069397689E+03  0.17975275904E+03  0.93457483168E+02 0.  0.
         23    2    1    2    0    0  0.67685257768E+02 -0.72115264474E+02  0.18453660009E+03  0.22659796857E+03  0.86665893517E+02 0.  0.
        -11    1    3    3    0    0 -0.90757115155E+02  0.34270261370E+02  0.10628456152E+03  0.14390174698E+03  0.00000000000E+00 0.  1.
         11    1    3    3    0    0  0.23936447143E+02  0.10794535902E+02  0.24409415367E+02  0.35851012060E+02  0.00000000000E+00 0. -1.
        -13    1    4    4    0    0 -0.74729546111E+01 -0.29957806349E+02  0.10881923280E+02  0.32737310002E+02  0.00000000000E+00 0.  1.
         13    1    4    4    0    0  0.75158212379E+02 -0.42157458125E+02  0.17365467681E+03  0.19386065857E+03  0.00000000000E+00 0. -1.
         21    1    1    2  502  501 -0.86458975572E+00  0.27050467202E+02 -0.21735664372E+02  0.34711876887E+02  0.00000000000E+00 0.  1.
<scales pt_clust_5="13000.00000" pt_clust_6="13000.00000" pt_clust_7="13000.00000" pt_clust_8="13000.00000" pt_clust_9="27.06428"></scales>
<clustering>
<clus scale="   27.064">  2  9  1 -1</clus>
<clus scale="   86.666">  7  8 -1 -1</clus>
<clus scale="   93.457">  5  6 -1 -1</clus>
<clus scale="  124.876">  1  7  2 -1</clus>
<clus scale="  124.876">  1  5  2 -1</clus>
</clustering>
</event>
<event>
 9    1  0.1713970E-005  0.1367788E+03  0.7546771E-02  0.1220686E+00
         -1   -1    0    0    0  501 -0.00000000000E+00  0.00000000000E+00  0.49630702471E+03  0.49630702471E+03  0.00000000000E+00 0.  1.
          1   -1    0    0  502    0  0.00000000000E+00 -0.00000000000E+00 -0.59777740475E+02  0.59777740475E+02  0.00000000000E+00 0. -1.
         23    2    1    2    0    0  0.48214989611E+02 -0.72507052449E+02  0.13408242681E+03  0.19230853162E+03  0.10687617263E+03 0.  0.
         23    2    1    2    0    0 -0.69930993853E+02  0.50767302635E+02  0.11246204392E+03  0.17132252245E+03  0.96104279076E+02 0.  0.
        -11    1    4    4    0    0 -0.50079757195E+02  0.71118635187E+02  0.11335139869E+03  0.14287890655E+03  0.00000000000E+00 0.  1.
         11    1    4    4    0    0 -0.19851236658E+02 -0.20351332551E+02 -0.88935476992E+00  0.28443615899E+02  0.00000000000E+00 0. -1.
        -13    1    3    3    0    0  0.64025016002E+02 -0.23055885055E+02  0.26823850209E+02  0.73145713817E+02  0.00000000000E+00 0. -1.
         13    1    3    3    0    0 -0.15810026391E+02 -0.49451167394E+02  0.10725857661E+03  0.11916281780E+03  0.00000000000E+00 0.  1.
         21    1    1    2  502  501  0.21716004242E+02  0.21739749814E+02  0.18998481351E+03  0.19245371112E+03  0.00000000000E+00 0.  1.
<scales pt_clust_5="13000.00000" pt_clust_6="13000.00000" pt_clust_7="13000.00000" pt_clust_8="13000.00000" pt_clust_9="30.72786"></scales>
<clustering>
<clus scale="   30.728">  1  9  2 -1</clus>
<clus scale="   96.104">  5  6 -1 -1</clus>
<clus scale="  106.876">  7  8 -1 -1</clus>
<clus scale="  128.538">  2  5  1 -1</clus>
<clus scale="  128.538">  2  5  1 -1</clus>
</clustering>
</event>
<event>
 9    1  0.1713970E-005  0.1206830E+03  0.7546771E-02  0.1242985E+00
          1   -1    0    0  502    0  0.00000000000E+00  0.00000000000E+00  0.10741834762E+03  0.10741834762E+03  0.00000000000E+00 0. -1.
         -1   -1    0    0    0  501 -0.00000000000E+00 -0.00000000000E+00 -0.28292598483E+03  0.28292598483E+03  0.00000000000E+00 0.  1.
         23    2    1    2    0    0  0.61653483933E+02 -0.80585007581E+02 -0.18447898148E+03  0.22820328120E+03  0.88029241810E+02 0.  0.
         23    2    1    2    0    0 -0.40098100147E+02  0.67938758330E+02  0.39880463054E+02  0.12239264481E+03  0.84652085926E+02 0.  0.
        -11    1    4    4    0    0  0.18143329336E+02  0.50196152274E+02  0.90101831281E+01  0.54129636083E+02  0.00000000000E+00 0. -1.
         11    1    4    4    0    0 -0.58241429483E+02  0.17742606056E+02  0.30870279926E+02  0.68263008728E+02  0.00000000000E+00 0.  1.
        -13    1    3    3    0    0 -0.13365315974E+02 -0.52092264329E+02 -0.66610176308E+02  0.85610462338E+02  0.00000000000E+00 0. -1.
         13    1    3    3    0    0  0.75018799908E+02 -0.28492743253E+02 -0.11786880517E+03  0.14259281886E+03  0.00000000000E+00 0.  1.
         21    1    1    2  502  501 -0.21555383787E+02  0.12646249252E+02 -0.30909118783E+02  0.39748406437E+02  0.00000000000E+00 0.  1.
<scales pt_clust_5="13000.00000" pt_clust_6="13000.00000" pt_clust_7="13000.00000" pt_clust_8="13000.00000" pt_clust_9="24.99124"></scales>
<clustering>
<clus scale="   24.991">  2  9  1 -1</clus>
<clus scale="   84.652">  5  6 -1 -1</clus>
<clus scale="   88.029">  7  8 -1 -1</clus>
<clus scale="  118.242">  1  5  2 -1</clus>
<clus scale="  118.242">  1  5  2 -1</clus>
</clustering>
</event>
<event>
 9    1  0.1713970E-005  0.1407048E+03  0.7546771E-02  0.1218787E+00
         -1   -1    0    0    0  501 -0.00000000000E+00  0.00000000000E+00  0.22091903887E+03  0.22091903887E+03  0.00000000000E+00 0.  1.
          1   -1    0    0  502    0  0.00000000000E+00 -0.00000000000E+00 -0.12245517063E+03  0.12245517063E+03  0.00000000000E+00 0. -1.
         23    2    1    2    0    0 -0.20839945878E+02 -0.77831711380E+02  0.98875860728E+02  0.15518160728E+03  0.88390139506E+02 0.  0.
         23    2    1    2    0    0 -0.86793254824E+01  0.88835541947E+02 -0.28584548889E+02  0.14592956160E+03  0.11185381670E+03 0.  0.
        -11    1    3    3    0    0  0.14400788557E+02 -0.81782394998E+02  0.78560506735E+02  0.11431314912E+03  0.00000000000E+00 0.  1.
         11    1    3    3    0    0 -0.35240734435E+02  0.39506836177E+01  0.20315353993E+02  0.40868458160E+02  0.00000000000E+00 0. -1.
        -11    1    4    4    0    0  0.49756703535E+02  0.28429226917E+02 -0.22833437891E+02  0.61687246459E+02  0.00000000000E+00 0.  1.
         11    1    4    4    0    0 -0.58436029018E+02  0.60406315030E+02 -0.57511109977E+01  0.84242315143E+02  0.00000000000E+00 0. -1.
         21    1    1    2  502  501  0.29519271360E+02 -0.11003830567E+02  0.28172556400E+02  0.42263040625E+02  0.00000000000E+00 0.  1.
<scales pt_clust_5="13000.00000" pt_clust_6="13000.00000" pt_clust_7="13000.00000" pt_clust_8="13000.00000" pt_clust_9="31.50352"></scales>
<clustering>
<clus scale="   31.504">  1  9  2 -1</clus>
<clus scale="   88.390">  5  6 -1 -1</clus>
<clus scale="  111.854">  7  8 -1 -1</clus>
<clus scale="  122.880">  1  5  2 -1</clus>
<clus scale="  140.705">  2  5  1 -1</clus>
</clustering>
</event>
<event>
 9    1  0.1713970E-005  0.1128149E+03  0.7546771E-02  0.1258142E+00
         -2   -1    0    0    0  501 -0.00000000000E+00  0.00000000000E+00  0.42196768482E+02  0.42196768482E+02  0.00000000000E+00 0.  1.
          2   -1    0    0  502    0  0.00000000000E+00 -0.00000000000E+00 -0.43080118476E+03  0.43080118476E+03  0.00000000000E+00 0. -1.
         23    2    1    2    0    0  0.53300061062E+01 -0.40253866753E+02 -0.88484288821E+02  0.13842003685E+03  0.98396414979E+02 0.  0.
         23    2    1    2    0    0 -0.31814593984E+02  0.53989828893E+02 -0.27115055412E+03  0.29299250753E+03  0.91623776678E+02 0.  0.
        -13    1    3    3    0    0  0.38479695207E+02  0.10857436541E+02 -0.57605143668E+02  0.70120777580E+02  0.00000000000E+00 0. -1.
         13    1    3    3    0    0 -0.33149689101E+02 -0.51111303294E+02 -0.30879145154E+02  0.68299259274E+02  0.00000000000E+00 0.  1.
        -13    1    4    4    0    0 -0.97638856783E+01 -0.24023994746E+02 -0.36828418952E+02  0.45042404794E+02  0.00000000000E+00 0. -1.
         13    1    4    4    0    0 -0.22050708306E+02  0.78013823639E+02 -0.23432213517E+03  0.24795010273E+03  0.00000000000E+00 0.  1.
         21    1    1    2  502  501  0.26484587878E+02 -0.13735962140E+02 -0.28969573343E+02  0.41585408868E+02  0.00000000000E+00 0. -1.
<scales pt_clust_5="13000.00000" pt_clust_6="13000.00000" pt_clust_7="13000.00000" pt_clust_8="13000.00000" pt_clust_9="29.83471"></scales>
<clustering>
<clus scale="   29.835">  1  9  2 -1</clus>
<clus scale="   91.624">  7  8 -1 -1</clus>
<clus scale="   98.396">  5  6 -1 -1</clus>
<clus scale="  106.959">  2  7  1 -1</clus>
<clus scale="  106.959">  2  5  1 -1</clus>
</clustering>
</event>
<event>
 9    1  0.1713970E-005  0.3965364E+03  0.7546771E-02  0.1045032E+00
         -1   -1    0    0    0  501 -0.00000000000E+00  0.00000000000E+00  0.40205100143E+03  0.40205100143E+03  0.00000000000E+00 0.  1.
          1   -1    0    0  502    0  0.00000000000E+00 -0.00000000000E+00 -0.68114442544E+03  0.68114442544E+03  0.00000000000E+00 0. -1.
         23    2    1    2    0    0  0.16490477443E+03  0.36865277327E+03  0.97780979918E+02  0.42511766397E+03  0.89807885627E+02 0.  0.
         23    2    1    2    0    0 -0.15102292795E+03 -0.34926926570E+03 -0.44096758477E+03  0.58969383307E+03  0.92138272256E+02 0.  0.
        -13    1    4    4    0    0 -0.45876977620E+02 -0.47612212883E+02 -0.40961523082E+02  0.77778314872E+02  0.00000000000E+00 0.  1.
         13    1    4    4    0    0 -0.10514595033E+03 -0.30165705281E+03 -0.40000606169E+03  0.51191551820E+03  0.00000000000E+00 0. -1.
        -13    1    3    3    0    0  0.63165901713E+02  0.77111711704E+02  0.53637769672E+02  0.11319521879E+03  0.00000000000E+00 0. -1.
         13    1    3    3    0    0  0.10173887271E+03  0.29154106156E+03  0.44143210246E+02  0.31192244518E+03  0.00000000000E+00 0.  1.
         21    1    1    2  502  501 -0.13881846478E+02 -0.19383507573E+02  0.64093180850E+02  0.68383929830E+02  0.00000000000E+00 0.  1.
<scales pt_clust_5="13000.00000" pt_clust_6="13000.00000" pt_clust_7="13000.00000" pt_clust_8="13000.00000" pt_clust_9="23.84169"></scales>
<clustering>
<clus scale="   23.842">  1  9  2 -1</clus>
<clus scale="   89.808">  7  8 -1 -1</clus>
<clus scale="   92.138">  5  6 -1 -1</clus>
<clus scale="  396.001">  1  7  2 -1</clus>
<clus scale="  396.536">  2  5  1 -1</clus>
</clustering>
</event>
<event>
 9    1  0.1713970E-005  0.1402608E+03  0.7546771E-02  0.1228599E+00
         -1   -1    0    0    0  501 -0.00000000000E+00  0.00000000000E+00  0.70533280753E+02  0.70533280753E+02  0.00000000000E+00 0.  1.
          1   -1    0    0  502    0  0.00000000000E+00 -0.00000000000E+00 -0.86432274637E+03  0.86432274637E+03  0.00000000000E+00 0. -1.
         23    2    1    2    0    0 -0.13187286870E+02 -0.40721013807E+02 -0.63734202988E+01  0.10128447476E+03  0.91574116655E+02 0.  0.
         23    2    1    2    0    0 -0.94037712823E+02  0.57115794400E+02 -0.60375357064E+03  0.62026919889E+03  0.90056646793E+02 0.  0.
        -11    1    4    4    0    0 -0.26076219908E+01  0.50375526920E+02 -0.22299034471E+03  0.22862455520E+03  0.00000000000E+00 0.  1.
         11    1    4    4    0    0 -0.91430090832E+02  0.67402674797E+01 -0.38076322592E+03  0.39164464369E+03  0.00000000000E+00 0. -1.
        -13    1    3    3    0    0 -0.13403303742E+02  0.16156264392E+02 -0.32502457243E+02  0.38692158858E+02  0.00000000000E+00 0. -1.
         13    1    3    3    0    0  0.21601687207E+00 -0.56877278199E+02  0.26129036944E+02  0.62592315904E+02  0.00000000000E+00 0.  1.
         21    1    1    2  502  501  0.10722499969E+03 -0.16394780593E+02 -0.18366247468E+03  0.21330235347E+03  0.00000000000E+00 0.  1.
<scales pt_clust_5="13000.00000" pt_clust_6="13000.00000" pt_clust_7="13000.00000" pt_clust_8="13000.00000" pt_clust_9="107.53091"></scales>
<clustering>
<clus scale="   90.057">  5  6 -1 -1</clus>
<clus scale="   91.574">  7  8 -1 -1</clus>
<clus scale="  101.084">  1  7  2 -1</clus>
<clus scale="  107.531">  1  9  2 -1</clus>
<clus scale="  140.261">  2  5  1 -1</clus>
</clustering>
</event>
<event>
 9    1  0.1713970E-005  0.1244177E+03  0.7546771E-02  0.1236759E+00
          1   -1    0    0  502    0  0.00000000000E+00  0.00000000000E+00  0.25167298871E+03  0.25167298871E+03  0.00000000000E+00 0. -1.
         -1   -1    0    0    0  501 -0.00000000000E+00 -0.00000000000E+00 -0.13746813281E+03  0.13746813281E+03  0.00000000000E+00 0.  1.
         23    2    1    2    0    0  0.10687913214E+03 -0.48553443778E+01 -0.31167427956E+02  0.14508687059E+03  0.92908924199E+02 0.  0.
         23    2    1    2    0    0 -0.43991862793E+02  0.41310841788E+02  0.39322965466E+02  0.11548415383E+03  0.90268624293E+02 0.  0.
        -11    1    4    4    0    0  0.23537945116E+02 -0.50233710046E+01 -0.12243858952E+01  0.24099133539E+02  0.00000000000E+00 0.  1.
         11    1    4    4    0    0 -0.67529807909E+02  0.46334212793E+02  0.40547351361E+02  0.91385020292E+02  0.00000000000E+00 0. -1.
        -13    1    3    3    0    0  0.10464652031E+03  0.20499332622E+02 -0.23815964118E+01  0.10666203098E+03  0.00000000000E+00 0. -1.
         13    1    3    3    0    0  0.22326118291E+01 -0.25354677000E+02 -0.28785831544E+02  0.38424839610E+02  0.00000000000E+00 0.  1.
         21    1    1    2  502  501 -0.62887269348E+02 -0.36455497411E+02  0.10604931839E+03  0.12857009710E+03  0.00000000000E+00 0.  1.
<scales pt_clust_5="13000.00000" pt_clust_6="13000.00000" pt_clust_7="13000.00000" pt_clust_8="13000.00000" pt_clust_9="72.68983"></scales>
<clustering>
<clus scale="   72.690">  1  9  2 -1</clus>
<clus scale="   90.269">  5  6 -1 -1</clus>
<clus scale="   92.909">  7  8 -1 -1</clus>
<clus scale="  122.459">  1  5  2 -1</clus>
<clus scale="   72.690">  1  5  2 -1</clus>
</clustering>
</event>
<event>
 9    1  0.1713970E-005  0.9158973E+02  0.7546771E-02  0.1301077E+00
          1   -1    0    0  502    0  0.00000000000E+00  0.00000000000E+00  0.21854267022E+03  0.21854267022E+03  0.00000000000E+00 0. -1.
         -1   -1    0    0    0  501 -0.00000000000E+00 -0.00000000000E+00 -0.53629499698E+02  0.53629499698E+02  0.00000000000E+00 0.  1.
         23    2    1    2    0    0 -0.16398709357E+01 -0.15070371801E+02  0.43454460381E+02  0.99162140308E+02  0.87835270026E+02 0.  0.
         23    2    1    2    0    0 -0.11786278569E+02 -0.29705817938E+01  0.66223407303E+02  0.11337215426E+03  0.91213841971E+02 0.  0.
        -11    1    3    3    0    0 -0.61629308081E+01  0.32833047221E+02  0.38219982661E+02  0.50761774797E+02  0.00000000000E+00 0. -1.
         11    1    3    3    0    0  0.45230598724E+01 -0.47903419022E+02  0.52344777200E+01  0.48400365511E+02  0.00000000000E+00 0.  1.
        -13    1    4    4    0    0 -0.35243964274E+02  0.24992664335E+02  0.63455049174E+02  0.76767920083E+02  0.00000000000E+00 0. -1.
         13    1    4    4    0    0  0.23457685704E+02 -0.27963246129E+02  0.27683581294E+01  0.36604234173E+02  0.00000000000E+00 0.  1.
         21    1    1    2  502  501  0.13426149505E+02  0.18040953595E+02  0.55235302838E+02  0.59637875354E+02  0.00000000000E+00 0. -1.
<scales pt_clust_5="13000.00000" pt_clust_6="13000.00000" pt_clust_7="13000.00000" pt_clust_8="13000.00000" pt_clust_9="22.48861"></scales>
<clustering>
<clus scale="   22.489">  1  9  2 -1</clus>
<clus scale="   87.835">  5  6 -1 -1</clus>
<clus scale="   88.226">  2  5  1 -1</clus>
<clus scale="   91.214">  7  8 -1 -1</clus>
<clus scale="   22.489">  1  5  2 -1</clus>
</clustering>
</event>
<event>
 9    1  0.1713970E-005  0.9743884E+02  0.7546771E-02  0.1287550E+00
         -1   -1    0    0    0  501 -0.00000000000E+00  0.00000000000E+00  0.11563838073E+03  0.11563838073E+03  0.00000000000E+00 0.  1.
          1   -1    0    0  502    0  0.00000000000E+00 -0.00000000000E+00 -0.30672861718E+03  0.30672861718E+03  0.00000000000E+00 0. -1.
         23    2    1    2    0    0 -0.13529172165E+01 -0.13948459591E+02 -0.76779441569E+02  0.12123404488E+03  0.92769720704E+02 0.  0.
         23    2    1    2    0    0 -0.20002593231E+02  0.33781877112E+02 -0.19350586846E+03  0.21674526462E+03  0.89401731806E+02 0.  0.
        -11    1    3    3    0    0  0.42867764606E+02  0.57905696189E+01 -0.23472802403E+02  0.49215326794E+02  0.00000000000E+00 0.  1.
         11    1    3    3    0    0 -0.44220681822E+02 -0.19739029210E+02 -0.53306639165E+02  0.72018718082E+02  0.00000000000E+00 0. -1.
        -13    1    4    4    0    0  0.16343597233E+02  0.29161198376E+02 -0.16990692220E+03  0.17316423093E+03  0.00000000000E+00 0. -1.
         13    1    4    4    0    0 -0.36346190464E+02  0.46206787365E+01 -0.23598946261E+02  0.43581033694E+02  0.00000000000E+00 0.  1.
         21    1    1    2  502  501  0.21355510448E+02 -0.19833417521E+02  0.79195073577E+02  0.84387688414E+02  0.00000000000E+00 0.  1.
<scales pt_clust_5="13000.00000" pt_clust_6="13000.00000" pt_clust_7="13000.00000" pt_clust_8="13000.00000" pt_clust_9="29.14485"></scales>
<clustering>
<clus scale="   29.145">  1  9  2 -1</clus>
<clus scale="   89.402">  7  8 -1 -1</clus>
<clus scale="   92.770">  5  6 -1 -1</clus>
<clus scale="   94.238">  2  7  1 -1</clus>
<clus scale="   94.238">  2  5  1 -1</clus>
</clustering>
</event>
<event>
 9    1  0.1713970E-005  0.1122038E+03  0.7546771E-02  0.1262953E+00
          3   -1    0    0  502    0  0.00000000000E+00  0.00000000000E+00  0.77843522499E+02  0.77843522499E+02  0.00000000000E+00 0. -1.
         -3   -1    0    0    0  501 -0.00000000000E+00 -0.00000000000E+00 -0.23088111740E+03  0.23088111740E+03  0.00000000000E+00 0.  1.
         23    2    1    2    0    0  0.79192784618E+01  0.25105011969E+02 -0.72473670648E+02  0.13413317106E+03  0.10975562876E+03 0.  0.
         23    2    1    2    0    0  0.16770408807E+02 -0.20086318145E+02 -0.10552515103E+02  0.10018471272E+03  0.96129674392E+02 0.  0.
        -11    1    3    3    0    0  0.48376524357E+02 -0.19331263694E+02 -0.26363856979E+02  0.58386974743E+02  0.00000000000E+00 0. -1.
         11    1    3    3    0    0 -0.40457245895E+02  0.44436275663E+02 -0.46109813669E+02  0.75746196319E+02  0.00000000000E+00 0.  1.
        -13    1    4    4    0    0 -0.24443471066E+02  0.27382944078E+02 -0.22505038129E+01  0.36774633534E+02  0.00000000000E+00 0.  1.
         13    1    4    4    0    0  0.41213879873E+02 -0.47469262224E+02 -0.83020112900E+01  0.63410079181E+02  0.00000000000E+00 0. -1.
         21    1    1    2  502  501 -0.24689687269E+02 -0.50186938240E+01 -0.70011409146E+02  0.74406756116E+02  0.00000000000E+00 0.  1.
<scales pt_clust_5="13000.00000" pt_clust_6="13000.00000" pt_clust_7="13000.00000" pt_clust_8="13000.00000" pt_clust_9="25.19460"></scales>
<clustering>
<clus scale="   25.195">  2  9  1 -1</clus>
<clus scale="   96.130">  7  8 -1 -1</clus>
<clus scale="   98.916">  1  7  2 -1</clus>
<clus scale="  109.756">  5  6 -1 -1</clus>
<clus scale="   98.916">  1  5  2 -1</clus>
</clustering>
</event>
<event>
 9    1  0.1713970E-005  0.1016948E+03  0.7546771E-02  0.1280830E+00
          1   -1    0    0  502    0  0.00000000000E+00  0.00000000000E+00  0.88189536899E+02  0.88189536899E+02  0.00000000000E+00 0. -1.
         -1   -1    0    0    0  501 -0.00000000000E+00 -0.00000000000E+00 -0.24475904226E+03  0.24475904226E+03  0.00000000000E+00 0.  1.
         23    2    1    2    0    0 -0.19143469998E+00  0.38254999343E+02 -0.15578054317E+03  0.18363116961E+03  0.89383148296E+02 0.  0.
         23    2    1    2    0    0 -0.19790511783E+02 -0.46929405249E+02  0.39710298816E+02  0.10333139380E+03  0.80662479989E+02 0.  0.
        -11    1    4    4    0    0  0.26089504476E+02 -0.24911587634E+02 -0.39379645997E+01  0.36287146587E+02  0.00000000000E+00 0.  1.
         11    1    4    4    0    0 -0.45880016259E+02 -0.22017817616E+02  0.43648263415E+02  0.67044247208E+02  0.00000000000E+00 0. -1.
        -13    1    3    3    0    0  0.37998521670E+02  0.63018502561E+01 -0.10782968296E+03  0.11450258291E+03  0.00000000000E+00 0.  1.
         13    1    3    3    0    0 -0.38189956370E+02  0.31953149086E+02 -0.47950860215E+02  0.69128586702E+02  0.00000000000E+00 0. -1.
         21    1    1    2  502  501  0.19981946483E+02  0.86744059069E+01 -0.40499261002E+02  0.45986015752E+02  0.00000000000E+00 0.  1.
<scales pt_clust_5="13000.00000" pt_clust_6="13000.00000" pt_clust_7="13000.00000" pt_clust_8="13000.00000" pt_clust_9="21.78356"></scales>
<clustering>
<clus scale="   21.784">  2  9  1 -1</clus>
<clus scale="   80.662">  5  6 -1 -1</clus>
<clus scale="   89.383">  7  8 -1 -1</clus>
<clus scale="   94.122">  1  5  2 -1</clus>
<clus scale="   94.122">  1  5  2 -1</clus>
</clustering>
</event>
<event>
 9    1  0.1713970E-005  0.9407729E+02  0.7546771E-02  0.1298349E+00
          1   -1    0    0  502    0  0.00000000000E+00  0.00000000000E+00  0.19164823069E+03  0.19164823069E+03  0.00000000000E+00 0. -1.
         -1   -1    0    0    0  501 -0.00000000000E+00 -0.00000000000E+00 -0.62456101528E+02  0.62456101528E+02  0.00000000000E+00 0.  1.
         23    2    1    2    0    0  0.15357694808E+02  0.37688533903E+01  0.21210795478E+02  0.95331557891E+02  0.91586816952E+02 0.  0.
         23    2    1    2    0    0 -0.10686310754E+02 -0.23609302749E+02  0.10776266098E+03  0.13838863643E+03  0.82867527894E+02 0.  0.
        -13    1    4    4    0    0  0.29578555048E+02  0.75709509626E+00  0.76142442232E+02  0.81689262579E+02  0.00000000000E+00 0.  1.
         13    1    4    4    0    0 -0.40264865802E+02 -0.24366397845E+02  0.31620218745E+02  0.56699373854E+02  0.00000000000E+00 0. -1.
        -13    1    3    3    0    0  0.14808513570E+02  0.39051561592E+02 -0.15371616243E+02  0.44503967496E+02  0.00000000000E+00 0.  1.
         13    1    3    3    0    0  0.54918123771E+00 -0.35282708202E+02  0.36582411721E+02  0.50827590395E+02  0.00000000000E+00 0. -1.
         21    1    1    2  502  501 -0.46713840542E+01  0.19840449359E+02  0.21867270265E+00  0.20384137889E+02  0.00000000000E+00 0.  1.
<scales pt_clust_5="13000.00000" pt_clust_6="13000.00000" pt_clust_7="13000.00000" pt_clust_8="13000.00000" pt_clust_9="20.38296"></scales>
<clustering>
<clus scale="   20.383">  2  9  1 -1</clus>
<clus scale="   82.868">  5  6 -1 -1</clus>
<clus scale="   85.612">  1  5  2 -1</clus>
<clus scale="   91.587">  7  8 -1 -1</clus>
<clus scale="   85.612">  1  5  2 -1</clus>
</clustering>
</event>
<event>
 9    1  0.1713970E-005  0.9613075E+02  0.7546771E-02  0.1294400E+00
         -3   -1    0    0    0  501 -0.00000000000E+00  0.00000000000E+00  0.10364265068E+03  0.10364265068E+03  0.00000000000E+00 0.  1.
          3   -1    0    0  502    0  0.00000000000E+00 -0.00000000000E+00 -0.17964636684E+03  0.17964636684E+03  0.00000000000E+00 0. -1.
         23    2    1    2    0    0  0.13027947411E+01  0.61174051561E+02 -0.26636214940E+02  0.11370481012E+03  0.92061577429E+02 0.  0.
         23    2    1    2    0    0 -0.35290789045E+01 -0.13668259793E+02 -0.78149042450E+02  0.11399523629E+03  0.81782426830E+02 0.  0.
        -11    1    3    3    0    0  0.45613012782E+02  0.32942196111E+02 -0.37287786757E+01  0.56388287880E+02  0.00000000000E+00 0. -1.
         11    1    3    3    0    0 -0.44310218041E+02  0.28231855450E+02 -0.22907436264E+02  0.57316522236E+02  0.00000000000E+00 0.  1.
        -13    1    4    4    0    0  0.12157339107E+01  0.31969398279E+02 -0.13513477999E+02  0.34729447489E+02  0.00000000000E+00 0. -1.
         13    1    4    4    0    0 -0.47448128152E+01 -0.45637658073E+02 -0.64635564451E+02  0.79265788805E+02  0.00000000000E+00 0.  1.
         21    1    1    2  502  501  0.22262841633E+01 -0.47505791768E+02  0.28781541234E+02  0.55588971105E+02  0.00000000000E+00 0.  1.
<scales pt_clust_5="13000.00000" pt_clust_6="13000.00000" pt_clust_7="13000.00000" pt_clust_8="13000.00000" pt_clust_9="47.55793"></scales>
<clustering>
<clus scale="   47.558">  1  9  2 -1</clus>
<clus scale="   81.782">  7  8 -1 -1</clus>
<clus scale="   86.337">  2  7  1 -1</clus>
<clus scale="   92.062">  5  6 -1 -1</clus>
<clus scale="   86.337">  2  5  1 -1</clus>
</clustering>
</event>
<event>
 9    1  0.1713970E-005  0.1000279E+03  0.7546771E-02  0.1280835E+00
          4   -1    0    0  502    0  0.00000000000E+00  0.00000000000E+00  0.29087673213E+03  0.29087673213E+03  0.00000000000E+00 0. -1.
         -4   -1    0    0    0  501 -0.00000000000E+00 -0.00000000000E+00 -0.24259140932E+03  0.24259140932E+03  0.00000000000E+00 0.  1.
         23    2    1    2    0    0  0.51767891938E+00 -0.45390987703E+02  0.94976724029E+01  0.10321533887E+03  0.92209493230E+02 0.  0.
         23    2    1    2    0    0 -0.24860277820E+02  0.30179964538E+02  0.22290440904E+03  0.24391193707E+03  0.90982381835E+02 0.  0.
        -13    1    4    4    0    0 -0.17003753214E+01 -0.31330814428E+02  0.95990340837E+02  0.10098839905E+03  0.00000000000E+00 0.  1.
         13    1    4    4    0    0 -0.23159902499E+02  0.61510778966E+02  0.12691406820E+03  0.14292353802E+03  0.00000000000E+00 0. -1.
        -13    1    3    3    0    0  0.53894550773E+01 -0.72457051796E+02  0.17181477596E+02  0.74661059149E+02  0.00000000000E+00 0.  1.
         13    1    3    3    0    0 -0.48717761579E+01  0.27066064092E+02 -0.76838051928E+01  0.28554279725E+02  0.00000000000E+00 0. -1.
         21    1    1    2  502  501  0.24342598901E+02  0.15211023166E+02 -0.18411675863E+03  0.18634086550E+03  0.00000000000E+00 0.  1.
<scales pt_clust_5="13000.00000" pt_clust_6="13000.00000" pt_clust_7="13000.00000" pt_clust_8="13000.00000" pt_clust_9="28.70431"></scales>
<clustering>
<clus scale="   28.704">  2  9  1 -1</clus>
<clus scale="   90.982">  5  6 -1 -1</clus>
<clus scale="   92.209">  7  8 -1 -1</clus>
<clus scale="   98.898">  1  5  2 -1</clus>
<clus scale="   98.898">  1  5  2 -1</clus>
</clustering>
</event>
<event>
 9    1  0.1713970E-005  0.1086259E+03  0.7546771E-02  0.1264070E+00
          1   -1    0    0  502    0  0.00000000000E+00  0.00000000000E+00  0.18954371623E+03  0.18954371623E+03  0.00000000000E+00 0. -1.
         -1   -1    0    0    0  501 -0.00000000000E+00 -0.00000000000E+00 -0.10344387499E+03  0.10344387499E+03  0.00000000000E+00 0.  1.
         23    2    1    2    0    0 -0.12317723169E+02  0.77014959994E+02 -0.84757839776E+01  0.12067580142E+03  0.91693946184E+02 0.  0.
         23    2    1    2    0    0  0.12084578166E+01 -0.31135763520E+02  0.48466156609E+02  0.10632391561E+03  0.89358326720E+02 0.  0.
        -11    1    3    3    0    0 -0.31687567574E+02  0.86683184043E+02 -0.22352251446E+02  0.94961568434E+02  0.00000000000E+00 0. -1.
         11    1    3    3    0    0  0.19369844405E+02 -0.96682240488E+01  0.13876467469E+02  0.25714232984E+02  0.00000000000E+00 0.  1.
        -13    1    4    4    0    0 -0.91856042353E+01 -0.61351380406E+02  0.37765176955E+02  0.72626274814E+02  0.00000000000E+00 0.  1.
         13    1    4    4    0    0  0.10394062052E+02  0.30215616886E+02  0.10700979654E+02  0.33697640797E+02  0.00000000000E+00 0. -1.
         21    1    1    2  502  501  0.11109265353E+02 -0.45879196475E+02  0.46109468604E+02  0.65987874195E+02  0.00000000000E+00 0.  1.
<scales pt_clust_5="13000.00000" pt_clust_6="13000.00000" pt_clust_7="13000.00000" pt_clust_8="13000.00000" pt_clust_9="47.20505"></scales>
<clustering>
<clus scale="   47.205">  1  9  2 -1</clus>
<clus scale="   89.358">  7  8 -1 -1</clus>
<clus scale="   91.694">  5  6 -1 -1</clus>
<clus scale="  106.662">  1  7  2 -1</clus>
<clus scale="   47.205">  1  5  2 -1</clus>
</clustering>
</event>
<event>
 9    1  0.1713970E-005  0.1120665E+03  0.7546771E-02  0.1261643E+00
         -3   -1    0    0    0  501 -0.00000000000E+00  0.00000000000E+00  0.56075151826E+02  0.56075151826E+02  0.00000000000E+00 0.  1.
          3   -1    0    0  502    0  0.00000000000E+00 -0.00000000000E+00 -0.36544873075E+03  0.36544873075E+03  0.00000000000E+00 0. -1.
         23    2    1    2    0    0  0.31418822695E+02  0.64746850738E+02 -0.18320217984E+03  0.21815433660E+03  0.94069010733E+02 0.  0.
         23    2    1    2    0    0  0.77453168493E+00 -0.54121147234E+02 -0.13642745300E+03  0.16795056401E+03  0.81640942810E+02 0.  0.
        -11    1    3    3    0    0  0.62287337694E+02  0.56537357547E+02 -0.11161536128E+03  0.13976470981E+03  0.00000000000E+00 0.  1.
         11    1    3    3    0    0 -0.30868514999E+02  0.82094931908E+01 -0.71586818560E+02  0.78389626789E+02  0.00000000000E+00 0. -1.
        -11    1    4    4    0    0 -0.33023063696E+02 -0.34726755996E+02 -0.35135899510E+02  0.59422232811E+02  0.00000000000E+00 0. -1.
         11    1    4    4    0    0  0.33797595381E+02 -0.19394391238E+02 -0.10129155349E+03  0.10852833120E+03  0.00000000000E+00 0.  1.
         21    1    1    2  502  501 -0.32193354380E+02 -0.10625703503E+02  0.10256053916E+02  0.35418981960E+02  0.00000000000E+00 0.  1.
<scales pt_clust_5="13000.00000" pt_clust_6="13000.00000" pt_clust_7="13000.00000" pt_clust_8="13000.00000" pt_clust_9="33.90159"></scales>
<clustering>
<clus scale="   33.902">  1  9  2 -1</clus>
<clus scale="   81.641">  7  8 -1 -1</clus>
<clus scale="   94.069">  5  6 -1 -1</clus>
<clus scale="  101.859">  2  7  1 -1</clus>
<clus scale="  101.859">  2  5  1 -1</clus>
</clustering>
</event>
<event>
 9    1  0.1713970E-005  0.1029965E+03  0.7546771E-02  0.1278208E+00
          1   -1    0    0  502    0  0.00000000000E+00  0.00000000000E+00  0.91510050328E+02  0.91510050328E+02  0.00000000000E+00 0. -1.
         -1   -1    0    0    0  501 -0.00000000000E+00 -0.00000000000E+00 -0.20970511150E+03  0.20970511150E+03  0.00000000000E+00 0.  1.
         23    2    1    2    0    0 -0.49136916858E+01 -0.65784689828E+02 -0.20848100547E+02  0.10371098553E+03  0.77262898223E+02 0.  0.
         23    2    1    2    0    0 -0.77339998224E+01  0.47456918072E+02 -0.15001055979E+01  0.99104527228E+02  0.86645733733E+02 0.  0.
        -13    1    4    4    0    0 -0.30595883957E+02  0.60438240206E+02  0.13153004033E+02  0.69006452665E+02  0.00000000000E+00 0.  1.
         13    1    4    4    0    0  0.22861884135E+02 -0.12981322134E+02 -0.14653109631E+02  0.30098074563E+02  0.00000000000E+00 0. -1.
        -13    1    3    3    0    0 -0.25963519969E+02 -0.60581581326E+02 -0.37985331112E+02  0.76073107895E+02  0.00000000000E+00 0.  1.
         13    1    3    3    0    0  0.21049828283E+02 -0.52031085018E+01  0.17137230565E+02  0.27637877637E+02  0.00000000000E+00 0. -1.
         21    1    1    2  502  501  0.12647691508E+02  0.18327771756E+02 -0.95846855024E+02  0.98399649064E+02  0.00000000000E+00 0.  1.
<scales pt_clust_5="13000.00000" pt_clust_6="13000.00000" pt_clust_7="13000.00000" pt_clust_8="13000.00000" pt_clust_9="22.26817"></scales>
<clustering>
<clus scale="   22.268">  2  9  1 -1</clus>
<clus scale="   77.263">  7  8 -1 -1</clus>
<clus scale="   86.646">  5  6 -1 -1</clus>
<clus scale="   95.238">  2  7  1 -1</clus>
<clus scale="  102.997">  1  5  2 -1</clus>
</clustering>
</event>
<event>
 9    1  0.1713970E-005  0.1920476E+03  0.7546771E-02  0.1156926E+00
         -2   -1    0    0    0  501 -0.00000000000E+00  0.00000000000E+00  0.11140874332E+03  0.11140874332E+03  0.00000000000E+00 0.  1.
          2   -1    0    0  502    0  0.00000000000E+00 -0.00000000000E+00 -0.55235107123E+03  0.55235107123E+03  0.00000000000E+00 0. -1.
         23    2    1    2    0    0  0.10596266871E+03  0.73315079721E+02 -0.22388466870E+02  0.16037679910E+03  0.92823952542E+02 0.  0.
         23    2    1    2    0    0 -0.15427464982E+03 -0.92942852878E+02 -0.39828391702E+03  0.44743511443E+03  0.95546122867E+02 0.  0.
        -11    1    3    3    0    0  0.43818349506E+02  0.11728337774E+02 -0.51067481180E+02  0.68304387081E+02  0.00000000000E+00 0. -1.
         11    1    3    3    0    0  0.62144319204E+02  0.61586741947E+02  0.28679014310E+02  0.92072412017E+02  0.00000000000E+00 0.  1.
        -13    1    4    4    0    0 -0.49419572105E+02  0.16056243728E+02 -0.86612303446E+02  0.10100390180E+03  0.00000000000E+00 0.  1.
         13    1    4    4    0    0 -0.10485507772E+03 -0.10899909661E+03 -0.31167161357E+03  0.34643121264E+03  0.00000000000E+00 0. -1.
         21    1    1    2  502  501  0.48311981110E+02  0.19627773157E+02 -0.20269944023E+02  0.55947901020E+02  0.00000000000E+00 0.  1.
<scales pt_clust_5="13000.00000" pt_clust_6="13000.00000" pt_clust_7="13000.00000" pt_clust_8="13000.00000" pt_clust_9="52.14688"></scales>
<clustering>
<clus scale="   52.147">  1  9  2 -1</clus>
<clus scale="   92.824">  5  6 -1 -1</clus>
<clus scale="   95.546">  7  8 -1 -1</clus>
<clus scale="  190.708">  1  5  2 -1</clus>
<clus scale="  192.048">  2  5  1 -1</clus>
</clustering>
</event>
<event>
 9    1  0.1713970E-005  0.1098639E+03  0.7546771E-02  0.1261555E+00
         -2   -1    0    0    0  501 -0.00000000000E+00  0.00000000000E+00  0.45453632428E+02  0.45453632428E+02  0.00000000000E+00 0.  1.
          2   -1    0    0  502    0  0.00000000000E+00 -0.00000000000E+00 -0.77119549586E+03  0.77119549586E+03  0.00000000000E+00 0. -1.
         23    2    1    2    0    0 -0.54497417317E+02  0.26308663643E+02 -0.23999916404E+03  0.26367510867E+03  0.90900219543E+02 0.  0.
         23    2    1    2    0    0  0.26575967737E+02 -0.57003388563E+02 -0.49740288987E+03  0.50987258663E+03  0.92761799140E+02 0.  0.
        -11    1    3    3    0    0 -0.74716983890E+02  0.16714130794E+02 -0.22238095491E+03  0.23519200445E+03  0.00000000000E+00 0.  1.
         11    1    3    3    0    0  0.20219566573E+02  0.95945328493E+01 -0.17618209136E+02  0.28483104223E+02  0.00000000000E+00 0. -1.
        -13    1    4    4    0    0  0.60760225134E+02 -0.44462949655E+02 -0.31527439236E+03  0.32413994097E+03  0.00000000000E+00 0. -1.
         13    1    4    4    0    0 -0.34184257397E+02 -0.12540438907E+02 -0.18212849750E+03  0.18573264566E+03  0.00000000000E+00 0.  1.
         21    1    1    2  502  501  0.27921449580E+02  0.30694724919E+02  0.11660190472E+02  0.43101432996E+02  0.00000000000E+00 0.  1.
<scales pt_clust_5="13000.00000" pt_clust_6="13000.00000" pt_clust_7="13000.00000" pt_clust_8="13000.00000" pt_clust_9="41.49426"></scales>
<clustering>
<clus scale="   41.494">  1  9  2 -1</clus>
<clus scale="   90.900">  5  6 -1 -1</clus>
<clus scale="   92.762">  7  8 -1 -1</clus>
<clus scale="  108.297">  1  5  2 -1</clus>
<clus scale="  109.864">  2  5  1 -1</clus>
</clustering>
</event>
<event>
 9    1  0.1713970E-005  0.1088499E+03  0.7546771E-02  0.1264046E+00
          2   -1    0    0  502    0  0.00000000000E+00  0.00000000000E+00  0.18546806548E+03  0.18546806548E+03  0.00000000000E+00 0. -1.
         -2   -1    0    0    0  501 -0.00000000000E+00 -0.00000000000E+00 -0.13159486611E+03  0.13159486611E+03  0.00000000000E+00 0.  1.
         23    2    1    2    0    0 -0.30936425993E+02 -0.88391092009E+01 -0.40493505930E+02  0.10751046698E+03  0.94252767505E+02 0.  0.
         23    2    1    2    0    0  0.52749618896E+02  0.30389318863E+02  0.12502411370E+03  0.16619230304E+03  0.91009997190E+02 0.  0.
        -11    1    4    4    0    0  0.73226456188E+02  0.61395155967E+01  0.10666236021E+03  0.12952477224E+03  0.00000000000E+00 0. -1.
         11    1    4    4    0    0 -0.20476837292E+02  0.24249803266E+02  0.18361753491E+02  0.36667530803E+02  0.00000000000E+00 0.  1.
        -13    1    3    3    0    0 -0.57347639234E+02  0.13088063745E+02 -0.43341648558E+02  0.73065365516E+02  0.00000000000E+00 0.  1.
         13    1    3    3    0    0  0.26411213241E+02 -0.21927172946E+02  0.28481426272E+01  0.34445101461E+02  0.00000000000E+00 0. -1.
         21    1    1    2  502  501 -0.21813192904E+02 -0.21550209662E+02 -0.30657408403E+02  0.43360161567E+02  0.00000000000E+00 0.  1.
<scales pt_clust_5="13000.00000" pt_clust_6="13000.00000" pt_clust_7="13000.00000" pt_clust_8="13000.00000" pt_clust_9="30.66312"></scales>
<clustering>
<clus scale="   30.663">  2  9  1 -1</clus>
<clus scale="   91.010">  5  6 -1 -1</clus>
<clus scale="   94.253">  7  8 -1 -1</clus>
<clus scale="  106.054">  1  5  2 -1</clus>
<clus scale="  106.054">  1  5  2 -1</clus>
</clustering>
</event>
<event>
 9    1  0.1713970E-005  0.9531567E+02  0.7546771E-02  0.1290525E+00
         -1   -1    0    0    0  501 -0.00000000000E+00  0.00000000000E+00  0.26537405776E+02  0.26537405776E+02  0.00000000000E+00 0.  1.
          1   -1    0    0  502    0  0.00000000000E+00 -0.00000000000E+00 -0.10638711904E+04  0.10638711904E+04  0.00000000000E+00 0. -1.
         23    2    1    2    0    0  0.51389455247E+01  0.24448000088E+01 -0.49063416875E+03  0.49948083947E+03  0.93417533893E+02 0.  0.
         23    2    1    2    0    0 -0.24609037837E+02 -0.20638052252E+02 -0.55445999106E+03  0.56317343547E+03  0.93310786043E+02 0.  0.
        -11    1    3    3    0    0 -0.42945561818E+02 -0.96267899216E+01 -0.22881788604E+03  0.23301206264E+03  0.00000000000E+00 0. -1.
         11    1    3    3    0    0  0.48084507343E+02  0.12071589930E+02 -0.26181628271E+03  0.26646877682E+03  0.00000000000E+00 0.  1.
        -13    1    4    4    0    0 -0.35751387964E+02  0.30019762763E+02 -0.24818217134E+03  0.25253462746E+03  0.00000000000E+00 0.  1.
         13    1    4    4    0    0  0.11142350127E+02 -0.50657815014E+02 -0.30627781972E+03  0.31063880801E+03  0.00000000000E+00 0. -1.
         21    1    1    2  502  501  0.19470092312E+02  0.18193252243E+02  0.77603752229E+01  0.27754321202E+02  0.00000000000E+00 0.  1.
<scales pt_clust_5="13000.00000" pt_clust_6="13000.00000" pt_clust_7="13000.00000" pt_clust_8="13000.00000" pt_clust_9="26.64731"></scales>
<clustering>
<clus scale="   26.647">  1  9  2 -1</clus>
<clus scale="   93.311">  7  8 -1 -1</clus>
<clus scale="   93.418">  5  6 -1 -1</clus>
<clus scale="   95.211">  2  7  1 -1</clus>
<clus scale="   95.211">  2  5  1 -1</clus>
</clustering>
</event>
<event>
 9    1  0.1713970E-005  0.9524721E+02  0.7546771E-02  0.1291267E+00
          1   -1    0    0  502    0  0.00000000000E+00  0.00000000000E+00  0.34245712491E+03  0.34245712491E+03  0.00000000000E+00 0. -1.
         -1   -1    0    0    0  501 -0.00000000000E+00 -0.00000000000E+00 -0.47233221180E+02  0.47233221180E+02  0.00000000000E+00 0.  1.
         23    2    1    2    0    0  0.94023467671E+01 -0.12023090238E+02  0.47984228621E+02  0.10192764468E+03  0.88621666253E+02 0.  0.
         23    2    1    2    0    0 -0.38242468741E+02  0.65369190593E+01  0.23743798013E+03  0.25681235514E+03  0.89836371367E+02 0.  0.
        -11    1    3    3    0    0  0.45242468357E+02 -0.15984523939E+02  0.89922677536E+01  0.48818509071E+02  0.00000000000E+00 0.  1.
         11    1    3    3    0    0 -0.35840121590E+02  0.39614337009E+01  0.38991960868E+02  0.53109135606E+02  0.00000000000E+00 0. -1.
        -11    1    4    4    0    0 -0.62549734898E+02  0.92009461601E+01  0.21322273213E+03  0.22239842680E+03  0.00000000000E+00 0. -1.
         11    1    4    4    0    0  0.24307266157E+02 -0.26640271008E+01  0.24215248001E+02  0.34413928346E+02  0.00000000000E+00 0.  1.
         21    1    1    2  502  501  0.28840121974E+02  0.54861711789E+01  0.98016949785E+01  0.30950346268E+02  0.00000000000E+00 0.  1.
<scales pt_clust_5="13000.00000" pt_clust_6="13000.00000" pt_clust_7="13000.00000" pt_clust_8="13000.00000" pt_clust_9="29.35729"></scales>
<clustering>
<clus scale="   29.357">  2  9  1 -1</clus>
<clus scale="   88.622">  5  6 -1 -1</clus>
<clus scale="   89.836">  7  8 -1 -1</clus>
<clus scale="   94.102">  2  5  1 -1</clus>
<clus scale="   95.247">  1  5  2 -1</clus>
</clustering>
</event>
<event>
 9    1  0.1713970E-005  0.1074135E+03  0.7546771E-02  0.1268371E+00
         -3   -1    0    0    0  501 -0.00000000000E+00  0.00000000000E+00  0.25543190481E+03  0.25543190481E+03  0.00000000000E+00 0.  1.
          3   -1    0    0  502    0  0.00000000000E+00 -0.00000000000E+00 -0.10724369017E+03  0.10724369017E+03  0.00000000000E+00 0. -1.
         23    2    1    2    0    0 -0.29163488045E+02 -0.46982432000E+02  0.18818744625E+03  0.21387500041E+03  0.85265133099E+02 0.  0.
         23    2    1    2    0    0  0.51128169163E+01  0.58137304875E+02 -0.50489522386E+02  0.12028897990E+03  0.92272204373E+02 0.  0.
        -13    1    3    3    0    0  0.23833271730E+02 -0.32399503698E+01  0.17124118928E+02  0.29525540957E+02  0.00000000000E+00 0.  1.
         13    1    3    3    0    0 -0.52996759775E+02 -0.43742481630E+02  0.17106332732E+03  0.18434945945E+03  0.00000000000E+00 0. -1.
        -13    1    4    4    0    0  0.15877437460E+02 -0.21166488240E+02 -0.16032271693E+01  0.26508179532E+02  0.00000000000E+00 0.  1.
         13    1    4    4    0    0 -0.10764620544E+02  0.79303793115E+02 -0.48886295217E+02  0.93780800369E+02  0.00000000000E+00 0. -1.
         21    1    1    2  502  501  0.24050671129E+02 -0.11154872875E+02  0.10490290770E+02  0.28511614669E+02  0.00000000000E+00 0.  1.
<scales pt_clust_5="13000.00000" pt_clust_6="13000.00000" pt_clust_7="13000.00000" pt_clust_8="13000.00000" pt_clust_9="26.51162"></scales>
<clustering>
<clus scale="   26.512">  2  9  1 -1</clus>
<clus scale="   85.265">  5  6 -1 -1</clus>
<clus scale="   92.272">  7  8 -1 -1</clus>
<clus scale="  101.458">  1  5  2 -1</clus>
<clus scale="   26.512">  2  5  1 -1</clus>
</clustering>
</event>
<event>
 9    1  0.1713970E-005  0.9340777E+02  0.7546771E-02  0.1295475E+00
          1   -1    0    0  502    0  0.00000000000E+00  0.00000000000E+00  0.15629243546E+03  0.15629243546E+03  0.00000000000E+00 0. -1.
         -1   -1    0    0    0  501 -0.00000000000E+00 -0.00000000000E+00 -0.99922305242E+02  0.99922305242E+02  0.00000000000E+00 0.  1.
         23    2    1    2    0    0  0.36349940581E+02 -0.60833021131E+00 -0.32005905703E+02  0.10227020015E+03  0.90072901542E+02 0.  0.
         23    2    1    2    0    0 -0.13018718774E+02 -0.10232898740E+02  0.88527073430E+02  0.12821710445E+03  0.91259979663E+02 0.  0.
        -11    1    4    4    0    0 -0.19039381141E+02  0.11143796879E+02 -0.12104908302E+02  0.25163685106E+02  0.00000000000E+00 0.  1.
         11    1    4    4    0    0  0.60206623671E+01 -0.21376695620E+02  0.10063198173E+03  0.10305341934E+03  0.00000000000E+00 0. -1.
        -11    1    3    3    0    0  0.20007972626E+02 -0.27153229707E+02  0.21747764450E+02  0.40132058391E+02  0.00000000000E+00 0. -1.
         11    1    3    3    0    0  0.16341967955E+02  0.26544899496E+02 -0.53753670153E+02  0.62138141755E+02  0.00000000000E+00 0.  1.
         21    1    1    2  502  501 -0.23331221807E+02  0.10841228952E+02 -0.15103751005E+00  0.25727436105E+02  0.00000000000E+00 0.  1.
<scales pt_clust_5="13000.00000" pt_clust_6="13000.00000" pt_clust_7="13000.00000" pt_clust_8="13000.00000" pt_clust_9="25.72699"></scales>
<clustering>
<clus scale="   25.727">  2  9  1 -1</clus>
<clus scale="   90.073">  7  8 -1 -1</clus>
<clus scale="   91.260">  5  6 -1 -1</clus>
<clus scale="   92.248">  2  7  1 -1</clus>
<clus scale="   93.408">  1  5  2 -1</clus>
</clustering>
</event>
<event>
 9    1  0.1713970E-005  0.1092481E+03  0.7546771E-02  0.1262987E+00
         -2   -1    0    0    0  501 -0.00000000000E+00  0.00000000000E+00  0.56079177438E+02  0.56079177438E+02  0.00000000000E+00 0.  1.
          2   -1    0    0  502    0  0.00000000000E+00 -0.00000000000E+00 -0.30772321897E+03  0.30772321897E+03  0.00000000000E+00 0. -1.
         23    2    1    2    0    0  0.23423941305E+02 -0.36798755499E+02 -0.45549265291E+02  0.11008251527E+03  0.90225246838E+02 0.  0.
         23    2    1    2    0    0 -0.50789593264E+02  0.41061661848E+02 -0.19105409580E+03  0.22220364174E+03  0.92774716502E+02 0.  0.
        -13    1    3    3    0    0 -0.79857762661E+01 -0.46869584648E+02 -0.57848124481E+02  0.74879477119E+02  0.00000000000E+00 0. -1.
         13    1    3    3    0    0  0.31409717571E+02  0.10070829149E+02  0.12298859191E+02  0.35203038150E+02  0.00000000000E+00 0.  1.
        -13    1    4    4    0    0 -0.36755161087E+02  0.21344244460E+02 -0.19328116573E+03  0.19789928666E+03  0.00000000000E+00 0.  1.
         13    1    4    4    0    0 -0.14034432177E+02  0.19717417389E+02  0.22270699274E+01  0.24304355072E+02  0.00000000000E+00 0. -1.
         21    1    1    2  502  501  0.27365651959E+02 -0.42629063495E+01 -0.15040680438E+02  0.31516239397E+02  0.00000000000E+00 0.  1.
<scales pt_clust_5="13000.00000" pt_clust_6="13000.00000" pt_clust_7="13000.00000" pt_clust_8="13000.00000" pt_clust_9="27.69569"></scales>
<clustering>
<clus scale="   27.696">  1  9  2 -1</clus>
<clus scale="   90.225">  5  6 -1 -1</clus>
<clus scale="   92.775">  7  8 -1 -1</clus>
<clus scale="  107.092">  1  5  2 -1</clus>
<clus scale="  109.248">  2  5  1 -1</clus>
</clustering>
</event>
<event>
 9    1  0.1713970E-005  0.1064111E+03  0.7546771E-02  0.1268134E+00
          1   -1    0    0  502    0  0.00000000000E+00  0.00000000000E+00  0.19081682193E+03  0.19081682193E+03  0.00000000000E+00 0. -1.
         -1   -1    0    0    0  501 -0.00000000000E+00 -0.00000000000E+00 -0.26955631805E+03  0.26955631805E+03  0.00000000000E+00 0.  1.
         23    2    1    2    0    0 -0.20635272243E+02 -0.78388814597E+01 -0.89142089508E+02  0.12820387277E+03  0.89457578480E+02 0.  0.
         23    2    1    2    0    0  0.46594606692E+02  0.43252090786E+02  0.15049078564E+03  0.18536094303E+03  0.87575121509E+02 0.  0.
        -11    1    3    3    0    0  0.79378108352E+01 -0.43548135936E+02 -0.30139667745E+02  0.53552297394E+02  0.00000000000E+00 0.  1.
         11    1    3    3    0    0 -0.28573083078E+02  0.35709254476E+02 -0.59002421762E+02  0.74651575373E+02  0.00000000000E+00 0. -1.
        -13    1    4    4    0    0 -0.12761415263E+02  0.24454269625E+02  0.62884624559E+01  0.28291514320E+02  0.00000000000E+00 0.  1.
         13    1    4    4    0    0  0.59356021956E+02  0.18797821161E+02  0.14420232319E+03  0.15706942871E+03  0.00000000000E+00 0. -1.
         21    1    1    2  502  501 -0.25959334450E+02 -0.35413209326E+02 -0.14008819226E+03  0.14680832418E+03  0.00000000000E+00 0.  1.
<scales pt_clust_5="13000.00000" pt_clust_6="13000.00000" pt_clust_7="13000.00000" pt_clust_8="13000.00000" pt_clust_9="43.90880"></scales>
<clustering>
<clus scale="   43.909">  2  9  1 -1</clus>
<clus scale="   87.575">  7  8 -1 -1</clus>
<clus scale="   89.458">  5  6 -1 -1</clus>
<clus scale="  104.834">  1  7  2 -1</clus>
<clus scale="  104.834">  1  5  2 -1</clus>
</clustering>
</event>
<event>
 9    1  0.1713970E-005  0.9105898E+02  0.7546771E-02  0.1302470E+00
         -1   -1    0    0    0  501 -0.00000000000E+00  0.00000000000E+00  0.34700145074E+03  0.34700145074E+03  0.00000000000E+00 0.  1.
          1   -1    0    0  502    0  0.00000000000E+00 -0.00000000000E+00 -0.35603158887E+02  0.35603158887E+02  0.00000000000E+00 0. -1.
         23    2    1    2    0    0  0.17645997735E+02 -0.25781827314E+02  0.17496978871E+03  0.19776810789E+03  0.86727813781E+02 0.  0.
         23    2    1    2    0    0 -0.48172789002E+01 -0.37872348730E+01  0.85176020635E+02  0.12429129194E+03  0.90309586628E+02 0.  0.
        -11    1    3    3    0    0 -0.29871558768E+01 -0.55688503260E+02  0.10997059887E+03  0.12330314316E+03  0.00000000000E+00 0. -1.
         11    1    3    3    0    0  0.20633153612E+02  0.29906675946E+02  0.64999189833E+02  0.74464964736E+02  0.00000000000E+00 0.  1.
        -11    1    4    4    0    0  0.25857963606E+02  0.16631593247E+02  0.81681761101E+02  0.87276309915E+02  0.00000000000E+00 0.  1.
         11    1    4    4    0    0 -0.30675242507E+02 -0.20418828120E+02  0.34942595335E+01  0.37014982025E+02  0.00000000000E+00 0. -1.
         21    1    1    2  502  501 -0.12828718835E+02  0.29569062187E+02  0.51252482513E+02  0.60545209796E+02  0.00000000000E+00 0.  1.
<scales pt_clust_5="13000.00000" pt_clust_6="13000.00000" pt_clust_7="13000.00000" pt_clust_8="13000.00000" pt_clust_9="32.23206"></scales>
<clustering>
<clus scale="   32.232">  1  9  2 -1</clus>
<clus scale="   86.728">  5  6 -1 -1</clus>
<clus scale="   87.508">  1  5  2 -1</clus>
<clus scale="   90.310">  7  8 -1 -1</clus>
<clus scale="   91.059">  2  5  1 -1</clus>
</clustering>
</event>
<event>
 9    1  0.1713970E-005  0.1807089E+03  0.7546771E-02  0.1169267E+00
         -2   -1    0    0    0  501 -0.00000000000E+00  0.00000000000E+00  0.63348527008E+02  0.63348527008E+02  0.00000000000E+00 0.  1.
          2   -1    0    0  502    0  0.00000000000E+00 -0.00000000000E+00 -0.11669245706E+04  0.11669245706E+04  0.00000000000E+00 0. -1.
         23    2    1    2    0    0  0.42578886802E+02 -0.14242694982E+03 -0.23175567728E+03  0.29393567850E+03  0.10290331145E+03 0.  0.
         23    2    1    2    0    0 -0.76498585490E+02  0.12842187246E+03 -0.88158363929E+03  0.89836361691E+03  0.86736752430E+02 0.  0.
        -11    1    4    4    0    0 -0.90242023194E+02  0.10050996477E+03 -0.79423599460E+03  0.80564054694E+03  0.00000000000E+00 0. -1.
         11    1    4    4    0    0  0.13743437705E+02  0.27911907694E+02 -0.87347644691E+02  0.92723069967E+02  0.00000000000E+00 0.  1.
        -13    1    3    3    0    0 -0.62146616621E+01 -0.23556419290E+02 -0.12360951124E+03  0.12598745246E+03  0.00000000000E+00 0. -1.
         13    1    3    3    0    0  0.48793548464E+02 -0.11887053053E+03 -0.10814616604E+03  0.16794822604E+03  0.00000000000E+00 0.  1.
         21    1    1    2  502  501  0.33919698688E+02  0.14005077361E+02  0.97632730057E+01  0.37973802163E+02  0.00000000000E+00 0.  1.
<scales pt_clust_5="13000.00000" pt_clust_6="13000.00000" pt_clust_7="13000.00000" pt_clust_8="13000.00000" pt_clust_9="36.69725"></scales>
<clustering>
<clus scale="   36.697">  1  9  2 -1</clus>
<clus scale="   86.737">  5  6 -1 -1</clus>
<clus scale="  102.903">  7  8 -1 -1</clus>
<clus scale="  172.017">  2  5  1 -1</clus>
<clus scale="  172.017">  2  5  1 -1</clus>
</clustering>
</event>
<event>
 9    1  0.1713970E-005  0.1761727E+03  0.7546771E-02  0.1171671E+00
         -2   -1    0    0    0  501 -0.00000000000E+00  0.00000000000E+00  0.12040562629E+03  0.12040562629E+03  0.00000000000E+00 0.  1.
          2   -1    0    0  502    0  0.00000000000E+00 -0.00000000000E+00 -0.84331867091E+03  0.84331867091E+03  0.00000000000E+00 0. -1.
         23    2    1    2    0    0  0.13538221336E+03 -0.13311456703E+03 -0.37018986875E+02  0.21456143205E+03  0.92835182352E+02 0.  0.
         23    2    1    2    0    0 -0.10329291959E+03  0.65806982683E+01 -0.18230029010E+03  0.22892520259E+03  0.91981627438E+02 0.  0.
        -13    1    4    4    0    0 -0.10929557525E+03  0.28763095849E+02 -0.16571577688E+03  0.20058553576E+03  0.00000000000E+00 0.  1.
         13    1    4    4    0    0  0.60026556559E+01 -0.22182397581E+02 -0.16584513216E+02  0.28339666829E+02  0.00000000000E+00 0. -1.
        -13    1    3    3    0    0  0.13626145191E+03 -0.93621511646E+02 -0.50428831481E+02  0.17284454798E+03  0.00000000000E+00 0.  1.
         13    1    3    3    0    0 -0.87923855325E+00 -0.39493055388E+02  0.13409844607E+02  0.41716884072E+02  0.00000000000E+00 0. -1.
         21    1    1    2  502  501 -0.32089293772E+02  0.12653386877E+03 -0.50359376766E+03  0.52023766256E+03  0.00000000000E+00 0. -1.
<scales pt_clust_5="13000.00000" pt_clust_6="13000.00000" pt_clust_7="13000.00000" pt_clust_8="13000.00000" pt_clust_9="130.53943"></scales>
<clustering>
<clus scale="   91.982">  5  6 -1 -1</clus>
<clus scale="   92.835">  7  8 -1 -1</clus>
<clus scale="  130.539">  2  9  1 -1</clus>
<clus scale="  175.724">  2  5  1 -1</clus>
<clus scale="  130.539">  2  5  1 -1</clus>
</clustering>
</event>
<event>
 9    1  0.1713970E-005  0.1016305E+03  0.7546771E-02  0.1278390E+00
          2   -1    0    0  502    0  0.00000000000E+00  0.00000000000E+00  0.77858987659E+02  0.77858987659E+02  0.00000000000E+00 0. -1.
         -2   -1    0    0    0  501 -0.00000000000E+00 -0.00000000000E+00 -0.22557357618E+03  0.22557357618E+03  0.00000000000E+00 0.  1.
         23    2    1    2    0    0  0.35246329316E+02 -0.39601054622E+02 -0.26015741096E+02  0.10967850592E+03  0.92422987507E+02 0.  0.
         23    2    1    2    0    0 -0.19961462971E+02  0.25101857401E+02 -0.29754474505E+02  0.99426853084E+02  0.89284976968E+02 0.  0.
        -11    1    4    4    0    0  0.29493250062E+02 -0.13185828908E+02 -0.11102846062E+02  0.34161251059E+02  0.00000000000E+00 0.  1.
         11    1    4    4    0    0 -0.49454713033E+02  0.38287686310E+02 -0.18651628442E+02  0.65265602025E+02  0.00000000000E+00 0. -1.
        -13    1    3    3    0    0  0.52783899238E+02  0.93940232499E+01 -0.20293826467E+02  0.57325623278E+02  0.00000000000E+00 0.  1.
         13    1    3    3    0    0 -0.17537569921E+02 -0.48995077871E+02 -0.57219146284E+01  0.52352882646E+02  0.00000000000E+00 0. -1.
         21    1    1    2  502  501 -0.15284866345E+02  0.14499197220E+02 -0.91944372920E+02  0.94327204830E+02  0.00000000000E+00 0. -1.
<scales pt_clust_5="13000.00000" pt_clust_6="13000.00000" pt_clust_7="13000.00000" pt_clust_8="13000.00000" pt_clust_9="21.06784"></scales>
<clustering>
<clus scale="   21.068">  2  9  1 -1</clus>
<clus scale="   89.285">  5  6 -1 -1</clus>
<clus scale="   92.423">  7  8 -1 -1</clus>
<clus scale="   98.785">  1  5  2 -1</clus>
<clus scale="   98.785">  1  5  2 -1</clus>
</clustering>
</event>
<event>
 9    1  0.1713970E-005  0.9872976E+02  0.7546771E-02  0.1283749E+00
          2   -1    0    0  502    0  0.00000000000E+00  0.00000000000E+00  0.27316069687E+03  0.27316069687E+03  0.00000000000E+00 0.  1.
         -2   -1    0    0    0  501 -0.00000000000E+00 -0.00000000000E+00 -0.61237095633E+02  0.61237095633E+02  0.00000000000E+00 0. -1.
         23    2    1    2    0    0  0.14005736737E+02  0.17078779158E+01  0.64930602050E+02  0.11447875604E+03  0.93221912620E+02 0.  0.
         23    2    1    2    0    0 -0.33088455193E+02 -0.15097666334E+02  0.16275623214E+03  0.19177803275E+03  0.94691273875E+02 0.  0.
        -13    1    4    4    0    0 -0.18128747117E+02 -0.54234239511E+02  0.11365840015E+03  0.12723299938E+03  0.00000000000E+00 0. -1.
         13    1    4    4    0    0 -0.14959708076E+02  0.39136573177E+02  0.49097831989E+02  0.64545033362E+02  0.00000000000E+00 0.  1.
        -13    1    3    3    0    0  0.24857927412E+02  0.36657659934E+02  0.64049933402E+02  0.77872296459E+02  0.00000000000E+00 0.  1.
         13    1    3    3    0    0 -0.10852190675E+02 -0.34949782018E+02  0.88066864872E+00  0.36606459578E+02  0.00000000000E+00 0. -1.
         21    1    1    2  502  501  0.19082718456E+02  0.13389788418E+02 -0.15763232949E+02  0.28141003724E+02  0.00000000000E+00 0. -1.
<scales pt_clust_5="13000.00000" pt_clust_6="13000.00000" pt_clust_7="13000.00000" pt_clust_8="13000.00000" pt_clust_9="23.31173"></scales>
<clustering>
<clus scale="   23.312">  2  9  1 -1</clus>
<clus scale="   93.222">  7  8 -1 -1</clus>
<clus scale="   94.691">  5  6 -1 -1</clus>
<clus scale="   97.321">  2  7  1 -1</clus>
<clus scale="   98.730">  1  5  2 -1</clus>
</clustering>
</event>
<event>
 9    1  0.1713970E-005  0.1045243E+03  0.7546771E-02  0.1271074E+00
         -1   -1    0    0    0  501 -0.00000000000E+00  0.00000000000E+00  0.33994540855E+03  0.33994540855E+03  0.00000000000E+00 0.  1.
          1   -1    0    0  502    0  0.00000000000E+00 -0.00000000000E+00 -0.14423766567E+03  0.14423766567E+03  0.00000000000E+00 0. -1.
         23    2    1    2    0    0 -0.76865643990E+01 -0.10210899738E+02  0.19115696517E+03  0.21259714721E+03  0.92158645408E+02 0.  0.
         23    2    1    2    0    0  0.41132260128E+02 -0.36475426701E+02 -0.10359595281E+03  0.14913617012E+03  0.92125763074E+02 0.  0.
        -11    1    3    3    0    0 -0.31251864046E+02  0.31880886099E+02  0.85714906143E+02  0.96644270601E+02  0.00000000000E+00 0.  1.
         11    1    3    3    0    0  0.23565299647E+02 -0.42091785836E+02  0.10544205903E+03  0.11595287661E+03  0.00000000000E+00 0. -1.
        -11    1    4    4    0    0  0.37073473065E+02  0.25323334932E+02 -0.50370921180E+02  0.67475502205E+02  0.00000000000E+00 0.  1.
         11    1    4    4    0    0  0.40587870624E+01 -0.61798761633E+02 -0.53225031630E+02  0.81660667911E+02  0.00000000000E+00 0. -1.
         21    1    1    2  502  501 -0.33445695729E+02  0.46686326438E+02  0.10814673053E+03  0.12244975689E+03  0.00000000000E+00 0.  1.
<scales pt_clust_5="13000.00000" pt_clust_6="13000.00000" pt_clust_7="13000.00000" pt_clust_8="13000.00000" pt_clust_9="57.43020"></scales>
<clustering>
<clus scale="   57.430">  1  9  2 -1</clus>
<clus scale="   92.126">  7  8 -1 -1</clus>
<clus scale="   92.159">  5  6 -1 -1</clus>
<clus scale="  104.495">  2  7  1 -1</clus>
<clus scale="  104.495">  2  5  1 -1</clus>
</clustering>
</event>
<event>
 9    1  0.1713970E-005  0.8869903E+02  0.7546771E-02  0.1306509E+00
         -2   -1    0    0    0  501 -0.00000000000E+00  0.00000000000E+00  0.38301716263E+03  0.38301716263E+03  0.00000000000E+00 0.  1.
          2   -1    0    0  502    0  0.00000000000E+00 -0.00000000000E+00 -0.37099271178E+02  0.37099271178E+02  0.00000000000E+00 0. -1.
         23    2    1    2    0    0 -0.51484420452E+01  0.20079601573E+02  0.13682394387E+03  0.16368417790E+03  0.87418657183E+02 0.  0.
         23    2    1    2    0    0  0.11563004998E+02  0.18046998066E+02  0.77720662626E+02  0.11948801829E+03  0.88190066850E+02 0.  0.
        -11    1    3    3    0    0  0.53726999482E+01  0.52528441033E+02  0.61908757641E+02  0.81368281872E+02  0.00000000000E+00 0. -1.
         11    1    3    3    0    0 -0.10521141993E+02 -0.32448839460E+02  0.74915186230E+02  0.82315896029E+02  0.00000000000E+00 0.  1.
        -11    1    4    4    0    0  0.43914571844E+02  0.13523504847E+02  0.14256963562E+02  0.48110662161E+02  0.00000000000E+00 0. -1.
         11    1    4    4    0    0 -0.32351566846E+02  0.45234932190E+01  0.63463699065E+02  0.71377356124E+02  0.00000000000E+00 0.  1.
         21    1    1    2  502  501 -0.64145629523E+01 -0.38126599639E+02  0.13137328495E+03  0.13694423762E+03  0.00000000000E+00 0.  1.
<scales pt_clust_5="13000.00000" pt_clust_6="13000.00000" pt_clust_7="13000.00000" pt_clust_8="13000.00000" pt_clust_9="38.66244"></scales>
<clustering>
<clus scale="   38.662">  1  9  2 -1</clus>
<clus scale="   87.419">  5  6 -1 -1</clus>
<clus scale="   87.932">  1  5  2 -1</clus>
<clus scale="   88.190">  7  8 -1 -1</clus>
<clus scale="   88.699">  2  5  1 -1</clus>
</clustering>
</event>
<event>
 9    1  0.1713970E-005  0.1221850E+03  0.7546771E-02  0.1240161E+00
          1   -1    0    0  502    0  0.00000000000E+00  0.00000000000E+00  0.33783540416E+03  0.33783540416E+03  0.00000000000E+00 0. -1.
         -1   -1    0    0    0  501 -0.00000000000E+00 -0.00000000000E+00 -0.92092450886E+02  0.92092450886E+02  0.00000000000E+00 0.  1.
         23    2    1    2    0    0  0.49829012121E+02  0.54427033822E+02 -0.65480503404E+01  0.11720445769E+03  0.90822769606E+02 0.  0.
         23    2    1    2    0    0 -0.68488787177E+02 -0.43496660186E+02  0.26157843982E+03  0.28918796144E+03  0.92864005123E+02 0.  0.
        -11    1    4    4    0    0 -0.81003380487E+02 -0.19720737420E+02  0.12676283726E+03  0.15172103363E+03  0.00000000000E+00 0. -1.
         11    1    4    4    0    0  0.12514593310E+02 -0.23775922766E+02  0.13481560256E+03  0.13746692781E+03  0.00000000000E+00 0.  1.
        -13    1    3    3    0    0  0.65236735498E+02  0.84204781878E+01  0.86906954867E+01  0.66349561410E+02  0.00000000000E+00 0.  1.
         13    1    3    3    0    0 -0.15407723376E+02  0.46006555634E+02 -0.15238745827E+02  0.50854896277E+02  0.00000000000E+00 0. -1.
         21    1    1    2  502  501  0.18659775055E+02 -0.10930373635E+02 -0.92874362009E+01  0.23535435923E+02  0.00000000000E+00 0.  1.
<scales pt_clust_5="13000.00000" pt_clust_6="13000.00000" pt_clust_7="13000.00000" pt_clust_8="13000.00000" pt_clust_9="21.62545"></scales>
<clustering>
<clus scale="   21.625">  2  9  1 -1</clus>
<clus scale="   90.823">  7  8 -1 -1</clus>
<clus scale="   92.864">  5  6 -1 -1</clus>
<clus scale="  120.641">  2  7  1 -1</clus>
<clus scale="  122.185">  1  5  2 -1</clus>
</clustering>
</event>
<event>
 9    1  0.1713970E-005  0.9765757E+02  0.7546771E-02  0.1286046E+00
         -1   -1    0    0    0  501 -0.00000000000E+00  0.00000000000E+00  0.32228370092E+03  0.32228370092E+03  0.00000000000E+00 0.  1.
          1   -1    0    0  502    0  0.00000000000E+00 -0.00000000000E+00 -0.11647156533E+03  0.11647156533E+03  0.00000000000E+00 0. -1.
         23    2    1    2    0    0 -0.15337032494E+02  0.31289137423E+01  0.21665843606E+03  0.23576387946E+03  0.91644499417E+02 0.  0.
         23    2    1    2    0    0  0.32922299631E+02  0.14058101416E+02 -0.82418857468E+02  0.12731268421E+03  0.90189486446E+02 0.  0.
        -11    1    3    3    0    0 -0.48369455763E+02 -0.11486245533E+02  0.16775663670E+03  0.17496807492E+03  0.00000000000E+00 0.  1.
         11    1    3    3    0    0  0.33032423268E+02  0.14615159275E+02  0.48901799363E+02  0.60795804531E+02  0.00000000000E+00 0. -1.
        -13    1    4    4    0    0  0.15016526059E+02 -0.20597798701E+02 -0.84487961995E+02  0.88249538742E+02  0.00000000000E+00 0.  1.
         13    1    4    4    0    0  0.17905773572E+02  0.34655900117E+02  0.20691045264E+01  0.39063145466E+02  0.00000000000E+00 0. -1.
         21    1    1    2  502  501 -0.17585267137E+02 -0.17187015159E+02  0.71572556996E+02  0.75678702587E+02  0.00000000000E+00 0.  1.
<scales pt_clust_5="13000.00000" pt_clust_6="13000.00000" pt_clust_7="13000.00000" pt_clust_8="13000.00000" pt_clust_9="24.58933"></scales>
<clustering>
<clus scale="   24.589">  1  9  2 -1</clus>
<clus scale="   90.189">  7  8 -1 -1</clus>
<clus scale="   91.644">  5  6 -1 -1</clus>
<clus scale="   96.293">  2  7  1 -1</clus>
<clus scale="   96.293">  2  5  1 -1</clus>
</clustering>
</event>
<event>
 9    1  0.1713970E-005  0.9455231E+02  0.7546771E-02  0.1294661E+00
          1   -1    0    0  502    0  0.00000000000E+00  0.00000000000E+00  0.17155004798E+03  0.17155004798E+03  0.00000000000E+00 0. -1.
         -1   -1    0    0    0  501 -0.00000000000E+00 -0.00000000000E+00 -0.10345265211E+03  0.10345265211E+03  0.00000000000E+00 0.  1.
         23    2    1    2    0    0 -0.44122060510E+02 -0.20658956384E+02  0.54218863535E+02  0.11290030944E+03  0.86216274607E+02 0.  0.
         23    2    1    2    0    0  0.98297500380E+01 -0.10897805572E+02  0.48670417511E+02  0.10394512922E+03  0.90666389565E+02 0.  0.
        -11    1    3    3    0    0 -0.68611097833E+02 -0.22849782768E+02  0.29699901543E+02  0.78177231149E+02  0.00000000000E+00 0.  1.
         11    1    3    3    0    0  0.24489037322E+02  0.21908263837E+01  0.24518961992E+02  0.34723078296E+02  0.00000000000E+00 0. -1.
        -11    1    4    4    0    0 -0.15732325879E+02  0.23592046978E+02  0.53694584838E+02  0.60722312202E+02  0.00000000000E+00 0. -1.
         11    1    4    4    0    0  0.25562075917E+02 -0.34489852550E+02 -0.50241673275E+01  0.43222817023E+02  0.00000000000E+00 0.  1.
         21    1    1    2  502  501  0.34292310473E+02  0.31556761956E+02 -0.34791885177E+02  0.58157261428E+02  0.00000000000E+00 0. -1.
<scales pt_clust_5="13000.00000" pt_clust_6="13000.00000" pt_clust_7="13000.00000" pt_clust_8="13000.00000" pt_clust_9="46.60249"></scales>
<clustering>
<clus scale="   46.602">  2  9  1 -1</clus>
<clus scale="   86.216">  5  6 -1 -1</clus>
<clus scale="   90.294">  2  5  1 -1</clus>
<clus scale="   90.666">  7  8 -1 -1</clus>
<clus scale="   94.552">  1  5  2 -1</clus>
</clustering>
</event>
<event>
 9    1  0.1713970E-005  0.1409581E+03  0.7546771E-02  0.1212094E+00
          1   -1    0    0  502    0  0.00000000000E+00  0.00000000000E+00  0.41773522818E+03  0.41773522818E+03  0.00000000000E+00 0. -1.
         -1   -1    0    0    0  501 -0.00000000000E+00 -0.00000000000E+00 -0.87774872164E+02  0.87774872164E+02  0.00000000000E+00 0.  1.
         23    2    1    2    0    0 -0.84808135691E+02  0.85813801894E+02  0.98288590803E+02  0.17997735747E+03  0.90414454851E+02 0.  0.
         23    2    1    2    0    0  0.64681790024E+02 -0.79909079095E+02  0.25783522364E+03  0.29199974273E+03  0.90640235669E+02 0.  0.
        -11    1    4    4    0    0 -0.23019008610E+02 -0.15213520956E+02  0.62499159269E+02  0.68318891139E+02  0.00000000000E+00 0. -1.
         11    1    4    4    0    0  0.87700798634E+02 -0.64695558139E+02  0.19533606437E+03  0.22368085159E+03  0.00000000000E+00 0.  1.
        -13    1    3    3    0    0 -0.27789131941E+02  0.89189628007E+02  0.56122120416E+02  0.10898035602E+03  0.00000000000E+00 0.  1.
         13    1    3    3    0    0 -0.57019003750E+02 -0.33758261121E+01  0.42166470388E+02  0.70997001455E+02  0.00000000000E+00 0. -1.
         21    1    1    2  502  501  0.20126345667E+02 -0.59047227993E+01 -0.26163458430E+02  0.33533000138E+02  0.00000000000E+00 0.  1.
<scales pt_clust_5="13000.00000" pt_clust_6="13000.00000" pt_clust_7="13000.00000" pt_clust_8="13000.00000" pt_clust_9="20.97464"></scales>
<clustering>
<clus scale="   20.975">  2  9  1 -1</clus>
<clus scale="   90.414">  7  8 -1 -1</clus>
<clus scale="   90.640">  5  6 -1 -1</clus>
<clus scale="  140.813">  2  7  1 -1</clus>
<clus scale="  140.958">  1  5  2 -1</clus>
</clustering>
</event>
<event>
 9    1  0.1713970E-005  0.1524881E+03  0.7546771E-02  0.1197497E+00
          1   -1    0    0  502    0  0.00000000000E+00  0.00000000000E+00  0.42233436535E+03  0.42233436535E+03  0.00000000000E+00 0. -1.
         -1   -1    0    0    0  501 -0.00000000000E+00 -0.00000000000E+00 -0.75609733533E+02  0.75609733533E+02  0.00000000000E+00 0.  1.
         23    2    1    2    0    0 -0.10703692052E+03  0.11516591347E+02  0.14229824456E+03  0.20040611224E+03  0.91237520741E+02 0.  0.
         23    2    1    2    0    0  0.13665430840E+03 -0.11526676031E+01  0.20906602993E+03  0.26581848373E+03  0.90967756791E+02 0.  0.
        -11    1    4    4    0    0  0.16821562029E+02 -0.35666592814E+02  0.52372646609E+02  0.65558865952E+02  0.00000000000E+00 0.  1.
         11    1    4    4    0    0  0.11983274638E+03  0.34513925211E+02  0.15669338332E+03  0.20025961778E+03  0.00000000000E+00 0. -1.
        -13    1    3    3    0    0 -0.10588556915E+03  0.34323937077E+02  0.13778374119E+03  0.17712776673E+03  0.00000000000E+00 0. -1.
         13    1    3    3    0    0 -0.11513513659E+01 -0.22807345730E+02  0.45145033685E+01  0.23278345515E+02  0.00000000000E+00 0.  1.
         21    1    1    2  502  501 -0.29617387888E+02 -0.10363923743E+02 -0.46396426674E+01  0.31719502909E+02  0.00000000000E+00 0.  1.
<scales pt_clust_5="13000.00000" pt_clust_6="13000.00000" pt_clust_7="13000.00000" pt_clust_8="13000.00000" pt_clust_9="31.37835"></scales>
<clustering>
<clus scale="   31.378">  2  9  1 -1</clus>
<clus scale="   90.968">  5  6 -1 -1</clus>
<clus scale="   91.238">  7  8 -1 -1</clus>
<clus scale="  152.327">  1  5  2 -1</clus>
<clus scale="  152.327">  1  5  2 -1</clus>
</clustering>
</event>
<event>
 9    1  0.1713970E-005  0.1003153E+03  0.7546771E-02  0.1280319E+00
          1   -1    0    0  502    0  0.00000000000E+00  0.00000000000E+00  0.39995344529E+03  0.39995344529E+03  0.00000000000E+00 0. -1.
         -1   -1    0    0    0  501 -0.00000000000E+00 -0.00000000000E+00 -0.42872388142E+02  0.42872388142E+02  0.00000000000E+00 0.  1.
         23    2    1    2    0    0 -0.15473074569E+02 -0.44702934488E+02  0.12555816674E+03  0.16178407528E+03  0.90396158058E+02 0.  0.
         23    2    1    2    0    0  0.47798118687E+02  0.48535426028E+01  0.18363282570E+03  0.21085386170E+03  0.91815681080E+02 0.  0.
        -11    1    3    3    0    0  0.28815390835E+02 -0.46221612057E+02  0.88961231434E+02  0.10431138417E+03  0.00000000000E+00 0. -1.
         11    1    3    3    0    0 -0.44288465405E+02  0.15186775691E+01  0.36596935303E+02  0.57472691107E+02  0.00000000000E+00 0.  1.
        -13    1    4    4    0    0  0.47569464633E+02 -0.30967752650E+02  0.15477178283E+03  0.16485193487E+03  0.00000000000E+00 0.  1.
         13    1    4    4    0    0  0.22865405312E+00  0.35821295253E+02  0.28861042868E+02  0.46001926826E+02  0.00000000000E+00 0. -1.
         21    1    1    2  502  501 -0.32325044117E+02  0.39849391885E+02  0.47890064712E+02  0.70187896456E+02  0.00000000000E+00 0.  1.
<scales pt_clust_5="13000.00000" pt_clust_6="13000.00000" pt_clust_7="13000.00000" pt_clust_8="13000.00000" pt_clust_9="51.31162"></scales>
<clustering>
<clus scale="   51.312">  2  9  1 -1</clus>
<clus scale="   90.396">  5  6 -1 -1</clus>
<clus scale="   91.816">  7  8 -1 -1</clus>
<clus scale="   99.018">  2  5  1 -1</clus>
<clus scale="  100.315">  1  5  2 -1</clus>
</clustering>
</event>
<event>
 9    1  0.1713970E-005  0.9307594E+02  0.7546771E-02  0.1297744E+00
          1   -1    0    0  502    0  0.00000000000E+00  0.00000000000E+00  0.61158834113E+03  0.61158834113E+03  0.00000000000E+00 0. -1.
         -1   -1    0    0    0  501 -0.00000000000E+00 -0.00000000000E+00 -0.29101560528E+02  0.29101560528E+02  0.00000000000E+00 0.  1.
         23    2    1    2    0    0 -0.32039291864E+02  0.14337340938E+01  0.29175655359E+03  0.30645753421E+03  0.88123560410E+02 0.  0.
         23    2    1    2    0    0 -0.21631475354E+01 -0.40020464909E+01  0.28498513372E+03  0.29945580657E+03  0.91850737954E+02 0.  0.
        -11    1    3    3    0    0 -0.27829048346E+02  0.41624701508E+02  0.12032049928E+03  0.13032303808E+03  0.00000000000E+00 0.  1.
         11    1    3    3    0    0 -0.42102435178E+01 -0.40190967414E+02  0.17143605430E+03  0.17613449613E+03  0.00000000000E+00 0. -1.
        -13    1    4    4    0    0 -0.28313454485E+02  0.28617666934E+02  0.20791376379E+03  0.21177524818E+03  0.00000000000E+00 0.  1.
         13    1    4    4    0    0  0.26150306950E+02 -0.32619713425E+02  0.77071369929E+02  0.87680558394E+02  0.00000000000E+00 0. -1.
         21    1    1    2  502  501  0.34202439399E+02  0.25683123970E+01  0.57450932974E+01  0.34776560877E+02  0.00000000000E+00 0. -1.
<scales pt_clust_5="13000.00000" pt_clust_6="13000.00000" pt_clust_7="13000.00000" pt_clust_8="13000.00000" pt_clust_9="34.29873"></scales>
<clustering>
<clus scale="   34.299">  2  9  1 -1</clus>
<clus scale="   88.124">  5  6 -1 -1</clus>
<clus scale="   89.400">  2  5  1 -1</clus>
<clus scale="   91.851">  7  8 -1 -1</clus>
<clus scale="   93.076">  1  5  2 -1</clus>
</clustering>
</event>
<event>
 9    1  0.1713970E-005  0.1780990E+03  0.7546771E-02  0.1170343E+00
          2   -1    0    0  502    0  0.00000000000E+00  0.00000000000E+00  0.48768929703E+03  0.48768929703E+03  0.00000000000E+00 0. -1.
         -2   -1    0    0    0  501 -0.00000000000E+00 -0.00000000000E+00 -0.97926818977E+02  0.97926818977E+02  0.00000000000E+00 0.  1.
         23    2    1    2    0    0  0.82591506891E+01 -0.13649257800E+03  0.84596455061E+02  0.18533054500E+03  0.92154290624E+02 0.  0.
         23    2    1    2    0    0 -0.27558706931E+02  0.18482833493E+03  0.25706899099E+03  0.32941849292E+03  0.86666496602E+02 0.  0.
        -11    1    4    4    0    0 -0.34137342071E+02  0.55338230640E+02  0.14153146867E+03  0.15575247836E+03  0.00000000000E+00 0. -1.
         11    1    4    4    0    0  0.65786351407E+01  0.12949010429E+03  0.11553752232E+03  0.17366601456E+03  0.00000000000E+00 0.  1.
        -13    1    3    3    0    0 -0.18628955038E+02 -0.12420186180E+03  0.90983697372E+02  0.15508440808E+03  0.00000000000E+00 0.  1.
         13    1    3    3    0    0  0.26888105727E+02 -0.12290716197E+02 -0.63872423106E+01  0.30246136919E+02  0.00000000000E+00 0. -1.
         21    1    1    2  502  501  0.19299556241E+02 -0.48335756928E+02  0.48097032005E+02  0.70867078087E+02  0.00000000000E+00 0. -1.
<scales pt_clust_5="13000.00000" pt_clust_6="13000.00000" pt_clust_7="13000.00000" pt_clust_8="13000.00000" pt_clust_9="52.04631"></scales>
<clustering>
<clus scale="   52.046">  1  9  2 -1</clus>
<clus scale="   86.666">  5  6 -1 -1</clus>
<clus scale="   92.154">  7  8 -1 -1</clus>
<clus scale="  175.322">  1  5  2 -1</clus>
<clus scale="   52.046">  1  5  2 -1</clus>
</clustering>
</event>
<event>
 9    1  0.1713970E-005  0.9232205E+02  0.7546771E-02  0.1299300E+00
         -1   -1    0    0    0  501 -0.00000000000E+00  0.00000000000E+00  0.29594011342E+02  0.29594011342E+02  0.00000000000E+00 0.  1.
          1   -1    0    0  502    0  0.00000000000E+00 -0.00000000000E+00 -0.39882472436E+03  0.39882472436E+03  0.00000000000E+00 0. -1.
         23    2    1    2    0    0  0.18152798829E+02  0.86530198711E+01 -0.12445471398E+03  0.15606951145E+03  0.92001726694E+02 0.  0.
         23    2    1    2    0    0  0.10209812908E+02 -0.70870635455E+01 -0.20251902531E+03  0.22143221538E+03  0.88678090000E+02 0.  0.
        -13    1    3    3    0    0  0.36386046576E+02  0.35187707388E+02 -0.10937054515E+03  0.12051570555E+03  0.00000000000E+00 0.  1.
         13    1    3    3    0    0 -0.18233247747E+02 -0.26534687517E+02 -0.15084168827E+02  0.35553805904E+02  0.00000000000E+00 0. -1.
        -13    1    4    4    0    0 -0.11948685053E+02  0.31276072050E+02 -0.14507792910E+03  0.14889113227E+03  0.00000000000E+00 0. -1.
         13    1    4    4    0    0  0.22158497961E+02 -0.38363135595E+02 -0.57441096210E+02  0.72541083107E+02  0.00000000000E+00 0.  1.
         21    1    1    2  502  501 -0.28362611737E+02 -0.15659563256E+01 -0.42256973721E+02  0.50917008866E+02  0.00000000000E+00 0. -1.
<scales pt_clust_5="13000.00000" pt_clust_6="13000.00000" pt_clust_7="13000.00000" pt_clust_8="13000.00000" pt_clust_9="28.40581"></scales>
<clustering>
<clus scale="   28.406">  1  9  2 -1</clus>
<clus scale="   88.678">  7  8 -1 -1</clus>
<clus scale="   89.010">  2  7  1 -1</clus>
<clus scale="   92.002">  5  6 -1 -1</clus>
<clus scale="   89.010">  2  5  1 -1</clus>
</clustering>
</event>
<event>
 9    1  0.1713970E-005  0.1455462E+03  0.7546771E-02  0.1207183E+00
          2   -1    0    0  502    0  0.00000000000E+00  0.00000000000E+00  0.81472042416E+03  0.81472042416E+03  0.00000000000E+00 0. -1.
         -2   -1    0    0    0  501 -0.00000000000E+00 -0.00000000000E+00 -0.72172997132E+02  0.72172997132E+02  0.00000000000E+00 0.  1.
         23    2    1    2    0    0 -0.82283484053E+02  0.35444127421E+02  0.11970714369E+03  0.18030617463E+03  0.10076536331E+03 0.  0.
         23    2    1    2    0    0  0.97375890577E+02 -0.49229168098E+02  0.65367749887E+03  0.66959073410E+03  0.95665582111E+02 0.  0.
        -11    1    4    4    0    0  0.11375686294E+03 -0.27268045412E+02  0.55405978495E+03  0.56627415222E+03  0.00000000000E+00 0.  1.
         11    1    4    4    0    0 -0.16380972362E+02 -0.21961122686E+02  0.99617713917E+02  0.10331658188E+03  0.00000000000E+00 0. -1.
        -11    1    3    3    0    0  0.16948686637E+02  0.23242659257E+02  0.52416070218E+02  0.59790664866E+02  0.00000000000E+00 0.  1.
         11    1    3    3    0    0 -0.99232170690E+02  0.12201468165E+02  0.67291073467E+02  0.12051550976E+03  0.00000000000E+00 0. -1.
         21    1    1    2  502  501 -0.15092406525E+02  0.13785040676E+02 -0.30837215523E+02  0.36996512570E+02  0.00000000000E+00 0. -1.
<scales pt_clust_5="13000.00000" pt_clust_6="13000.00000" pt_clust_7="13000.00000" pt_clust_8="13000.00000" pt_clust_9="20.44035"></scales>
<clustering>
<clus scale="   20.440">  2  9  1 -1</clus>
<clus scale="   95.666">  5  6 -1 -1</clus>
<clus scale="  100.765">  7  8 -1 -1</clus>
<clus scale="  142.063">  1  5  2 -1</clus>
<clus scale="  142.063">  1  5  2 -1</clus>
</clustering>
</event>
<event>
 9    1  0.1713970E-005  0.1267401E+03  0.7546771E-02  0.1232377E+00
          2   -1    0    0  502    0  0.00000000000E+00  0.00000000000E+00  0.68555013351E+03  0.68555013351E+03  0.00000000000E+00 0. -1.
         -2   -1    0    0    0  501 -0.00000000000E+00 -0.00000000000E+00 -0.42564526484E+02  0.42564526484E+02  0.00000000000E+00 0.  1.
         23    2    1    2    0    0 -0.44499075599E+02  0.64260078743E+02  0.13798900342E+03  0.18345532820E+03  0.92224546250E+02 0.  0.
         23    2    1    2    0    0  0.91054909213E+02 -0.30386592653E+02  0.42985332042E+03  0.44999480987E+03  0.92233997678E+02 0.  0.
        -13    1    4    4    0    0  0.65623772814E+02 -0.63478283176E+02  0.28741856392E+03  0.30157155516E+03  0.00000000000E+00 0.  1.
         13    1    4    4    0    0  0.25431136399E+02  0.33091690523E+02  0.14243475650E+03  0.14842325471E+03  0.00000000000E+00 0. -1.
        -13    1    3    3    0    0 -0.71964548402E+02  0.33867064151E+02  0.97933171272E+02  0.12616172279E+03  0.00000000000E+00 0.  1.
         13    1    3    3    0    0  0.27465472803E+02  0.30393014592E+02  0.40055832153E+02  0.57293605418E+02  0.00000000000E+00 0. -1.
         21    1    1    2  502  501 -0.46555833614E+02 -0.33873486090E+02  0.75143283179E+02  0.94664521920E+02  0.00000000000E+00 0.  1.
<scales pt_clust_5="13000.00000" pt_clust_6="13000.00000" pt_clust_7="13000.00000" pt_clust_8="13000.00000" pt_clust_9="57.57481"></scales>
<clustering>
<clus scale="   57.575">  2  9  1 -1</clus>
<clus scale="   92.225">  7  8 -1 -1</clus>
<clus scale="   92.234">  5  6 -1 -1</clus>
<clus scale="  126.733">  2  7  1 -1</clus>
<clus scale="  126.740">  1  5  2 -1</clus>
</clustering>
</event>
<event>
 9    1  0.1713970E-005  0.1522808E+03  0.7546771E-02  0.1198230E+00
          2   -1    0    0  502    0  0.00000000000E+00  0.00000000000E+00  0.65115721557E+03  0.65115721557E+03  0.00000000000E+00 0. -1.
         -2   -1    0    0    0  501 -0.00000000000E+00 -0.00000000000E+00 -0.15853271986E+03  0.15853271986E+03  0.00000000000E+00 0.  1.
         23    2    1    2    0    0  0.80759566900E+01 -0.12458563268E+03 -0.10199816249E+03  0.18348783808E+03  0.87620549109E+02 0.  0.
         23    2    1    2    0    0 -0.50622877339E+02  0.95202515810E+02  0.37501171714E+03  0.40058611066E+03  0.90604907927E+02 0.  0.
        -11    1    3    3    0    0 -0.29145794520E+02 -0.19373206090E+02 -0.44809037920E+01  0.35282813822E+02  0.00000000000E+00 0. -1.
         11    1    3    3    0    0  0.37221751210E+02 -0.10521242659E+03 -0.97517258697E+02  0.14820502426E+03  0.00000000000E+00 0.  1.
        -13    1    4    4    0    0 -0.70963620346E+01  0.78983355449E+02  0.31426076918E+03  0.32411195572E+03  0.00000000000E+00 0. -1.
         13    1    4    4    0    0 -0.43526515305E+02  0.16219160362E+02  0.60750947954E+02  0.76474154946E+02  0.00000000000E+00 0.  1.
         21    1    1    2  502  501  0.42546920649E+02  0.29383116866E+02  0.21961094106E+03  0.22561598669E+03  0.00000000000E+00 0. -1.
<scales pt_clust_5="13000.00000" pt_clust_6="13000.00000" pt_clust_7="13000.00000" pt_clust_8="13000.00000" pt_clust_9="51.70694"></scales>
<clustering>
<clus scale="   51.707">  1  9  2 -1</clus>
<clus scale="   87.621">  5  6 -1 -1</clus>
<clus scale="   90.605">  7  8 -1 -1</clus>
<clus scale="  150.524">  2  5  1 -1</clus>
<clus scale="   51.707">  1  5  2 -1</clus>
</clustering>
</event>
<event>
 9    1  0.1713970E-005  0.1359704E+03  0.7546771E-02  0.1220057E+00
         -2   -1    0    0    0  501 -0.00000000000E+00  0.00000000000E+00  0.28368492610E+03  0.28368492610E+03  0.00000000000E+00 0.  1.
          2   -1    0    0  502    0  0.00000000000E+00 -0.00000000000E+00 -0.38580641381E+03  0.38580641381E+03  0.00000000000E+00 0. -1.
         23    2    1    2    0    0 -0.55663169705E+02 -0.11544052575E+03 -0.16993640117E+03  0.23161389464E+03  0.91332974874E+02 0.  0.
         23    2    1    2    0    0  0.47454787392E+02  0.68887168335E+02 -0.16288350128E+03  0.20238572314E+03  0.86206421659E+02 0.  0.
        -11    1    4    4    0    0  0.55600187293E+02  0.14949684680E+02 -0.11964938547E+03  0.13278120854E+03  0.00000000000E+00 0.  1.
         11    1    4    4    0    0 -0.81453999010E+01  0.53937483655E+02 -0.43234115807E+02  0.69604514597E+02  0.00000000000E+00 0. -1.
        -13    1    3    3    0    0 -0.47776172044E+02 -0.20865431358E+02 -0.10311840656E+03  0.11554797537E+03  0.00000000000E+00 0. -1.
         13    1    3    3    0    0 -0.78869976604E+01 -0.94575094394E+02 -0.66817994614E+02  0.11606591927E+03  0.00000000000E+00 0.  1.
         21    1    1    2  502  501  0.82083823131E+01  0.46553357417E+02  0.23069841474E+03  0.23549172213E+03  0.00000000000E+00 0.  1.
<scales pt_clust_5="13000.00000" pt_clust_6="13000.00000" pt_clust_7="13000.00000" pt_clust_8="13000.00000" pt_clust_9="47.27148"></scales>
<clustering>
<clus scale="   47.271">  1  9  2 -1</clus>
<clus scale="   86.206">  5  6 -1 -1</clus>
<clus scale="   91.333">  7  8 -1 -1</clus>
<clus scale="  132.581">  2  5  1 -1</clus>
<clus scale="  132.581">  2  5  1 -1</clus>
</clustering>
</event>
<event>
 9    1  0.1713970E-005  0.1126618E+03  0.7546771E-02  0.1261045E+00
         -2   -1    0    0    0  501 -0.00000000000E+00  0.00000000000E+00  0.49460865517E+03  0.49460865517E+03  0.00000000000E+00 0.  1.
          2   -1    0    0  502    0  0.00000000000E+00 -0.00000000000E+00 -0.12003094874E+03  0.12003094874E+03  0.00000000000E+00 0. -1.
         23    2    1    2    0    0 -0.30536475005E+02 -0.29190156462E+02  0.31818914497E+03  0.33741254955E+03  0.10401132189E+03 0.  0.
         23    2    1    2    0    0  0.42096736985E+02  0.11746201408E+02 -0.86115322823E+02  0.13319480706E+03  0.91732760176E+02 0.  0.
        -13    1    4    4    0    0  0.17471044500E+02 -0.27120373026E+02  0.35078419339E+01  0.32450839496E+02  0.00000000000E+00 0.  1.
         13    1    4    4    0    0  0.24625692485E+02  0.38866574434E+02 -0.89623164757E+02  0.10074396756E+03  0.00000000000E+00 0. -1.
        -13    1    3    3    0    0 -0.62214762234E+02 -0.32126975121E+02  0.27497879645E+03  0.28375369190E+03  0.00000000000E+00 0.  1.
         13    1    3    3    0    0  0.31678287229E+02  0.29368186583E+01  0.43210348522E+02  0.53658857657E+02  0.00000000000E+00 0. -1.
         21    1    1    2  502  501 -0.11560261980E+02  0.17443955055E+02  0.14250388428E+03  0.14403224730E+03  0.00000000000E+00 0.  1.
<scales pt_clust_5="13000.00000" pt_clust_6="13000.00000" pt_clust_7="13000.00000" pt_clust_8="13000.00000" pt_clust_9="20.92681"></scales>
<clustering>
<clus scale="   20.927">  1  9  2 -1</clus>
<clus scale="   91.733">  5  6 -1 -1</clus>
<clus scale="  101.436">  2  5  1 -1</clus>
<clus scale="  104.011">  7  8 -1 -1</clus>
<clus scale="  101.436">  2  5  1 -1</clus>
</clustering>
</event>
<event>
 9    1  0.1713970E-005  0.1154021E+03  0.7546771E-02  0.1251274E+00
         -2   -1    0    0    0  501 -0.00000000000E+00  0.00000000000E+00  0.36223968479E+02  0.36223968479E+02  0.00000000000E+00 0.  1.
          2   -1    0    0  502    0  0.00000000000E+00 -0.00000000000E+00 -0.61369398852E+03  0.61369398852E+03  0.00000000000E+00 0. -1.
         23    2    1    2    0    0  0.18813096562E+02  0.64798549470E+02 -0.11055855227E+03  0.15753314280E+03  0.89670022784E+02 0.  0.
         23    2    1    2    0    0 -0.44752354975E+02 -0.58410400998E+02 -0.43662486745E+03  0.45200001846E+03  0.90819566108E+02 0.  0.
        -11    1    4    4    0    0  0.14300820425E+02  0.16274343017E+02 -0.78439179914E+02  0.81376118432E+02  0.00000000000E+00 0.  1.
         11    1    4    4    0    0 -0.59053175400E+02 -0.74684744016E+02 -0.35818568754E+03  0.37062390002E+03  0.00000000000E+00 0. -1.
        -13    1    3    3    0    0 -0.33353107637E+02  0.45156339862E+02 -0.49341308943E+02  0.74740147090E+02  0.00000000000E+00 0.  1.
         13    1    3    3    0    0  0.52166204200E+02  0.19642209609E+02 -0.61217243324E+02  0.82792995712E+02  0.00000000000E+00 0. -1.
         21    1    1    2  502  501  0.25939258413E+02 -0.63881484721E+01 -0.30286600325E+02  0.40384795742E+02  0.00000000000E+00 0.  1.
<scales pt_clust_5="13000.00000" pt_clust_6="13000.00000" pt_clust_7="13000.00000" pt_clust_8="13000.00000" pt_clust_9="26.71430"></scales>
<clustering>
<clus scale="   26.714">  1  9  2 -1</clus>
<clus scale="   89.670">  7  8 -1 -1</clus>
<clus scale="   90.820">  5  6 -1 -1</clus>
<clus scale="  114.500">  1  7  2 -1</clus>
<clus scale="  115.402">  2  5  1 -1</clus>
</clustering>
</event>
<event>
 9    1  0.1713970E-005  0.1603206E+03  0.7546771E-02  0.1190787E+00
          2   -1    0    0  502    0  0.00000000000E+00  0.00000000000E+00  0.27033884122E+03  0.27033884122E+03  0.00000000000E+00 0. -1.
         -2   -1    0    0    0  501 -0.00000000000E+00 -0.00000000000E+00 -0.22608006947E+03  0.22608006947E+03  0.00000000000E+00 0.  1.
         23    2    1    2    0    0  0.65922451887E+02  0.30368583598E+02 -0.12827297039E+03  0.17129361826E+03  0.87289908862E+02 0.  0.
         23    2    1    2    0    0 -0.83427848820E+02 -0.11025195842E+03  0.17274623942E+03  0.24334608661E+03  0.10129340719E+03 0.  0.
        -11    1    4    4    0    0 -0.10568753740E+03 -0.10092365938E+03  0.15722284139E+03  0.21464962716E+03  0.00000000000E+00 0. -1.
         11    1    4    4    0    0  0.22259688580E+02 -0.93282990482E+01  0.15523398029E+02  0.28696459453E+02  0.00000000000E+00 0.  1.
        -13    1    3    3    0    0 -0.21631190051E+02  0.33201485856E+01 -0.25157843172E+02  0.33344397471E+02  0.00000000000E+00 0. -1.
         13    1    3    3    0    0  0.87553641938E+02  0.27048435012E+02 -0.10311512722E+03  0.13794922079E+03  0.00000000000E+00 0.  1.
         21    1    1    2  502  501  0.17505396934E+02  0.79883374827E+02 -0.21449727233E+00  0.81779205821E+02  0.00000000000E+00 0.  1.
<scales pt_clust_5="13000.00000" pt_clust_6="13000.00000" pt_clust_7="13000.00000" pt_clust_8="13000.00000" pt_clust_9="81.77892"></scales>
<clustering>
<clus scale="   81.779">  2  9  1 -1</clus>
<clus scale="   87.290">  7  8 -1 -1</clus>
<clus scale="  101.293">  5  6 -1 -1</clus>
<clus scale="  151.861">  2  7  1 -1</clus>
<clus scale="  160.321">  1  5  2 -1</clus>
</clustering>
</event>
<event>
 9    1  0.1713970E-005  0.1326009E+03  0.7546771E-02  0.1223907E+00
          1   -1    0    0  502    0  0.00000000000E+00  0.00000000000E+00  0.14941934147E+03  0.14941934147E+03  0.00000000000E+00 0. -1.
         -1   -1    0    0    0  501 -0.00000000000E+00 -0.00000000000E+00 -0.16610449322E+03  0.16610449322E+03  0.00000000000E+00 0.  1.
         23    2    1    2    0    0  0.10327021843E+03  0.14203920181E+02 -0.46572577123E+02  0.14673782122E+03  0.92176427976E+02 0.  0.
         23    2    1    2    0    0 -0.91663261870E+02  0.54869543564E+01  0.49642662859E+02  0.13857473430E+03  0.91138920148E+02 0.  0.
        -11    1    4    4    0    0 -0.77882371944E+02  0.26769226731E+02  0.68384513286E+02  0.10704530357E+03  0.00000000000E+00 0. -1.
         11    1    4    4    0    0 -0.13780889926E+02 -0.21282272375E+02 -0.18741850427E+02  0.31529430728E+02  0.00000000000E+00 0.  1.
        -13    1    3    3    0    0 -0.53089822252E+01  0.19666718230E+02  0.11593864809E+02  0.23438916345E+02  0.00000000000E+00 0. -1.
         13    1    3    3    0    0  0.10857920065E+03 -0.54627980489E+01 -0.58166441932E+02  0.12329890488E+03  0.00000000000E+00 0.  1.
         21    1    1    2  502  501 -0.11606956557E+02 -0.19690874537E+02 -0.19755237495E+02  0.30211279169E+02  0.00000000000E+00 0. -1.
<scales pt_clust_5="13000.00000" pt_clust_6="13000.00000" pt_clust_7="13000.00000" pt_clust_8="13000.00000" pt_clust_9="22.85721"></scales>
<clustering>
<clus scale="   22.857">  2  9  1 -1</clus>
<clus scale="   91.139">  5  6 -1 -1</clus>
<clus scale="   92.176">  7  8 -1 -1</clus>
<clus scale="  131.882">  1  5  2 -1</clus>
<clus scale="  131.882">  1  5  2 -1</clus>
</clustering>
</event>
<event>
 9    1  0.1713970E-005  0.1135771E+03  0.7546771E-02  0.1254598E+00
         -2   -1    0    0    0  501 -0.00000000000E+00  0.00000000000E+00  0.21370312143E+03  0.21370312143E+03  0.00000000000E+00 0.  1.
          2   -1    0    0  502    0  0.00000000000E+00 -0.00000000000E+00 -0.96173238951E+02  0.96173238951E+02  0.00000000000E+00 0. -1.
         23    2    1    2    0    0  0.48992751299E+02  0.36317153386E+02  0.10867827674E+03  0.15421330473E+03  0.90838043848E+02 0.  0.
         23    2    1    2    0    0 -0.35935488185E+02 -0.59488839209E+02 -0.19106911001E+02  0.11707422563E+03  0.92255183909E+02 0.  0.
        -11    1    3    3    0    0  0.59379731739E+02  0.57685041215E+02  0.97650389996E+02  0.12801997964E+03  0.00000000000E+00 0.  1.
         11    1    3    3    0    0 -0.10386980440E+02 -0.21367887830E+02  0.11027886743E+02  0.26193325085E+02  0.00000000000E+00 0. -1.
        -13    1    4    4    0    0 -0.18630750690E+02 -0.25129328387E+02  0.37372625727E+02  0.48737061567E+02  0.00000000000E+00 0.  1.
         13    1    4    4    0    0 -0.17304737495E+02 -0.34359510822E+02 -0.56479536728E+02  0.68337164066E+02  0.00000000000E+00 0. -1.
         21    1    1    2  502  501 -0.13057263114E+02  0.23171685823E+02  0.27958516740E+02  0.38588830019E+02  0.00000000000E+00 0.  1.
<scales pt_clust_5="13000.00000" pt_clust_6="13000.00000" pt_clust_7="13000.00000" pt_clust_8="13000.00000" pt_clust_9="26.59735"></scales>
<clustering>
<clus scale="   26.597">  1  9  2 -1</clus>
<clus scale="   90.838">  5  6 -1 -1</clus>
<clus scale="   92.255">  7  8 -1 -1</clus>
<clus scale="  112.429">  1  5  2 -1</clus>
<clus scale="  113.577">  2  5  1 -1</clus>
</clustering>
</event>
<event>
 9    1  0.1713970E-005  0.1640765E+03  0.7546771E-02  0.1184547E+00
         -2   -1    0    0    0  501 -0.00000000000E+00  0.00000000000E+00  0.34883364316E+02  0.34883364316E+02  0.00000000000E+00 0.  1.
          2   -1    0    0  502    0  0.00000000000E+00 -0.00000000000E+00 -0.11987772628E+04  0.11987772628E+04  0.00000000000E+00 0. -1.
         23    2    1    2    0    0 -0.81306864678E+01  0.10050787002E+03 -0.28098609567E+03  0.31124775672E+03  0.88057027568E+02 0.  0.
         23    2    1    2    0    0 -0.20185822570E+02 -0.16720391097E+03 -0.70073359567E+03  0.72635770390E+03  0.90572217816E+02 0.  0.
        -11    1    4    4    0    0  0.14672746765E+02 -0.74067970878E+02 -0.16478008414E+03  0.18125625489E+03  0.00000000000E+00 0.  1.
         11    1    4    4    0    0 -0.34858569336E+02 -0.93135940089E+02 -0.53595351153E+03  0.54510144901E+03  0.00000000000E+00 0. -1.
        -11    1    3    3    0    0  0.33759590182E+02  0.12178628989E+02 -0.83665811728E+02  0.91038436857E+02  0.00000000000E+00 0.  1.
         11    1    3    3    0    0 -0.41890276650E+02  0.88329241028E+02 -0.19732028394E+03  0.22020931986E+03  0.00000000000E+00 0. -1.
         21    1    1    2  502  501  0.28316509038E+02  0.66696040949E+02 -0.18217420715E+03  0.19605516651E+03  0.00000000000E+00 0. -1.
<scales pt_clust_5="13000.00000" pt_clust_6="13000.00000" pt_clust_7="13000.00000" pt_clust_8="13000.00000" pt_clust_9="72.45817"></scales>
<clustering>
<clus scale="   72.458">  1  9  2 -1</clus>
<clus scale="   88.057">  7  8 -1 -1</clus>
<clus scale="   90.572">  5  6 -1 -1</clus>
<clus scale="  162.702">  1  7  2 -1</clus>
<clus scale="  164.077">  2  5  1 -1</clus>
</clustering>
</event>
<event>
 9    1  0.1713970E-005  0.1007419E+03  0.7546771E-02  0.1282885E+00
          1   -1    0    0  502    0  0.00000000000E+00  0.00000000000E+00  0.38532178277E+02  0.38532178277E+02  0.00000000000E+00 0. -1.
         -1   -1    0    0    0  501 -0.00000000000E+00 -0.00000000000E+00 -0.42322193052E+03  0.42322193052E+03  0.00000000000E+00 0.  1.
         23    2    1    2    0    0 -0.54286941959E+01  0.19524639227E+02 -0.25094420534E+03  0.26780300593E+03  0.91294980879E+02 0.  0.
         23    2    1    2    0    0 -0.14045912693E+02 -0.14690347302E+02 -0.60131930016E+02  0.11765172356E+03  0.99060512221E+02 0.  0.
        -11    1    3    3    0    0  0.16360657195E+02 -0.23980770554E+02 -0.30715863058E+02  0.42263609685E+02  0.00000000000E+00 0. -1.
         11    1    3    3    0    0 -0.21789351390E+02  0.43505409781E+02 -0.22022834228E+03  0.22553939624E+03  0.00000000000E+00 0.  1.
        -13    1    4    4    0    0  0.19340676519E+02  0.31336695170E+02 -0.46252550297E+02  0.59121473606E+02  0.00000000000E+00 0.  1.
         13    1    4    4    0    0 -0.33386589213E+02 -0.46027042473E+02 -0.13879379719E+02  0.58530249952E+02  0.00000000000E+00 0. -1.
         21    1    1    2  502  501  0.19474606889E+02 -0.48342919252E+01 -0.73613616892E+02  0.76299379315E+02  0.00000000000E+00 0.  1.
<scales pt_clust_5="13000.00000" pt_clust_6="13000.00000" pt_clust_7="13000.00000" pt_clust_8="13000.00000" pt_clust_9="20.06566"></scales>
<clustering>
<clus scale="   20.066">  2  9  1 -1</clus>
<clus scale="   91.295">  5  6 -1 -1</clus>
<clus scale="   93.117">  2  5  1 -1</clus>
<clus scale="   99.061">  7  8 -1 -1</clus>
<clus scale="  100.742">  1  5  2 -1</clus>
</clustering>
</event>
<event>
 9    1  0.1713970E-005  0.1112095E+03  0.7546771E-02  0.1258664E+00
         -1   -1    0    0    0  501 -0.00000000000E+00  0.00000000000E+00  0.81970232870E+02  0.81970232870E+02  0.00000000000E+00 0.  1.
          1   -1    0    0  502    0  0.00000000000E+00 -0.00000000000E+00 -0.30682154532E+03  0.30682154532E+03  0.00000000000E+00 0. -1.
         23    2    1    2    0    0  0.34221740737E+02  0.79086520277E+02 -0.13878077856E+03  0.18717311823E+03  0.91366659459E+02 0.  0.
         23    2    1    2    0    0 -0.17038195450E+02 -0.41954310961E+02 -0.11371847081E+03  0.15223765539E+03  0.90520433070E+02 0.  0.
        -11    1    4    4    0    0 -0.78024175942E+01  0.27305143460E+02 -0.17612700614E+02  0.33416400204E+02  0.00000000000E+00 0. -1.
         11    1    4    4    0    0 -0.92357778561E+01 -0.69259454420E+02 -0.96105770194E+02  0.11882125519E+03  0.00000000000E+00 0.  1.
        -11    1    3    3    0    0  0.10938606151E+02  0.38445608971E+02  0.76275092164E+00  0.39978741134E+02  0.00000000000E+00 0.  1.
         11    1    3    3    0    0  0.23283134585E+02  0.40640911307E+02 -0.13954352948E+03  0.14719437709E+03  0.00000000000E+00 0. -1.
         21    1    1    2  502  501 -0.17183545286E+02 -0.37132209317E+02  0.27647936914E+02  0.49381004576E+02  0.00000000000E+00 0.  1.
<scales pt_clust_5="13000.00000" pt_clust_6="13000.00000" pt_clust_7="13000.00000" pt_clust_8="13000.00000" pt_clust_9="40.91546"></scales>
<clustering>
<clus scale="   40.915">  1  9  2 -1</clus>
<clus scale="   90.520">  5  6 -1 -1</clus>
<clus scale="   91.367">  7  8 -1 -1</clus>
<clus scale="  110.515">  2  5  1 -1</clus>
<clus scale="  110.515">  2  5  1 -1</clus>
</clustering>
</event>
<event>
 9    1  0.1713970E-005  0.9634804E+02  0.7546771E-02  0.1289535E+00
         -2   -1    0    0    0  501 -0.00000000000E+00  0.00000000000E+00  0.66754817628E+02  0.66754817628E+02  0.00000000000E+00 0.  1.
          2   -1    0    0  502    0  0.00000000000E+00 -0.00000000000E+00 -0.17481534672E+03  0.17481534672E+03  0.00000000000E+00 0. -1.
         23    2    1    2    0    0  0.71186595946E+01  0.53720843830E+01 -0.36198243953E+02  0.98994056877E+02  0.91705920347E+02 0.  0.
         23    2    1    2    0    0 -0.25458158653E+02 -0.14498336369E+02 -0.71929760598E+02  0.12209122881E+03  0.94202219148E+02 0.  0.
        -13    1    3    3    0    0  0.29094543374E+02 -0.28160088320E+02  0.58325844176E+01  0.40908459630E+02  0.00000000000E+00 0. -1.
         13    1    3    3    0    0 -0.21975883780E+02  0.33532172703E+02 -0.42030828370E+02  0.58085597247E+02  0.00000000000E+00 0.  1.
        -13    1    4    4    0    0  0.28812060911E+02 -0.86134086086E+01  0.20612340862E+01  0.30142567040E+02  0.00000000000E+00 0.  1.
         13    1    4    4    0    0 -0.54270219564E+02 -0.58849277601E+01 -0.73990994685E+02  0.91948661767E+02  0.00000000000E+00 0. -1.
         21    1    1    2  502  501  0.18339499058E+02  0.91262519857E+01  0.67475458388E-01  0.20484878666E+02  0.00000000000E+00 0.  1.
<scales pt_clust_5="13000.00000" pt_clust_6="13000.00000" pt_clust_7="13000.00000" pt_clust_8="13000.00000" pt_clust_9="20.48477"></scales>
<clustering>
<clus scale="   20.485">  1  9  2 -1</clus>
<clus scale="   91.706">  5  6 -1 -1</clus>
<clus scale="   93.909">  1  5  2 -1</clus>
<clus scale="   94.202">  7  8 -1 -1</clus>
<clus scale="   96.348">  2  5  1 -1</clus>
</clustering>
</event>
<event>
 9    1  0.1713970E-005  0.9500022E+02  0.7546771E-02  0.1292738E+00
          2   -1    0    0  502    0  0.00000000000E+00  0.00000000000E+00  0.38000344431E+03  0.38000344431E+03  0.00000000000E+00 0. -1.
         -2   -1    0    0    0  501 -0.00000000000E+00 -0.00000000000E+00 -0.48174022352E+02  0.48174022352E+02  0.00000000000E+00 0.  1.
         23    2    1    2    0    0  0.11076562795E+02  0.41146516868E+02  0.82962325215E+02  0.13094492448E+03  0.91913544973E+02 0.  0.
         23    2    1    2    0    0 -0.62293840740E+01  0.15102836014E+02  0.20267938013E+03  0.22428879668E+03  0.94655334266E+02 0.  0.
        -11    1    3    3    0    0  0.28119657978E+02  0.76536123445E+01  0.88302832931E+02  0.92987543523E+02  0.00000000000E+00 0.  1.
         11    1    3    3    0    0 -0.17043095183E+02  0.33492904524E+02 -0.53405077161E+01  0.37957380962E+02  0.00000000000E+00 0. -1.
        -13    1    4    4    0    0 -0.22183665816E+02 -0.36093011351E+02  0.93576368563E+02  0.10271979970E+03  0.00000000000E+00 0.  1.
         13    1    4    4    0    0  0.15954281742E+02  0.51195847365E+02  0.10910301156E+03  0.12156899698E+03  0.00000000000E+00 0. -1.
         21    1    1    2  502  501 -0.48471787211E+01 -0.56249352882E+02  0.46187716614E+02  0.72943745498E+02  0.00000000000E+00 0.  1.
<scales pt_clust_5="13000.00000" pt_clust_6="13000.00000" pt_clust_7="13000.00000" pt_clust_8="13000.00000" pt_clust_9="56.45781"></scales>
<clustering>
<clus scale="   56.458">  2  9  1 -1</clus>
<clus scale="   91.914">  5  6 -1 -1</clus>
<clus scale="   92.269">  2  5  1 -1</clus>
<clus scale="   94.655">  7  8 -1 -1</clus>
<clus scale="   95.000">  1  5  2 -1</clus>
</clustering>
</event>
<event>
 9    1  0.1713970E-005  0.1157307E+03  0.7546771E-02  0.1251721E+00
          1   -1    0    0  502    0  0.00000000000E+00  0.00000000000E+00  0.68710855166E+02  0.68710855166E+02  0.00000000000E+00 0. -1.
         -1   -1    0    0    0  501 -0.00000000000E+00 -0.00000000000E+00 -0.27981883090E+03  0.27981883090E+03  0.00000000000E+00 0.  1.
         23    2    1    2    0    0  0.42073555072E+02  0.40131778072E+02 -0.89987431377E+02  0.14076896691E+03  0.91309477016E+02 0.  0.
         23    2    1    2    0    0 -0.52780757477E+02 -0.61161598044E+02 -0.43423415276E+02  0.12655886339E+03  0.87206671038E+02 0.  0.
        -11    1    3    3    0    0  0.18502741165E+02 -0.29058948522E+02 -0.21541675172E+02  0.40630255833E+02  0.00000000000E+00 0.  1.
         11    1    3    3    0    0  0.23570813907E+02  0.69190726594E+02 -0.68445756205E+02  0.10013871108E+03  0.00000000000E+00 0. -1.
        -13    1    4    4    0    0 -0.31408924252E+02 -0.67283056185E+02 -0.62661284010E+02  0.97159490973E+02  0.00000000000E+00 0.  1.
         13    1    4    4    0    0 -0.21371833224E+02  0.61214581413E+01  0.19237868734E+02  0.29399372418E+02  0.00000000000E+00 0. -1.
         21    1    1    2  502  501  0.10707202405E+02  0.21029819972E+02 -0.77697129077E+02  0.81201855756E+02  0.00000000000E+00 0.  1.
<scales pt_clust_5="13000.00000" pt_clust_6="13000.00000" pt_clust_7="13000.00000" pt_clust_8="13000.00000" pt_clust_9="23.59868"></scales>
<clustering>
<clus scale="   23.599">  2  9  1 -1</clus>
<clus scale="   87.207">  7  8 -1 -1</clus>
<clus scale="   91.309">  5  6 -1 -1</clus>
<clus scale="  112.522">  1  7  2 -1</clus>
<clus scale="  112.522">  1  5  2 -1</clus>
</clustering>
</event>
<event>
 9    1  0.1713970E-005  0.1200709E+03  0.7546771E-02  0.1243571E+00
         -2   -1    0    0    0  501 -0.00000000000E+00  0.00000000000E+00  0.33943525490E+02  0.33943525490E+02  0.00000000000E+00 0.  1.
          2   -1    0    0  502    0  0.00000000000E+00 -0.00000000000E+00 -0.63969119754E+03  0.63969119754E+03  0.00000000000E+00 0. -1.
         23    2    1    2    0    0  0.55423293290E+02 -0.19804051332E+02 -0.16654548979E+03  0.19799208834E+03  0.89440063658E+02 0.  0.
         23    2    1    2    0    0 -0.89093770078E+02  0.14280809963E+02 -0.41337100440E+03  0.43284710979E+03  0.91320270315E+02 0.  0.
        -11    1    4    4    0    0 -0.19888465926E+02 -0.26198216248E+02 -0.44344402312E+02  0.55211625840E+02  0.00000000000E+00 0.  1.
         11    1    4    4    0    0 -0.69205304152E+02  0.40479026211E+02 -0.36902660209E+03  0.37763548395E+03  0.00000000000E+00 0. -1.
        -13    1    3    3    0    0 -0.19227273038E+02  0.12233976465E+02 -0.58742772714E+02  0.63008503829E+02  0.00000000000E+00 0. -1.
         13    1    3    3    0    0  0.74650566328E+02 -0.32038027797E+02 -0.10780271707E+03  0.13498358451E+03  0.00000000000E+00 0.  1.
         21    1    1    2  502  501  0.33670476788E+02  0.55232413681E+01 -0.25831177859E+02  0.42795524906E+02  0.00000000000E+00 0.  1.
<scales pt_clust_5="13000.00000" pt_clust_6="13000.00000" pt_clust_7="13000.00000" pt_clust_8="13000.00000" pt_clust_9="34.12048"></scales>
<clustering>
<clus scale="   34.120">  1  9  2 -1</clus>
<clus scale="   89.440">  7  8 -1 -1</clus>
<clus scale="   91.320">  5  6 -1 -1</clus>
<clus scale="  118.647">  1  7  2 -1</clus>
<clus scale="  120.071">  2  5  1 -1</clus>
</clustering>
</event>
<event>
 9    1  0.1713970E-005  0.1007855E+03  0.7546771E-02  0.1281106E+00
         -1   -1    0    0    0  501 -0.00000000000E+00  0.00000000000E+00  0.24542896245E+02  0.24542896245E+02  0.00000000000E+00 0.  1.
          1   -1    0    0  502    0  0.00000000000E+00 -0.00000000000E+00 -0.64675994031E+03  0.64675994031E+03  0.00000000000E+00 0. -1.
         23    2    1    2    0    0 -0.23405664493E+02  0.25059184318E+02 -0.14026885758E+03  0.17268335525E+03  0.94701641623E+02 0.  0.
         23    2    1    2    0    0  0.58743345944E+01 -0.35478246320E+02 -0.45298395229E+03  0.46319588403E+03  0.89792829232E+02 0.  0.
        -13    1    3    3    0    0 -0.54200817162E+02  0.28672572746E+02 -0.56573054893E+02  0.83428745339E+02  0.00000000000E+00 0.  1.
         13    1    3    3    0    0  0.30795152669E+02 -0.36133884277E+01 -0.83695802685E+02  0.89254609914E+02  0.00000000000E+00 0. -1.
        -13    1    4    4    0    0  0.13945635340E+02  0.28583364816E+02 -0.13142075894E+03  0.13521429425E+03  0.00000000000E+00 0.  1.
         13    1    4    4    0    0 -0.80713007457E+01 -0.64061611136E+02 -0.32156319336E+03  0.32798158978E+03  0.00000000000E+00 0. -1.
         21    1    1    2  502  501  0.17531329899E+02  0.10419062002E+02 -0.28964234195E+02  0.35423597270E+02  0.00000000000E+00 0.  1.
<scales pt_clust_5="13000.00000" pt_clust_6="13000.00000" pt_clust_7="13000.00000" pt_clust_8="13000.00000" pt_clust_9="20.39373"></scales>
<clustering>
<clus scale="   20.394">  1  9  2 -1</clus>
<clus scale="   89.793">  7  8 -1 -1</clus>
<clus scale="   94.702">  5  6 -1 -1</clus>
<clus scale="   96.188">  2  7  1 -1</clus>
<clus scale="   96.188">  2  5  1 -1</clus>
</clustering>
</event>
<event>
 9    1  0.1713970E-005  0.1152462E+03  0.7546771E-02  0.1263295E+00
         -1   -1    0    0    0  501 -0.00000000000E+00  0.00000000000E+00  0.33958779652E+03  0.33958779652E+03  0.00000000000E+00 0.  1.
          1   -1    0    0  502    0  0.00000000000E+00 -0.00000000000E+00 -0.90391712442E+02  0.90391712442E+02  0.00000000000E+00 0. -1.
         23    2    1    2    0    0 -0.27708629760E+02  0.74997261885E+01  0.27410305412E+03  0.29858686718E+03  0.11488089013E+03 0.  0.
         23    2    1    2    0    0  0.73618163172E+01  0.61656881803E+00 -0.45517635831E+02  0.10131496557E+03  0.90212474641E+02 0.  0.
        -11    1    4    4    0    0  0.41467190609E+02 -0.24491237623E+02 -0.23733475349E+02  0.53690096568E+02  0.00000000000E+00 0. -1.
         11    1    4    4    0    0 -0.34105374291E+02  0.25107806441E+02 -0.21784160482E+02  0.47624869005E+02  0.00000000000E+00 0.  1.
        -13    1    3    3    0    0  0.15262565010E+01  0.56669067320E+02  0.95627686419E+02  0.11116819266E+03  0.00000000000E+00 0.  1.
         13    1    3    3    0    0 -0.29234886261E+02 -0.49169341132E+02  0.17847536770E+03  0.18741867452E+03  0.00000000000E+00 0. -1.
         21    1    1    2  502  501  0.20346813443E+02 -0.81162950065E+01  0.20610665791E+02  0.30077676211E+02  0.00000000000E+00 0. -1.
<scales pt_clust_5="13000.00000" pt_clust_6="13000.00000" pt_clust_7="13000.00000" pt_clust_8="13000.00000" pt_clust_9="21.90587"></scales>
<clustering>
<clus scale="   21.906">  1  9  2 -1</clus>
<clus scale="   90.212">  5  6 -1 -1</clus>
<clus scale="   90.677">  2  5  1 -1</clus>
<clus scale="  114.881">  7  8 -1 -1</clus>
<clus scale="   90.677">  2  5  1 -1</clus>
</clustering>
</event>
<event>
 9    1  0.1713970E-005  0.9397615E+02  0.7546771E-02  0.1294108E+00
         -2   -1    0    0    0  501 -0.00000000000E+00  0.00000000000E+00  0.36392201011E+02  0.36392201011E+02  0.00000000000E+00 0.  1.
          2   -1    0    0  502    0  0.00000000000E+00 -0.00000000000E+00 -0.32183907564E+03  0.32183907564E+03  0.00000000000E+00 0. -1.
         23    2    1    2    0    0 -0.16473229194E+02 -0.73564527220E+01 -0.10689297814E+03  0.14295848572E+03  0.93196218730E+02 0.  0.
         23    2    1    2    0    0 -0.48028913395E+01  0.14260022221E+02 -0.16362574824E+03  0.18838074403E+03  0.92127646415E+02 0.  0.
        -11    1    4    4    0    0 -0.43159988215E+02 -0.71300358655E+01 -0.11403928254E+03  0.12214163891E+03  0.00000000000E+00 0.  1.
         11    1    4    4    0    0  0.38357096876E+02  0.21390058087E+02 -0.49586465705E+02  0.66239105118E+02  0.00000000000E+00 0. -1.
        -13    1    3    3    0    0 -0.68695840444E+00 -0.43900932816E+02 -0.21813445113E+02  0.49026423505E+02  0.00000000000E+00 0.  1.
         13    1    3    3    0    0 -0.15786270789E+02  0.36544480094E+02 -0.85079533031E+02  0.93932062213E+02  0.00000000000E+00 0. -1.
         21    1    1    2  502  501  0.21276120533E+02 -0.69035694992E+01 -0.14928148243E+02  0.26892046905E+02  0.00000000000E+00 0. -1.
<scales pt_clust_5="13000.00000" pt_clust_6="13000.00000" pt_clust_7="13000.00000" pt_clust_8="13000.00000" pt_clust_9="22.36812"></scales>
<clustering>
<clus scale="   22.368">  1  9  2 -1</clus>
<clus scale="   92.128">  5  6 -1 -1</clus>
<clus scale="   92.917">  2  5  1 -1</clus>
<clus scale="   93.196">  7  8 -1 -1</clus>
<clus scale="   92.917">  2  5  1 -1</clus>
</clustering>
</event>
<event>
 9    1  0.1713970E-005  0.1055650E+03  0.7546771E-02  0.1269417E+00
         -1   -1    0    0    0  501 -0.00000000000E+00  0.00000000000E+00  0.26553172524E+03  0.26553172524E+03  0.00000000000E+00 0.  1.
          1   -1    0    0  502    0  0.00000000000E+00 -0.00000000000E+00 -0.62897708369E+02  0.62897708369E+02  0.00000000000E+00 0. -1.
         23    2    1    2    0    0  0.55882646586E+02  0.23506537007E+02  0.11551137271E+03  0.15949162106E+03  0.91756593723E+02 0.  0.
         23    2    1    2    0    0 -0.46337708071E+02 -0.29068853334E+01  0.30713260012E+02  0.10813098628E+03  0.92700445967E+02 0.  0.
        -13    1    4    4    0    0 -0.36740980565E+01 -0.21784070703E+02 -0.26374823414E+02  0.34404593342E+02  0.00000000000E+00 0. -1.
         13    1    4    4    0    0 -0.42663610015E+02  0.18877185370E+02  0.57088083426E+02  0.73726392942E+02  0.00000000000E+00 0.  1.
        -13    1    3    3    0    0  0.84682859135E+01 -0.29251862845E+02  0.94299814762E+01  0.31879584327E+02  0.00000000000E+00 0. -1.
         13    1    3    3    0    0  0.47414360673E+02  0.52758399852E+02  0.10608139124E+03  0.12761203674E+03  0.00000000000E+00 0.  1.
         21    1    1    2  502  501 -0.95449385151E+01 -0.20599651674E+02  0.56409384150E+02  0.60806826266E+02  0.00000000000E+00 0. -1.
<scales pt_clust_5="13000.00000" pt_clust_6="13000.00000" pt_clust_7="13000.00000" pt_clust_8="13000.00000" pt_clust_9="22.70356"></scales>
<clustering>
<clus scale="   22.704">  1  9  2 -1</clus>
<clus scale="   91.757">  7  8 -1 -1</clus>
<clus scale="   92.700">  5  6 -1 -1</clus>
<clus scale="  104.737">  1  7  2 -1</clus>
<clus scale="  105.565">  2  5  1 -1</clus>
</clustering>
</event>
<event>
 9    1  0.1713970E-005  0.2302635E+03  0.7546771E-02  0.1126856E+00
          2   -1    0    0  502    0  0.00000000000E+00  0.00000000000E+00  0.10150175256E+04  0.10150175256E+04  0.00000000000E+00 0. -1.
         -2   -1    0    0    0  501 -0.00000000000E+00 -0.00000000000E+00 -0.83497758833E+02  0.83497758833E+02  0.00000000000E+00 0.  1.
         23    2    1    2    0    0 -0.17075945240E+03  0.49974331014E+02  0.25362171500E+03  0.32067293663E+03  0.82770366832E+02 0.  0.
         23    2    1    2    0    0  0.20481185606E+03 -0.12878037410E+03  0.62732687196E+03  0.67820599474E+03  0.88837412590E+02 0.  0.
        -11    1    3    3    0    0 -0.14395684456E+03  0.72503757944E+02  0.20602880080E+03  0.26158791021E+03  0.00000000000E+00 0. -1.
         11    1    3    3    0    0 -0.26802607841E+02 -0.22529426931E+02  0.47592914198E+02  0.59085026417E+02  0.00000000000E+00 0.  1.
        -11    1    4    4    0    0  0.98832329059E+02 -0.11841369771E+02  0.26059238244E+03  0.27895597698E+03  0.00000000000E+00 0. -1.
         11    1    4    4    0    0  0.10597952700E+03 -0.11693900433E+03  0.36673448952E+03  0.39925001776E+03  0.00000000000E+00 0.  1.
         21    1    1    2  502  501 -0.34052403664E+02  0.78806043084E+02  0.50571179774E+02  0.99636353032E+02  0.00000000000E+00 0.  1.
<scales pt_clust_5="13000.00000" pt_clust_6="13000.00000" pt_clust_7="13000.00000" pt_clust_8="13000.00000" pt_clust_9="85.84846"></scales>
<clustering>
<clus scale="   82.770">  5  6 -1 -1</clus>
<clus scale="   85.848">  2  9  1 -1</clus>
<clus scale="   88.837">  7  8 -1 -1</clus>
<clus scale="  227.992">  2  5  1 -1</clus>
<clus scale="  230.264">  1  5  2 -1</clus>
</clustering>
</event>
<event>
 9    1  0.1713970E-005  0.1238124E+03  0.7546771E-02  0.1236941E+00
         -1   -1    0    0    0  501 -0.00000000000E+00  0.00000000000E+00  0.13373259275E+03  0.13373259275E+03  0.00000000000E+00 0.  1.
          1   -1    0    0  502    0  0.00000000000E+00 -0.00000000000E+00 -0.43405287542E+03  0.43405287542E+03  0.00000000000E+00 0. -1.
         23    2    1    2    0    0 -0.21443361478E+02  0.73883076590E+02  0.39745766541E+02  0.12550395139E+03  0.90845963585E+02 0.  0.
         23    2    1    2    0    0 -0.31540213634E+01 -0.85349246640E+02 -0.37663555850E+03  0.39674215678E+03  0.90860075304E+02 0.  0.
        -11    1    3    3    0    0 -0.52748107946E+02  0.65319514088E+02  0.16452263986E+02  0.85555121430E+02  0.00000000000E+00 0.  1.
         11    1    3    3    0    0  0.31304746469E+02  0.85635625020E+01  0.23293502555E+02  0.39948829964E+02  0.00000000000E+00 0. -1.
        -13    1    4    4    0    0 -0.27623872439E+02  0.62599308971E+01 -0.62734540882E+02  0.68832315689E+02  0.00000000000E+00 0.  1.
         13    1    4    4    0    0  0.24469851076E+02 -0.91609177537E+02 -0.31390101762E+03  0.32790984109E+03  0.00000000000E+00 0. -1.
         21    1    1    2  502  501  0.24597382841E+02  0.11466170050E+02  0.36569509301E+02  0.45539359995E+02  0.00000000000E+00 0. -1.
<scales pt_clust_5="13000.00000" pt_clust_6="13000.00000" pt_clust_7="13000.00000" pt_clust_8="13000.00000" pt_clust_9="27.13861"></scales>
<clustering>
<clus scale="   27.139">  1  9  2 -1</clus>
<clus scale="   90.846">  5  6 -1 -1</clus>
<clus scale="   90.860">  7  8 -1 -1</clus>
<clus scale="  123.802">  1  5  2 -1</clus>
<clus scale="  123.812">  2  5  1 -1</clus>
</clustering>
</event>
<event>
 9    1  0.1713970E-005  0.9903749E+02  0.7546771E-02  0.1282429E+00
         -2   -1    0    0    0  501 -0.00000000000E+00  0.00000000000E+00  0.70423779111E+02  0.70423779111E+02  0.00000000000E+00 0.  1.
          2   -1    0    0  502    0  0.00000000000E+00 -0.00000000000E+00 -0.25512628387E+03  0.25512628387E+03  0.00000000000E+00 0. -1.
         23    2    1    2    0    0  0.21874301524E+02  0.47728038083E+02 -0.84430216425E+02  0.13426150861E+03  0.90228823351E+02 0.  0.
         23    2    1    2    0    0 -0.19834365117E+02 -0.27083601389E+02 -0.12586161927E+03  0.15834666667E+03  0.90031084285E+02 0.  0.
        -11    1    4    4    0    0  0.27667929754E+02  0.82213379239E+01 -0.74811488442E+02  0.80186429881E+02  0.00000000000E+00 0. -1.
         11    1    4    4    0    0 -0.47502294871E+02 -0.35304939313E+02 -0.51050130824E+02  0.78160236789E+02  0.00000000000E+00 0.  1.
        -13    1    3    3    0    0 -0.13821110696E+02 -0.21514607225E+02 -0.13550456330E+02  0.28939873733E+02  0.00000000000E+00 0.  1.
         13    1    3    3    0    0  0.35695412220E+02  0.69242645308E+02 -0.70879760095E+02  0.10532163488E+03  0.00000000000E+00 0. -1.
         21    1    1    2  502  501 -0.20399364076E+01 -0.20644436694E+02  0.25589330936E+02  0.32941887692E+02  0.00000000000E+00 0.  1.
<scales pt_clust_5="13000.00000" pt_clust_6="13000.00000" pt_clust_7="13000.00000" pt_clust_8="13000.00000" pt_clust_9="20.74498"></scales>
<clustering>
<clus scale="   20.745">  1  9  2 -1</clus>
<clus scale="   90.031">  5  6 -1 -1</clus>
<clus scale="   90.229">  7  8 -1 -1</clus>
<clus scale="   98.857">  2  5  1 -1</clus>
<clus scale="   98.857">  2  5  1 -1</clus>
</clustering>
</event>
<event>
 9    1  0.1713970E-005  0.9864959E+02  0.7546771E-02  0.1285735E+00
         -1   -1    0    0    0  501 -0.00000000000E+00  0.00000000000E+00  0.18161111534E+03  0.18161111534E+03  0.00000000000E+00 0.  1.
          1   -1    0    0  502    0  0.00000000000E+00 -0.00000000000E+00 -0.91034049239E+02  0.91034049239E+02  0.00000000000E+00 0. -1.
         23    2    1    2    0    0 -0.35471105314E+02 -0.46470287298E+01  0.70742710281E+02  0.11735585920E+03  0.86533649192E+02 0.  0.
         23    2    1    2    0    0  0.29414287873E+02 -0.29529248624E+02 -0.19845397359E+02  0.10257132189E+03  0.91596175802E+02 0.  0.
        -13    1    4    4    0    0 -0.30830164473E+02  0.47222434983E+01 -0.36410410458E+01  0.31401525520E+02  0.00000000000E+00 0.  1.
         13    1    4    4    0    0  0.60244452346E+02 -0.34251492123E+02 -0.16204356313E+02  0.71169796365E+02  0.00000000000E+00 0. -1.
        -13    1    3    3    0    0 -0.50724820796E+02 -0.33528573381E+02  0.42608896786E+02  0.74247496679E+02  0.00000000000E+00 0.  1.
         13    1    3    3    0    0  0.15253715483E+02  0.28881544651E+02  0.28133813495E+02  0.43108362521E+02  0.00000000000E+00 0. -1.
         21    1    1    2  502  501  0.60568174402E+01  0.34176277354E+02  0.39679753182E+02  0.52717983496E+02  0.00000000000E+00 0. -1.
<scales pt_clust_5="13000.00000" pt_clust_6="13000.00000" pt_clust_7="13000.00000" pt_clust_8="13000.00000" pt_clust_9="34.70883"></scales>
<clustering>
<clus scale="   34.709">  1  9  2 -1</clus>
<clus scale="   86.534">  7  8 -1 -1</clus>
<clus scale="   91.596">  5  6 -1 -1</clus>
<clus scale="   93.968">  1  7  2 -1</clus>
<clus scale="   98.650">  2  5  1 -1</clus>
</clustering>
</event>
<event>
 9    1  0.1713970E-005  0.1202949E+03  0.7546771E-02  0.1244132E+00
          1   -1    0    0  502    0  0.00000000000E+00  0.00000000000E+00  0.23096974159E+02  0.23096974159E+02  0.00000000000E+00 0. -1.
         -1   -1    0    0    0  501 -0.00000000000E+00 -0.00000000000E+00 -0.86928439267E+03  0.86928439267E+03  0.00000000000E+00 0.  1.
         23    2    1    2    0    0  0.19148904472E+02  0.93511593895E+02 -0.44215633536E+03  0.46211850562E+03  0.94552575875E+02 0.  0.
         23    2    1    2    0    0 -0.43396253014E+01 -0.61886064041E+02 -0.25892626284E+03  0.28101508814E+03  0.89877432668E+02 0.  0.
        -11    1    4    4    0    0 -0.21762063361E+02 -0.79010377604E+02 -0.22289133647E+03  0.23748005189E+03  0.00000000000E+00 0. -1.
         11    1    4    4    0    0  0.17422438060E+02  0.17124313563E+02 -0.36034926368E+02  0.43535036250E+02  0.00000000000E+00 0.  1.
        -13    1    3    3    0    0  0.52925782124E+02  0.27757894744E+02 -0.17497626436E+03  0.18490087134E+03  0.00000000000E+00 0. -1.
         13    1    3    3    0    0 -0.33776877652E+02  0.65753699150E+02 -0.26718007100E+03  0.27721763428E+03  0.00000000000E+00 0.  1.
         21    1    1    2  502  501 -0.14809279170E+02 -0.31625529853E+02 -0.14510482032E+03  0.14924777307E+03  0.00000000000E+00 0.  1.
<scales pt_clust_5="13000.00000" pt_clust_6="13000.00000" pt_clust_7="13000.00000" pt_clust_8="13000.00000" pt_clust_9="34.92118"></scales>
<clustering>
<clus scale="   34.921">  2  9  1 -1</clus>
<clus scale="   89.877">  5  6 -1 -1</clus>
<clus scale="   94.553">  7  8 -1 -1</clus>
<clus scale="  116.656">  1  5  2 -1</clus>
<clus scale="  116.656">  1  5  2 -1</clus>
</clustering>
</event>
<event>
 9    1  0.1713970E-005  0.1025630E+03  0.7546771E-02  0.1276160E+00
         -1   -1    0    0    0  501 -0.00000000000E+00  0.00000000000E+00  0.45261895145E+02  0.45261895145E+02  0.00000000000E+00 0.  1.
          1   -1    0    0  502    0  0.00000000000E+00 -0.00000000000E+00 -0.44501559959E+03  0.44501559959E+03  0.00000000000E+00 0. -1.
         23    2    1    2    0    0  0.21199582877E+02  0.24866820394E+02 -0.61444922188E+02  0.11716799327E+03  0.94260697613E+02 0.  0.
         23    2    1    2    0    0 -0.41824671657E+02 -0.12702352051E+02 -0.33354314455E+03  0.34869475428E+03  0.91795149526E+02 0.  0.
        -13    1    3    3    0    0  0.48741865248E+02  0.44441765033E+02 -0.39724522349E+02  0.76999205080E+02  0.00000000000E+00 0.  1.
         13    1    3    3    0    0 -0.27542282371E+02 -0.19574944639E+02 -0.21720399838E+02  0.40168788193E+02  0.00000000000E+00 0. -1.
        -13    1    4    4    0    0 -0.86518427466E+00  0.21866876218E+02 -0.17175760863E+02  0.27819338249E+02  0.00000000000E+00 0.  1.
         13    1    4    4    0    0 -0.40959487382E+02 -0.34569228270E+02 -0.31636738369E+03  0.32087541603E+03  0.00000000000E+00 0. -1.
         21    1    1    2  502  501  0.20625088780E+02 -0.12164468343E+02 -0.47656377040E+01  0.24414747182E+02  0.00000000000E+00 0.  1.
<scales pt_clust_5="13000.00000" pt_clust_6="13000.00000" pt_clust_7="13000.00000" pt_clust_8="13000.00000" pt_clust_9="23.94512"></scales>
<clustering>
<clus scale="   23.945">  1  9  2 -1</clus>
<clus scale="   91.795">  7  8 -1 -1</clus>
<clus scale="   94.261">  5  6 -1 -1</clus>
<clus scale="  100.302">  2  7  1 -1</clus>
<clus scale="  100.302">  2  5  1 -1</clus>
</clustering>
</event>
<event>
 9    1  0.1713970E-005  0.1598950E+03  0.7546771E-02  0.1211276E+00
          2   -1    0    0  502    0  0.00000000000E+00  0.00000000000E+00  0.10912533964E+04  0.10912533964E+04  0.00000000000E+00 0. -1.
         -2   -1    0    0    0  501 -0.00000000000E+00 -0.00000000000E+00 -0.67343013047E+02  0.67343013047E+02  0.00000000000E+00 0.  1.
         23    2    1    2    0    0  0.11344593007E+03 -0.70756544321E+02  0.66327270380E+02  0.17422316732E+03  0.89877347654E+02 0.  0.
         23    2    1    2    0    0  0.11439975438E+02  0.35953010007E+02  0.38878393723E+03  0.40098633988E+03  0.90628929988E+02 0.  0.
        -13    1    4    4    0    0  0.31300841919E+02 -0.13925456050E+02  0.72604092079E+02  0.80280852123E+02  0.00000000000E+00 0.  1.
         13    1    4    4    0    0 -0.19860866481E+02  0.49878466057E+02  0.31617984515E+03  0.32070548775E+03  0.00000000000E+00 0. -1.
        -13    1    3    3    0    0  0.75710095025E+02 -0.82195309391E+02  0.74029577541E+02  0.13404650583E+03  0.00000000000E+00 0. -1.
         13    1    3    3    0    0  0.37735835044E+02  0.11438765070E+02 -0.77023071612E+01  0.40176661489E+02  0.00000000000E+00 0.  1.
         21    1    1    2  502  501 -0.12488590551E+03  0.34803534314E+02  0.56879917578E+03  0.58338690229E+03  0.00000000000E+00 0. -1.
<scales pt_clust_5="13000.00000" pt_clust_6="13000.00000" pt_clust_7="13000.00000" pt_clust_8="13000.00000" pt_clust_9="132.24405"></scales>
<clustering>
<clus scale="   89.877">  7  8 -1 -1</clus>
<clus scale="   90.629">  5  6 -1 -1</clus>
<clus scale="   98.169">  1  5  2 -1</clus>
<clus scale="  132.244">  1  9  2 -1</clus>
<clus scale="   98.169">  1  5  2 -1</clus>
</clustering>
</event>
<event>
 9    1  0.1713970E-005  0.9450955E+02  0.7546771E-02  0.1292312E+00
          2   -1    0    0  502    0  0.00000000000E+00  0.00000000000E+00  0.46204560591E+03  0.46204560591E+03  0.00000000000E+00 0. -1.
         -2   -1    0    0    0  501 -0.00000000000E+00 -0.00000000000E+00 -0.36020955449E+02  0.36020955449E+02  0.00000000000E+00 0.  1.
         23    2    1    2    0    0  0.55129123382E+01 -0.30289662105E+02  0.79304436448E+02  0.12461058596E+03  0.91053548315E+02 0.  0.
         23    2    1    2    0    0 -0.25643197487E+02  0.66508916212E+01  0.17564486215E+03  0.19958592086E+03  0.91003375041E+02 0.  0.
        -11    1    4    4    0    0 -0.46415324002E+02  0.78455313045E+01  0.17217245226E+03  0.17849170283E+03  0.00000000000E+00 0. -1.
         11    1    4    4    0    0  0.20772126515E+02 -0.11946396833E+01  0.34724098991E+01  0.21094218033E+02  0.00000000000E+00 0.  1.
        -13    1    3    3    0    0 -0.63548716623E+00 -0.62227610055E+02  0.41792123828E+02  0.74961729643E+02  0.00000000000E+00 0.  1.
         13    1    3    3    0    0  0.61483995044E+01  0.31937947950E+02  0.37512312620E+02  0.49648856319E+02  0.00000000000E+00 0. -1.
         21    1    1    2  502  501  0.20130285149E+02  0.23638770484E+02  0.17107535186E+03  0.17387005454E+03  0.00000000000E+00 0.  1.
<scales pt_clust_5="13000.00000" pt_clust_6="13000.00000" pt_clust_7="13000.00000" pt_clust_8="13000.00000" pt_clust_9="31.04867"></scales>
<clustering>
<clus scale="   31.049">  1  9  2 -1</clus>
<clus scale="   91.003">  5  6 -1 -1</clus>
<clus scale="   91.054">  7  8 -1 -1</clus>
<clus scale="   94.461">  1  5  2 -1</clus>
<clus scale="   31.049">  1  5  2 -1</clus>
</clustering>
</event>
<event>
 9    1  0.1713970E-005  0.9324334E+02  0.7546771E-02  0.1295704E+00
          1   -1    0    0  502    0  0.00000000000E+00  0.00000000000E+00  0.10427107733E+03  0.10427107733E+03  0.00000000000E+00 0. -1.
         -1   -1    0    0    0  501 -0.00000000000E+00 -0.00000000000E+00 -0.14802162527E+03  0.14802162527E+03  0.00000000000E+00 0.  1.
         23    2    1    2    0    0  0.16278502263E+02  0.75746164593E+01 -0.73742745681E+02  0.11902344714E+03  0.91685462197E+02 0.  0.
         23    2    1    2    0    0 -0.12782871073E+02  0.15433064354E+02  0.47269436731E+02  0.10428519432E+03  0.90771255562E+02 0.  0.
        -13    1    3    3    0    0  0.13490308520E+01 -0.22230760701E+02  0.13213536673E+02  0.25896412048E+02  0.00000000000E+00 0. -1.
         13    1    3    3    0    0  0.14929471411E+02  0.29805377160E+02 -0.86956282354E+02  0.93127035092E+02  0.00000000000E+00 0.  1.
        -13    1    4    4    0    0 -0.42132776309E+02 -0.18468732578E+02  0.34976159858E+02  0.57789243644E+02  0.00000000000E+00 0. -1.
         13    1    4    4    0    0  0.29349905236E+02  0.33901796931E+02  0.12293276873E+02  0.46495950671E+02  0.00000000000E+00 0.  1.
         21    1    1    2  502  501 -0.34956311898E+01 -0.23007680813E+02 -0.17277238990E+02  0.28984061153E+02  0.00000000000E+00 0.  1.
<scales pt_clust_5="13000.00000" pt_clust_6="13000.00000" pt_clust_7="13000.00000" pt_clust_8="13000.00000" pt_clust_9="23.27172"></scales>
<clustering>
<clus scale="   23.272">  2  9  1 -1</clus>
<clus scale="   90.771">  7  8 -1 -1</clus>
<clus scale="   91.685">  5  6 -1 -1</clus>
<clus scale="   92.345">  1  7  2 -1</clus>
<clus scale="   92.345">  1  5  2 -1</clus>
</clustering>
</event>
<event>
 9    1  0.1713970E-005  0.9526953E+02  0.7546771E-02  0.1292963E+00
         -1   -1    0    0    0  501 -0.00000000000E+00  0.00000000000E+00  0.27780477159E+02  0.27780477159E+02  0.00000000000E+00 0.  1.
          1   -1    0    0  502    0  0.00000000000E+00 -0.00000000000E+00 -0.57142466348E+03  0.57142466348E+03  0.00000000000E+00 0. -1.
         23    2    1    2    0    0  0.15264994611E+02  0.11509379027E+02 -0.16429723189E+03  0.18815029945E+03  0.89674237718E+02 0.  0.
         23    2    1    2    0    0  0.79307056603E+01 -0.18417452673E+02 -0.37418489346E+03  0.38630794510E+03  0.93900986684E+02 0.  0.
        -11    1    4    4    0    0 -0.36395576076E+02  0.16138417322E+02 -0.15588891838E+03  0.16089263919E+03  0.00000000000E+00 0.  1.
         11    1    4    4    0    0  0.44326281737E+02 -0.34555869995E+02 -0.21829597508E+03  0.22541530591E+03  0.00000000000E+00 0. -1.
        -11    1    3    3    0    0  0.13933155095E+02 -0.32025061196E+02 -0.12396039671E+03  0.12878632422E+03  0.00000000000E+00 0. -1.
         11    1    3    3    0    0  0.13318395164E+01  0.43534440222E+02 -0.40336835184E+02  0.59363975226E+02  0.00000000000E+00 0.  1.
         21    1    1    2  502  501 -0.23195700271E+02  0.69080736457E+01 -0.51620609733E+01  0.24746896090E+02  0.00000000000E+00 0. -1.
<scales pt_clust_5="13000.00000" pt_clust_6="13000.00000" pt_clust_7="13000.00000" pt_clust_8="13000.00000" pt_clust_9="24.20252"></scales>
<clustering>
<clus scale="   24.203">  1  9  2 -1</clus>
<clus scale="   89.674">  7  8 -1 -1</clus>
<clus scale="   91.106">  1  7  2 -1</clus>
<clus scale="   93.901">  5  6 -1 -1</clus>
<clus scale="   95.270">  2  5  1 -1</clus>
</clustering>
</event>
<event>
 9    1  0.1713970E-005  0.9644932E+02  0.7546771E-02  0.1288383E+00
         -2   -1    0    0    0  501 -0.00000000000E+00  0.00000000000E+00  0.18748579907E+02  0.18748579907E+02  0.00000000000E+00 0.  1.
          2   -1    0    0  502    0  0.00000000000E+00 -0.00000000000E+00 -0.65666353906E+03  0.65666353906E+03  0.00000000000E+00 0. -1.
         23    2    1    2    0    0 -0.41779078223E+02 -0.16237189607E+02 -0.22308751492E+03  0.24428020491E+03  0.88857422283E+02 0.  0.
         23    2    1    2    0    0  0.31247207628E+02 -0.28457511713E+01 -0.35323534336E+03  0.36579688657E+03  0.89708796334E+02 0.  0.
        -11    1    3    3    0    0 -0.27055019038E+02  0.24866676308E+02 -0.33483120572E+02  0.49713630012E+02  0.00000000000E+00 0.  1.
         11    1    3    3    0    0 -0.14724059185E+02 -0.41103865914E+02 -0.18960439435E+03  0.19456657490E+03  0.00000000000E+00 0. -1.
        -13    1    4    4    0    0 -0.14070076580E+02  0.33756331052E+02 -0.12447882833E+03  0.12973987684E+03  0.00000000000E+00 0.  1.
         13    1    4    4    0    0  0.45317284207E+02 -0.36602082224E+02 -0.22875651504E+03  0.23605700973E+03  0.00000000000E+00 0. -1.
         21    1    1    2  502  501  0.10531870595E+02  0.19082940778E+02 -0.61592100871E+02  0.65335027487E+02  0.00000000000E+00 0.  1.
<scales pt_clust_5="13000.00000" pt_clust_6="13000.00000" pt_clust_7="13000.00000" pt_clust_8="13000.00000" pt_clust_9="21.79631"></scales>
<clustering>
<clus scale="   21.796">  1  9  2 -1</clus>
<clus scale="   88.857">  5  6 -1 -1</clus>
<clus scale="   89.709">  7  8 -1 -1</clus>
<clus scale="   95.658">  1  5  2 -1</clus>
<clus scale="   96.449">  2  5  1 -1</clus>
</clustering>
</event>
<event>
 9    1  0.1713970E-005  0.9783284E+02  0.7546771E-02  0.1285013E+00
         -2   -1    0    0    0  501 -0.00000000000E+00  0.00000000000E+00  0.18238536721E+03  0.18238536721E+03  0.00000000000E+00 0.  1.
          2   -1    0    0  502    0  0.00000000000E+00 -0.00000000000E+00 -0.39246414827E+03  0.39246414827E+03  0.00000000000E+00 0. -1.
         23    2    1    2    0    0  0.22930341872E+02  0.23182828509E+02 -0.16580206991E+03  0.19214901681E+03  0.91474991979E+02 0.  0.
         23    2    1    2    0    0 -0.44433827511E+02  0.13818250284E+02 -0.19802075461E+03  0.22311130534E+03  0.91657657864E+02 0.  0.
        -11    1    3    3    0    0  0.20712199768E+02 -0.32999150084E+02 -0.49717054814E+02  0.63164267310E+02  0.00000000000E+00 0.  1.
         11    1    3    3    0    0  0.22181421036E+01  0.56181978592E+02 -0.11608501510E+03  0.12898474950E+03  0.00000000000E+00 0. -1.
        -13    1    4    4    0    0 -0.18489962716E+01 -0.26612664698E+02 -0.14369491687E+02  0.30300742580E+02  0.00000000000E+00 0.  1.
         13    1    4    4    0    0 -0.42584831239E+02  0.40430914982E+02 -0.18365126292E+03  0.19281056276E+03  0.00000000000E+00 0. -1.
         21    1    1    2  502  501  0.21503485639E+02 -0.37001078793E+02  0.15374404347E+03  0.15958919333E+03  0.00000000000E+00 0.  1.
<scales pt_clust_5="13000.00000" pt_clust_6="13000.00000" pt_clust_7="13000.00000" pt_clust_8="13000.00000" pt_clust_9="42.79579"></scales>
<clustering>
<clus scale="   42.796">  1  9  2 -1</clus>
<clus scale="   91.475">  5  6 -1 -1</clus>
<clus scale="   91.658">  7  8 -1 -1</clus>
<clus scale="   97.662">  1  5  2 -1</clus>
<clus scale="   97.833">  2  5  1 -1</clus>
</clustering>
</event>
<event>
 9    1  0.1713970E-005  0.9671046E+02  0.7546771E-02  0.1289219E+00
         -2   -1    0    0    0  501 -0.00000000000E+00  0.00000000000E+00  0.14942462576E+03  0.14942462576E+03  0.00000000000E+00 0.  1.
          2   -1    0    0  502    0  0.00000000000E+00 -0.00000000000E+00 -0.14336716004E+03  0.14336716004E+03  0.00000000000E+00 0. -1.
         23    2    1    2    0    0 -0.33120617057E+02 -0.19421450158E+02  0.11133838582E+02  0.99972967445E+02  0.91632220631E+02 0.  0.
         23    2    1    2    0    0 -0.47735689201E+02  0.35197082101E+02 -0.22554463117E+02  0.10860423254E+03  0.88139916652E+02 0.  0.
        -11    1    4    4    0    0 -0.56122092999E+02  0.29696336232E+01  0.15241699980E+02  0.58230726123E+02  0.00000000000E+00 0.  1.
         11    1    4    4    0    0  0.83864037981E+01  0.32227448478E+02 -0.37796163097E+02  0.50373506418E+02  0.00000000000E+00 0. -1.
        -13    1    3    3    0    0 -0.10375200662E+02 -0.53145736335E+02 -0.84875445622E+01  0.54810149535E+02  0.00000000000E+00 0.  1.
         13    1    3    3    0    0 -0.22745416395E+02  0.33724286176E+02  0.19621383144E+02  0.45162817910E+02  0.00000000000E+00 0. -1.
         21    1    1    2  502  501  0.80856306258E+02 -0.15775631943E+02  0.17478090262E+02  0.84214585816E+02  0.00000000000E+00 0.  1.
<scales pt_clust_5="13000.00000" pt_clust_6="13000.00000" pt_clust_7="13000.00000" pt_clust_8="13000.00000" pt_clust_9="82.38090"></scales>
<clustering>
<clus scale="   82.381">  1  9  2 -1</clus>
<clus scale="   88.140">  5  6 -1 -1</clus>
<clus scale="   91.632">  7  8 -1 -1</clus>
<clus scale="   93.408">  2  5  1 -1</clus>
<clus scale="   93.408">  2  5  1 -1</clus>
</clustering>
</event>
<event>
 9    1  0.2746766E-005  0.9164840E+02  0.7546771E-02  0.1299169E+00
         -2   -1    0    0    0  501 -0.00000000000E+00  0.00000000000E+00  0.16167054987E+03  0.16167054987E+03  0.00000000000E+00 0.  1.
          2   -1    0    0  502    0  0.00000000000E+00 -0.00000000000E+00 -0.25766824145E+03  0.25766824145E+03  0.00000000000E+00 0. -1.
         23    2    1    2    0    0  0.19328735455E+01 -0.80693780230E+01  0.13097455122E+03  0.15966752475E+03  0.90942479234E+02 0.  0.
         23    2    1    2    0    0 -0.70570248436E+01 -0.16001172102E+02 -0.21025198896E+03  0.22991870034E+03  0.91383099056E+02 0.  0.
        -11    1    4    4    0    0 -0.15530475839E+02  0.27006261204E+02 -0.16099590928E+03  0.16398236682E+03  0.00000000000E+00 0. -1.
         11    1    4    4    0    0  0.84734509956E+01 -0.43007433306E+02 -0.49256079681E+02  0.65936333511E+02  0.00000000000E+00 0.  1.
        -11    1    3    3    0    0  0.31803558651E+02  0.29053151045E+02  0.53135131662E+02  0.68402442539E+02  0.00000000000E+00 0.  1.
         11    1    3    3    0    0 -0.29870685106E+02 -0.37122529068E+02  0.77839419558E+02  0.91265082206E+02  0.00000000000E+00 0. -1.
         21    1    1    2  502  501  0.51241512981E+01  0.24070550125E+02 -0.16720253838E+02  0.29752566246E+02  0.00000000000E+00 0.  1.
<scales pt_clust_5="13000.00000" pt_clust_6="13000.00000" pt_clust_7="13000.00000" pt_clust_8="13000.00000" pt_clust_9="24.60992"></scales>
<clustering>
<clus scale="   24.610">  2  9  1 -1</clus>
<clus scale="   90.942">  7  8 -1 -1</clus>
<clus scale="   91.209">  1  7  2 -1</clus>
<clus scale="   91.383">  5  6 -1 -1</clus>
<clus scale="   24.610">  2  5  1 -1</clus>
</clustering>
</event>
<event>
 9    1  0.1713970E-005  0.1942467E+03  0.7546771E-02  0.1156059E+00
         -1   -1    0    0    0  501 -0.00000000000E+00  0.00000000000E+00  0.28103503067E+03  0.28103503067E+03  0.00000000000E+00 0.  1.
          1   -1    0    0  502    0  0.00000000000E+00 -0.00000000000E+00 -0.17284706083E+03  0.17284706083E+03  0.00000000000E+00 0. -1.
         23    2    1    2    0    0  0.23801563445E+02 -0.18686005172E+03  0.99508058783E+02  0.22663689359E+03  0.77325509538E+02 0.  0.
         23    2    1    2    0    0 -0.20569056176E+02  0.16151268187E+03 -0.21273468585E+02  0.18787333977E+03  0.91292928824E+02 0.  0.
        -11    1    3    3    0    0 -0.75138796308E+01 -0.16541140455E+03  0.78378982138E+02  0.18319567676E+03  0.00000000000E+00 0. -1.
         11    1    3    3    0    0  0.31315443076E+02 -0.21448647169E+02  0.21129076645E+02  0.43441216838E+02  0.00000000000E+00 0.  1.
        -11    1    4    4    0    0  0.35348912676E+02  0.82845086768E+02 -0.75686414943E+01  0.90388817688E+02  0.00000000000E+00 0.  1.
         11    1    4    4    0    0 -0.55917968852E+02  0.78667595106E+02 -0.13704827091E+02  0.97484522084E+02  0.00000000000E+00 0. -1.
         21    1    1    2  502  501 -0.32325072694E+01  0.25347369842E+02  0.29953379643E+02  0.39371858137E+02  0.00000000000E+00 0.  1.
<scales pt_clust_5="13000.00000" pt_clust_6="13000.00000" pt_clust_7="13000.00000" pt_clust_8="13000.00000" pt_clust_9="25.55266"></scales>
<clustering>
<clus scale="   25.553">  1  9  2 -1</clus>
<clus scale="   77.326">  5  6 -1 -1</clus>
<clus scale="   91.293">  7  8 -1 -1</clus>
<clus scale="  188.087">  1  5  2 -1</clus>
<clus scale="  194.247">  2  5  1 -1</clus>
</clustering>
</event>
<event>
 9    1  0.1713970E-005  0.9457880E+02  0.7546771E-02  0.1292923E+00
         -1   -1    0    0    0  501 -0.00000000000E+00  0.00000000000E+00  0.11989618598E+03  0.11989618598E+03  0.00000000000E+00 0.  1.
          1   -1    0    0  502    0  0.00000000000E+00 -0.00000000000E+00 -0.31358315092E+03  0.31358315092E+03  0.00000000000E+00 0. -1.
         23    2    1    2    0    0  0.12564315511E+02 -0.13839789736E+01 -0.49658971509E+02  0.10565695035E+03  0.92399135730E+02 0.  0.
         23    2    1    2    0    0 -0.63696471907E+01 -0.25385575639E+02 -0.22404335202E+03  0.24322072830E+03  0.90971969508E+02 0.  0.
        -11    1    4    4    0    0 -0.46305884983E+02 -0.28756201944E+02 -0.13388387096E+03  0.14455464378E+03  0.00000000000E+00 0. -1.
         11    1    4    4    0    0  0.39936237792E+02  0.33706263051E+01 -0.90159481056E+02  0.98666084522E+02  0.00000000000E+00 0.  1.
        -11    1    3    3    0    0  0.31171369949E+02  0.38244367026E+02 -0.29215639623E+02  0.57339685317E+02  0.00000000000E+00 0.  1.
         11    1    3    3    0    0 -0.18607054438E+02 -0.39628346000E+02 -0.20443331886E+02  0.48317265032E+02  0.00000000000E+00 0. -1.
         21    1    1    2  502  501 -0.61946683201E+01  0.26769554613E+02  0.80015358581E+02  0.84601658250E+02  0.00000000000E+00 0.  1.
<scales pt_clust_5="13000.00000" pt_clust_6="13000.00000" pt_clust_7="13000.00000" pt_clust_8="13000.00000" pt_clust_9="27.47695"></scales>
<clustering>
<clus scale="   27.477">  1  9  2 -1</clus>
<clus scale="   90.972">  5  6 -1 -1</clus>
<clus scale="   92.399">  7  8 -1 -1</clus>
<clus scale="   93.185">  2  5  1 -1</clus>
<clus scale="   93.185">  2  5  1 -1</clus>
</clustering>
</event>
<event>
 9    1  0.1713970E-005  0.1119484E+03  0.7546771E-02  0.1264707E+00
          1   -1    0    0  502    0  0.00000000000E+00  0.00000000000E+00  0.43122289468E+03  0.43122289468E+03  0.00000000000E+00 0. -1.
         -1   -1    0    0    0  501 -0.00000000000E+00 -0.00000000000E+00 -0.11828599781E+03  0.11828599781E+03  0.00000000000E+00 0.  1.
         23    2    1    2    0    0  0.80709353985E+02 -0.16272656077E+02 -0.69844652015E+02  0.13188507554E+03  0.75740336532E+02 0.  0.
         23    2    1    2    0    0 -0.57249369791E+02  0.60569578721E+01  0.37469155506E+03  0.39078765948E+03  0.94905512403E+02 0.  0.
        -11    1    3    3    0    0  0.24076119486E+02  0.16255212736E+02 -0.58886664335E+02  0.65662247198E+02  0.00000000000E+00 0.  1.
         11    1    3    3    0    0  0.56633234499E+02 -0.32527868813E+02 -0.10957987680E+02  0.66222828339E+02  0.00000000000E+00 0. -1.
        -13    1    4    4    0    0  0.13033601273E+02  0.24112722369E+02  0.41145660851E+02  0.49439493819E+02  0.00000000000E+00 0.  1.
         13    1    4    4    0    0 -0.70282971063E+02 -0.18055764497E+02  0.33354589421E+03  0.34134816566E+03  0.00000000000E+00 0. -1.
         21    1    1    2  502  501 -0.23459984194E+02  0.10215698205E+02  0.80899938221E+01  0.26836157479E+02  0.00000000000E+00 0.  1.
<scales pt_clust_5="13000.00000" pt_clust_6="13000.00000" pt_clust_7="13000.00000" pt_clust_8="13000.00000" pt_clust_9="25.58772"></scales>
<clustering>
<clus scale="   25.588">  2  9  1 -1</clus>
<clus scale="   75.740">  5  6 -1 -1</clus>
<clus scale="   94.906">  7  8 -1 -1</clus>
<clus scale="   96.239">  2  5  1 -1</clus>
<clus scale="  111.948">  1  5  2 -1</clus>
</clustering>
</event>
<event>
 9    1  0.1713970E-005  0.1439795E+03  0.7546771E-02  0.1209183E+00
          1   -1    0    0  502    0  0.00000000000E+00  0.00000000000E+00  0.34751724736E+03  0.34751724736E+03  0.00000000000E+00 0. -1.
         -1   -1    0    0    0  501 -0.00000000000E+00 -0.00000000000E+00 -0.22704006607E+03  0.22704006607E+03  0.00000000000E+00 0.  1.
         23    2    1    2    0    0  0.24177950952E+02 -0.10057579036E+03  0.28930144187E+02  0.13777852550E+03  0.86289662933E+02 0.  0.
         23    2    1    2    0    0 -0.87132079159E+01  0.11386740158E+03  0.24312779281E+03  0.28383255323E+03  0.91695635134E+02 0.  0.
        -11    1    3    3    0    0  0.12374615748E+02 -0.27495554544E+02 -0.30469330020E+02  0.42866265366E+02  0.00000000000E+00 0.  1.
         11    1    3    3    0    0  0.11803335205E+02 -0.73080235811E+02  0.59399474207E+02  0.94912260136E+02  0.00000000000E+00 0. -1.
        -13    1    4    4    0    0 -0.46231553177E+02  0.84290820448E+02  0.13613882847E+03  0.16666157187E+03  0.00000000000E+00 0.  1.
         13    1    4    4    0    0  0.37518345261E+02  0.29576581128E+02  0.10698896434E+03  0.11717098136E+03  0.00000000000E+00 0. -1.
         21    1    1    2  502  501 -0.15464743037E+02 -0.13291611221E+02 -0.15158075570E+03  0.15294623469E+03  0.00000000000E+00 0.  1.
<scales pt_clust_5="13000.00000" pt_clust_6="13000.00000" pt_clust_7="13000.00000" pt_clust_8="13000.00000" pt_clust_9="20.39179"></scales>
<clustering>
<clus scale="   20.392">  2  9  1 -1</clus>
<clus scale="   86.290">  5  6 -1 -1</clus>
<clus scale="   91.696">  7  8 -1 -1</clus>
<clus scale="  140.598">  2  5  1 -1</clus>
<clus scale="  143.979">  1  5  2 -1</clus>
</clustering>
</event>
<event>
 9    1  0.1713970E-005  0.1312108E+03  0.7546771E-02  0.1226090E+00
         -1   -1    0    0    0  501 -0.00000000000E+00  0.00000000000E+00  0.15166430622E+03  0.15166430622E+03  0.00000000000E+00 0.  1.
          1   -1    0    0  502    0  0.00000000000E+00 -0.00000000000E+00 -0.13378581880E+03  0.13378581880E+03  0.00000000000E+00 0. -1.
         23    2    1    2    0    0 -0.78247885948E+02 -0.30902478087E+02  0.97784798144E+01  0.12369503847E+03  0.90150701983E+02 0.  0.
         23    2    1    2    0    0  0.10013837118E+03  0.31023624641E+02  0.10500674993E+02  0.13973302433E+03  0.91787228113E+02 0.  0.
        -13    1    4    4    0    0  0.81447673232E+02 -0.20938271807E+02  0.75171099115E+01  0.84431283554E+02  0.00000000000E+00 0.  1.
         13    1    4    4    0    0  0.18690697950E+02  0.51961896449E+02  0.29835650815E+01  0.55301740777E+02  0.00000000000E+00 0. -1.
        -13    1    3    3    0    0  0.52794276696E+01 -0.36829376628E+02  0.14242693077E+02  0.39838795732E+02  0.00000000000E+00 0.  1.
         13    1    3    3    0    0 -0.83527313618E+02  0.59268985411E+01 -0.44642132622E+01  0.83856242741E+02  0.00000000000E+00 0. -1.
         21    1    1    2  502  501 -0.21890485234E+02 -0.12114655428E+00 -0.24006673894E+01  0.22022062215E+02  0.00000000000E+00 0. -1.
<scales pt_clust_5="13000.00000" pt_clust_6="13000.00000" pt_clust_7="13000.00000" pt_clust_8="13000.00000" pt_clust_9="21.89082"></scales>
<clustering>
<clus scale="   21.891">  2  9  1 -1</clus>
<clus scale="   90.151">  7  8 -1 -1</clus>
<clus scale="   91.787">  5  6 -1 -1</clus>
<clus scale="  130.071">  1  7  2 -1</clus>
<clus scale="   21.891">  2  5  1 -1</clus>
</clustering>
</event>
<event>
 9    1  0.1713970E-005  0.1319994E+03  0.7546771E-02  0.1226395E+00
          2   -1    0    0  502    0  0.00000000000E+00  0.00000000000E+00  0.46581661735E+03  0.46581661735E+03  0.00000000000E+00 0. -1.
         -2   -1    0    0    0  501 -0.00000000000E+00 -0.00000000000E+00 -0.23893982707E+03  0.23893982707E+03  0.00000000000E+00 0.  1.
         23    2    1    2    0    0 -0.35624385268E+02  0.10700606312E+03 -0.16797583524E+03  0.22028541450E+03  0.87122834237E+02 0.  0.
         23    2    1    2    0    0  0.26427505016E+02 -0.87382856859E+02  0.42642626960E+03  0.44617549714E+03  0.94334692186E+02 0.  0.
        -11    1    3    3    0    0 -0.52386332970E+02  0.24248675540E+02 -0.60725318281E+02  0.83784786374E+02  0.00000000000E+00 0. -1.
         11    1    3    3    0    0  0.16761947702E+02  0.82757387583E+02 -0.10725051696E+03  0.13650062812E+03  0.00000000000E+00 0.  1.
        -11    1    4    4    0    0 -0.29416708123E+02 -0.45295243292E+02  0.26180188061E+03  0.26731484521E+03  0.00000000000E+00 0.  1.
         11    1    4    4    0    0  0.55844213140E+02 -0.42087613567E+02  0.16462438899E+03  0.17886065193E+03  0.00000000000E+00 0. -1.
         21    1    1    2  502  501  0.91968802515E+01 -0.19623206263E+02 -0.31573644082E+02  0.38295532782E+02  0.00000000000E+00 0.  1.
<scales pt_clust_5="13000.00000" pt_clust_6="13000.00000" pt_clust_7="13000.00000" pt_clust_8="13000.00000" pt_clust_9="21.67148"></scales>
<clustering>
<clus scale="   21.671">  2  9  1 -1</clus>
<clus scale="   87.123">  5  6 -1 -1</clus>
<clus scale="   94.335">  7  8 -1 -1</clus>
<clus scale="  126.946">  2  5  1 -1</clus>
<clus scale="  131.999">  1  5  2 -1</clus>
</clustering>
</event>
<event>
 9    1  0.1713970E-005  0.9554082E+02  0.7546771E-02  0.1297133E+00
          1   -1    0    0  502    0  0.00000000000E+00  0.00000000000E+00  0.14402944780E+03  0.14402944780E+03  0.00000000000E+00 0. -1.
         -1   -1    0    0    0  501 -0.00000000000E+00 -0.00000000000E+00 -0.11579265271E+03  0.11579265271E+03  0.00000000000E+00 0.  1.
         23    2    1    2    0    0 -0.85086482675E+01  0.21890278586E+01 -0.58111900853E+02  0.11188772319E+03  0.95208616420E+02 0.  0.
         23    2    1    2    0    0 -0.18348868875E+01  0.27995188257E+02  0.57918765581E+02  0.10519871818E+03  0.83217122789E+02 0.  0.
        -11    1    4    4    0    0  0.33221544772E+02  0.54444902008E+01 -0.21493426390E+00  0.33665408171E+02  0.00000000000E+00 0. -1.
         11    1    4    4    0    0 -0.35056431659E+02  0.22550698056E+02  0.58133699845E+02  0.71533310011E+02  0.00000000000E+00 0.  1.
        -13    1    3    3    0    0  0.24249068463E+02  0.37881670529E+02 -0.16132392786E+02  0.47783808768E+02  0.00000000000E+00 0. -1.
         13    1    3    3    0    0 -0.32757716731E+02 -0.35692642670E+02 -0.41979508067E+02  0.64103914418E+02  0.00000000000E+00 0.  1.
         21    1    1    2  502  501  0.10343535155E+02 -0.30184216116E+02  0.28429930357E+02  0.42735659140E+02  0.00000000000E+00 0. -1.
<scales pt_clust_5="13000.00000" pt_clust_6="13000.00000" pt_clust_7="13000.00000" pt_clust_8="13000.00000" pt_clust_9="31.90730"></scales>
<clustering>
<clus scale="   31.907">  1  9  2 -1</clus>
<clus scale="   83.217">  5  6 -1 -1</clus>
<clus scale="   83.597">  1  5  2 -1</clus>
<clus scale="   95.209">  7  8 -1 -1</clus>
<clus scale="   31.907">  1  5  2 -1</clus>
</clustering>
</event>
<event>
 9    1  0.1713970E-005  0.1136207E+03  0.7546771E-02  0.1262219E+00
          2   -1    0    0  502    0  0.00000000000E+00  0.00000000000E+00  0.37660441531E+03  0.37660441531E+03  0.00000000000E+00 0. -1.
         -2   -1    0    0    0  501 -0.00000000000E+00 -0.00000000000E+00 -0.55927369275E+02  0.55927369275E+02  0.00000000000E+00 0.  1.
         23    2    1    2    0    0  0.19232948024E+02 -0.40747815203E+02  0.10657481772E+03  0.14712941846E+03  0.90876747701E+02 0.  0.
         23    2    1    2    0    0  0.42913254916E+02  0.20424609494E+02  0.16672157958E+03  0.20465517357E+03  0.10876094358E+03 0.  0.
        -13    1    3    3    0    0 -0.33245735646E+02 -0.34692651812E+02  0.58479777906E+02  0.75688463139E+02  0.00000000000E+00 0.  1.
         13    1    3    3    0    0  0.52478683670E+02 -0.60551633910E+01  0.48095039810E+02  0.71440955325E+02  0.00000000000E+00 0. -1.
        -13    1    4    4    0    0  0.74149895530E+01 -0.43790195016E+02  0.75403298528E+02  0.87511260296E+02  0.00000000000E+00 0.  1.
         13    1    4    4    0    0  0.35498265363E+02  0.64214804510E+02  0.91318281055E+02  0.11714391327E+03  0.00000000000E+00 0. -1.
         21    1    1    2  502  501 -0.62146202940E+02  0.20323205709E+02  0.47380648732E+02  0.80747192549E+02  0.00000000000E+00 0.  1.
<scales pt_clust_5="13000.00000" pt_clust_6="13000.00000" pt_clust_7="13000.00000" pt_clust_8="13000.00000" pt_clust_9="65.38489"></scales>
<clustering>
<clus scale="   65.385">  2  9  1 -1</clus>
<clus scale="   90.877">  5  6 -1 -1</clus>
<clus scale="   96.640">  2  5  1 -1</clus>
<clus scale="  108.761">  7  8 -1 -1</clus>
<clus scale="  113.621">  1  5  2 -1</clus>
</clustering>
</event>
<event>
 9    1  0.1713970E-005  0.2040090E+03  0.7546771E-02  0.1146407E+00
         -1   -1    0    0    0  501 -0.00000000000E+00  0.00000000000E+00  0.47184425863E+02  0.47184425863E+02  0.00000000000E+00 0.  1.
          1   -1    0    0  502    0  0.00000000000E+00 -0.00000000000E+00 -0.14131448873E+04  0.14131448873E+04  0.00000000000E+00 0. -1.
         23    2    1    2    0    0  0.14323525016E+03 -0.12584347648E+03 -0.54050777213E+03  0.58049793833E+03  0.92066754112E+02 0.  0.
         23    2    1    2    0    0 -0.14263714147E+03  0.10509047303E+03 -0.83385486517E+03  0.85743402132E+03  0.92140127565E+02 0.  0.
        -13    1    3    3    0    0  0.83078927012E+02 -0.11673775354E+03 -0.44271172946E+03  0.46532084266E+03  0.00000000000E+00 0. -1.
         13    1    3    3    0    0  0.60156323144E+02 -0.91057229408E+01 -0.97796042669E+02  0.11517709567E+03  0.00000000000E+00 0.  1.
        -13    1    4    4    0    0 -0.11804199566E+03  0.54944984672E+02 -0.70609305659E+03  0.71799740156E+03  0.00000000000E+00 0. -1.
         13    1    4    4    0    0 -0.24595145807E+02  0.50145488355E+02 -0.12776180857E+03  0.13943661976E+03  0.00000000000E+00 0.  1.
         21    1    1    2  502  501 -0.59810868914E+00  0.20753003452E+02  0.84021758421E+01  0.22397353531E+02  0.00000000000E+00 0. -1.
<scales pt_clust_5="13000.00000" pt_clust_6="13000.00000" pt_clust_7="13000.00000" pt_clust_8="13000.00000" pt_clust_9="20.76162"></scales>
<clustering>
<clus scale="   20.762">  1  9  2 -1</clus>
<clus scale="   92.067">  5  6 -1 -1</clus>
<clus scale="   92.140">  7  8 -1 -1</clus>
<clus scale="  203.976">  1  5  2 -1</clus>
<clus scale="  204.009">  2  5  1 -1</clus>
</clustering>
</event>
<event>
 9    1  0.1713970E-005  0.1495616E+03  0.7546771E-02  0.1201226E+00
         -2   -1    0    0    0  501 -0.00000000000E+00  0.00000000000E+00  0.70363153541E+03  0.70363153541E+03  0.00000000000E+00 0.  1.
          2   -1    0    0  502    0  0.00000000000E+00 -0.00000000000E+00 -0.86722633424E+03  0.86722633424E+03  0.00000000000E+00 0. -1.
         23    2    1    2    0    0  0.37899090614E+02 -0.74874252078E+02  0.65331100478E+03  0.66505898861E+03  0.91900460599E+02 0.  0.
         23    2    1    2    0    0 -0.63470836303E+02  0.99874904418E+02 -0.84640227039E+03  0.85944169877E+03  0.90772719837E+02 0.  0.
        -11    1    3    3    0    0 -0.16729537162E+02 -0.67241445215E+02  0.36502736028E+03  0.37154577527E+03  0.00000000000E+00 0. -1.
         11    1    3    3    0    0  0.54628627776E+02 -0.76328068631E+01  0.28828364450E+03  0.29351321333E+03  0.00000000000E+00 0.  1.
        -13    1    4    4    0    0 -0.44462407911E+02 -0.29629661302E+01 -0.25414687907E+03  0.25802387685E+03  0.00000000000E+00 0.  1.
         13    1    4    4    0    0 -0.19008428392E+02  0.10283787055E+03 -0.59225539133E+03  0.60141782192E+03  0.00000000000E+00 0. -1.
         21    1    1    2  502  501  0.25571745689E+02 -0.25000652341E+02  0.29496466782E+02  0.46357182266E+02  0.00000000000E+00 0.  1.
<scales pt_clust_5="13000.00000" pt_clust_6="13000.00000" pt_clust_7="13000.00000" pt_clust_8="13000.00000" pt_clust_9="35.76237"></scales>
<clustering>
<clus scale="   35.762">  1  9  2 -1</clus>
<clus scale="   90.773">  7  8 -1 -1</clus>
<clus scale="   91.900">  5  6 -1 -1</clus>
<clus scale="  148.871">  2  7  1 -1</clus>
<clus scale="  148.871">  2  5  1 -1</clus>
</clustering>
</event>
<event>
 9    1  0.1713970E-005  0.1152699E+03  0.7546771E-02  0.1251660E+00
         -1   -1    0    0    0  501 -0.00000000000E+00  0.00000000000E+00  0.74002406466E+02  0.74002406466E+02  0.00000000000E+00 0.  1.
          1   -1    0    0  502    0  0.00000000000E+00 -0.00000000000E+00 -0.47355106409E+03  0.47355106409E+03  0.00000000000E+00 0. -1.
         23    2    1    2    0    0 -0.13969407927E+02  0.70681546688E+02 -0.11814606097E+03  0.16638230301E+03  0.92377235464E+02 0.  0.
         23    2    1    2    0    0  0.42467560779E+02 -0.55453631912E+02 -0.31462164860E+03  0.33482961474E+03  0.90804681191E+02 0.  0.
        -13    1    4    4    0    0  0.60895148366E+02 -0.10597050951E+02 -0.21981829701E+03  0.22834316343E+03  0.00000000000E+00 0.  1.
         13    1    4    4    0    0 -0.18427587588E+02 -0.44856580962E+02 -0.94803351593E+02  0.10648645131E+03  0.00000000000E+00 0. -1.
        -13    1    3    3    0    0  0.28928655946E+02 -0.18354464955E+01 -0.13342369326E+02  0.31910105263E+02  0.00000000000E+00 0. -1.
         13    1    3    3    0    0 -0.42898063873E+02  0.72516993184E+02 -0.10480369165E+03  0.13447219775E+03  0.00000000000E+00 0.  1.
         21    1    1    2  502  501 -0.28498152852E+02 -0.15227914776E+02  0.33219051947E+02  0.46341552808E+02  0.00000000000E+00 0.  1.
<scales pt_clust_5="13000.00000" pt_clust_6="13000.00000" pt_clust_7="13000.00000" pt_clust_8="13000.00000" pt_clust_9="32.31152"></scales>
<clustering>
<clus scale="   32.312">  1  9  2 -1</clus>
<clus scale="   90.805">  5  6 -1 -1</clus>
<clus scale="   92.377">  7  8 -1 -1</clus>
<clus scale="  114.014">  2  5  1 -1</clus>
<clus scale="  114.014">  2  5  1 -1</clus>
</clustering>
</event>
<event>
 9    1  0.1713970E-005  0.1493493E+03  0.7546771E-02  0.1202028E+00
          1   -1    0    0  502    0  0.00000000000E+00  0.00000000000E+00  0.29396851141E+03  0.29396851141E+03  0.00000000000E+00 0. -1.
         -1   -1    0    0    0  501 -0.00000000000E+00 -0.00000000000E+00 -0.37922402718E+03  0.37922402718E+03  0.00000000000E+00 0.  1.
         23    2    1    2    0    0  0.74634932675E+02  0.16593480618E+02 -0.27250666245E+03  0.29691509635E+03  0.89738378577E+02 0.  0.
         23    2    1    2    0    0 -0.95587843171E+02  0.75644354767E+02  0.22661233165E+03  0.27382674377E+03  0.93642044919E+02 0.  0.
        -11    1    4    4    0    0 -0.73247127081E+01  0.63351753651E+02  0.80754613467E+02  0.10289996940E+03  0.00000000000E+00 0.  1.
         11    1    4    4    0    0 -0.88263130463E+02  0.12292601116E+02  0.14585771818E+03  0.17092677436E+03  0.00000000000E+00 0. -1.
        -13    1    3    3    0    0  0.42847699231E+02 -0.18645690725E+00 -0.25182750534E+03  0.25544677046E+03  0.00000000000E+00 0.  1.
         13    1    3    3    0    0  0.31787233444E+02  0.16779937525E+02 -0.20679157111E+02  0.41468325891E+02  0.00000000000E+00 0. -1.
         21    1    1    2  502  501  0.20952910496E+02 -0.92237835384E+02 -0.39361184972E+02  0.10245069847E+03  0.00000000000E+00 0. -1.
<scales pt_clust_5="13000.00000" pt_clust_6="13000.00000" pt_clust_7="13000.00000" pt_clust_8="13000.00000" pt_clust_9="94.58775"></scales>
<clustering>
<clus scale="   89.738">  7  8 -1 -1</clus>
<clus scale="   93.642">  5  6 -1 -1</clus>
<clus scale="   94.588">  2  9  1 -1</clus>
<clus scale="  146.933">  2  7  1 -1</clus>
<clus scale="  149.349">  1  5  2 -1</clus>
</clustering>
</event>
<event>
 9    1  0.1713970E-005  0.1361078E+03  0.7546771E-02  0.1219077E+00
         -4   -1    0    0    0  501 -0.00000000000E+00  0.00000000000E+00  0.16838191443E+03  0.16838191443E+03  0.00000000000E+00 0.  1.
          4   -1    0    0  502    0  0.00000000000E+00 -0.00000000000E+00 -0.23388424684E+03  0.23388424684E+03  0.00000000000E+00 0. -1.
         23    2    1    2    0    0 -0.10289518433E+03  0.21929010333E+02 -0.66983321686E+01  0.13974816489E+03  0.91740838684E+02 0.  0.
         23    2    1    2    0    0  0.96844080409E+02  0.19522867446E+02 -0.12464778365E+03  0.18447776418E+03  0.93461528148E+02 0.  0.
        -11    1    4    4    0    0  0.65728224910E+02  0.26019512699E+02 -0.17654030742E+02  0.72862057289E+02  0.00000000000E+00 0.  1.
         11    1    4    4    0    0  0.31115855498E+02 -0.64966452537E+01 -0.10699375291E+03  0.11161570689E+03  0.00000000000E+00 0. -1.
        -13    1    3    3    0    0 -0.10427272417E+03 -0.64172808985E+01 -0.23066924834E+02  0.10698628660E+03  0.00000000000E+00 0.  1.
         13    1    3    3    0    0  0.13775398405E+01  0.28346291232E+02  0.16368592666E+02  0.32761878281E+02  0.00000000000E+00 0. -1.
         21    1    1    2  502  501  0.60511039213E+01 -0.41451877779E+02  0.65843783405E+02  0.78040232209E+02  0.00000000000E+00 0. -1.
<scales pt_clust_5="13000.00000" pt_clust_6="13000.00000" pt_clust_7="13000.00000" pt_clust_8="13000.00000" pt_clust_9="41.89122"></scales>
<clustering>
<clus scale="   41.891">  1  9  2 -1</clus>
<clus scale="   91.741">  7  8 -1 -1</clus>
<clus scale="   93.462">  5  6 -1 -1</clus>
<clus scale="  134.932">  1  7  2 -1</clus>
<clus scale="  136.108">  2  5  1 -1</clus>
</clustering>
</event>
<event>
 9    1  0.1713970E-005  0.1756065E+03  0.7546771E-02  0.1172137E+00
          1   -1    0    0  502    0  0.00000000000E+00  0.00000000000E+00  0.11867331804E+03  0.11867331804E+03  0.00000000000E+00 0. -1.
         -1   -1    0    0    0  501 -0.00000000000E+00 -0.00000000000E+00 -0.76970461805E+03  0.76970461805E+03  0.00000000000E+00 0.  1.
         23    2    1    2    0    0 -0.25321069518E+01  0.13336374139E+03 -0.49687358483E+03  0.52231441067E+03  0.90203576475E+02 0.  0.
         23    2    1    2    0    0  0.17930038643E+02 -0.15218382183E+03  0.29940514262E+02  0.18036632616E+03  0.90300472354E+02 0.  0.
        -11    1    4    4    0    0 -0.35891234411E+01 -0.10269739796E+03 -0.22418280056E+02  0.10517707276E+03  0.00000000000E+00 0. -1.
         11    1    4    4    0    0  0.21519162084E+02 -0.49486423866E+02  0.52358794318E+02  0.75189253397E+02  0.00000000000E+00 0.  1.
        -13    1    3    3    0    0 -0.54725743406E+01  0.44391117807E+02 -0.51856569330E+02  0.68480830842E+02  0.00000000000E+00 0. -1.
         13    1    3    3    0    0  0.29404673888E+01  0.88972623586E+02 -0.44501701550E+03  0.45383357983E+03  0.00000000000E+00 0.  1.
         21    1    1    2  502  501 -0.15397931691E+02  0.18820080432E+02 -0.18409822944E+03  0.18569719925E+03  0.00000000000E+00 0.  1.
<scales pt_clust_5="13000.00000" pt_clust_6="13000.00000" pt_clust_7="13000.00000" pt_clust_8="13000.00000" pt_clust_9="24.31649"></scales>
<clustering>
<clus scale="   24.316">  2  9  1 -1</clus>
<clus scale="   90.204">  7  8 -1 -1</clus>
<clus scale="   90.300">  5  6 -1 -1</clus>
<clus scale="  175.557">  2  7  1 -1</clus>
<clus scale="  175.606">  1  5  2 -1</clus>
</clustering>
</event>
<event>
 9    1  0.1713970E-005  0.9428853E+02  0.7546771E-02  0.1293801E+00
          2   -1    0    0  502    0  0.00000000000E+00  0.00000000000E+00  0.48877991959E+03  0.48877991959E+03  0.00000000000E+00 0. -1.
         -2   -1    0    0    0  501 -0.00000000000E+00 -0.00000000000E+00 -0.34901435699E+02  0.34901435699E+02  0.00000000000E+00 0.  1.
         23    2    1    2    0    0  0.53586203487E+01  0.12013402444E+02  0.73712708622E+02  0.11714121902E+03  0.90085876425E+02 0.  0.
         23    2    1    2    0    0  0.15772918969E+02 -0.19527831866E+02  0.36972530092E+03  0.38180125779E+03  0.91898210648E+02 0.  0.
        -13    1    3    3    0    0 -0.29292190842E+02  0.37052535111E+02  0.47540909259E+02  0.67015377755E+02  0.00000000000E+00 0. -1.
         13    1    3    3    0    0  0.34650811190E+02 -0.25039132667E+02  0.26171799363E+02  0.50125841268E+02  0.00000000000E+00 0.  1.
        -13    1    4    4    0    0  0.50707869394E+02  0.53222194256E+01  0.16780879960E+03  0.17538360032E+03  0.00000000000E+00 0.  1.
         13    1    4    4    0    0 -0.34934950425E+02 -0.24850051291E+02  0.20191650133E+03  0.20641765748E+03  0.00000000000E+00 0. -1.
         21    1    1    2  502  501 -0.21131539318E+02  0.75144294213E+01  0.10440474345E+02  0.24738878471E+02  0.00000000000E+00 0.  1.
<scales pt_clust_5="13000.00000" pt_clust_6="13000.00000" pt_clust_7="13000.00000" pt_clust_8="13000.00000" pt_clust_9="22.42785"></scales>
<clustering>
<clus scale="   22.428">  2  9  1 -1</clus>
<clus scale="   90.086">  5  6 -1 -1</clus>
<clus scale="   91.898">  7  8 -1 -1</clus>
<clus scale="   92.523">  2  5  1 -1</clus>
<clus scale="   94.289">  1  5  2 -1</clus>
</clustering>
</event>
<event>
 9    1  0.1713970E-005  0.1629438E+03  0.7546771E-02  0.1185461E+00
         -1   -1    0    0    0  501 -0.00000000000E+00  0.00000000000E+00  0.37381751610E+02  0.37381751610E+02  0.00000000000E+00 0.  1.
          1   -1    0    0  502    0  0.00000000000E+00 -0.00000000000E+00 -0.89777906974E+03  0.89777906974E+03  0.00000000000E+00 0. -1.
         23    2    1    2    0    0 -0.92671877240E+02 -0.99517094257E+02 -0.27074510859E+03  0.31637600243E+03  0.91099573045E+02 0.  0.
         23    2    1    2    0    0  0.75834128069E+02  0.11151619316E+03 -0.55514331124E+03  0.57855607008E+03  0.91413094739E+02 0.  0.
        -11    1    3    3    0    0 -0.11089157823E+03 -0.84101303302E+02 -0.22047664800E+03  0.26072959873E+03  0.00000000000E+00 0.  1.
         11    1    3    3    0    0  0.18219700992E+02 -0.15415790955E+02 -0.50268460590E+02  0.55646403703E+02  0.00000000000E+00 0. -1.
        -11    1    4    4    0    0  0.83519799963E+02  0.73565281820E+02 -0.49243601366E+03  0.50485704434E+03  0.00000000000E+00 0. -1.
         11    1    4    4    0    0 -0.76856718935E+01  0.37950911339E+02 -0.62707297585E+02  0.73699025735E+02  0.00000000000E+00 0.  1.
         21    1    1    2  502  501  0.16837749171E+02 -0.11999098902E+02 -0.34508898299E+02  0.40228748842E+02  0.00000000000E+00 0. -1.
<scales pt_clust_5="13000.00000" pt_clust_6="13000.00000" pt_clust_7="13000.00000" pt_clust_8="13000.00000" pt_clust_9="20.67579"></scales>
<clustering>
<clus scale="   20.676">  1  9  2 -1</clus>
<clus scale="   91.100">  5  6 -1 -1</clus>
<clus scale="   91.413">  7  8 -1 -1</clus>
<clus scale="  162.768">  1  5  2 -1</clus>
<clus scale="  162.944">  2  5  1 -1</clus>
</clustering>
</event>
<event>
 9    1  0.1713970E-005  0.1170118E+03  0.7546771E-02  0.1248853E+00
          2   -1    0    0  502    0  0.00000000000E+00  0.00000000000E+00  0.55698560551E+03  0.55698560551E+03  0.00000000000E+00 0. -1.
         -2   -1    0    0    0  501 -0.00000000000E+00 -0.00000000000E+00 -0.47587720783E+02  0.47587720783E+02  0.00000000000E+00 0.  1.
         23    2    1    2    0    0  0.78801709495E+02  0.16329450213E+02  0.27285868281E+03  0.29928048135E+03  0.92954749039E+02 0.  0.
         23    2    1    2    0    0 -0.63487321071E+02 -0.54352128240E+00  0.25407003145E+03  0.27716712665E+03  0.90769487527E+02 0.  0.
        -11    1    4    4    0    0 -0.83315041902E+02  0.99439620382E+01  0.22700401578E+03  0.24201467263E+03  0.00000000000E+00 0.  1.
         11    1    4    4    0    0  0.19827720831E+02 -0.10487483321E+02  0.27066015664E+02  0.35152454021E+02  0.00000000000E+00 0. -1.
        -13    1    3    3    0    0  0.77910299505E+02 -0.17693689292E+02  0.23578586824E+03  0.24895392560E+03  0.00000000000E+00 0. -1.
         13    1    3    3    0    0  0.89140998999E+00  0.34023139506E+02  0.37072814569E+02  0.50326555750E+02  0.00000000000E+00 0.  1.
         21    1    1    2  502  501 -0.15314388424E+02 -0.15785928931E+02 -0.17530829533E+02  0.28125718286E+02  0.00000000000E+00 0.  1.
<scales pt_clust_5="13000.00000" pt_clust_6="13000.00000" pt_clust_7="13000.00000" pt_clust_8="13000.00000" pt_clust_9="21.99377"></scales>
<clustering>
<clus scale="   21.994">  2  9  1 -1</clus>
<clus scale="   90.769">  5  6 -1 -1</clus>
<clus scale="   92.955">  7  8 -1 -1</clus>
<clus scale="  115.283">  1  5  2 -1</clus>
<clus scale="  115.283">  1  5  2 -1</clus>
</clustering>
</event>
<event>
 9    1  0.1713970E-005  0.1361050E+03  0.7546771E-02  0.1229944E+00
          1   -1    0    0  502    0  0.00000000000E+00  0.00000000000E+00  0.18461558656E+03  0.18461558656E+03  0.00000000000E+00 0. -1.
         -1   -1    0    0    0  501 -0.00000000000E+00 -0.00000000000E+00 -0.25930584579E+03  0.25930584579E+03  0.00000000000E+00 0.  1.
         23    2    1    2    0    0 -0.53367562620E+02 -0.36846811447E+02  0.48191885856E+02  0.12125977348E+03  0.90419525258E+02 0.  0.
         23    2    1    2    0    0 -0.52261904973E+01 -0.55707113345E+02  0.49488364846E+02  0.11842882706E+03  0.91900453092E+02 0.  0.
        -11    1    3    3    0    0 -0.24683410038E+02 -0.25710140441E+02 -0.23875074264E+02  0.42898732192E+02  0.00000000000E+00 0.  1.
         11    1    3    3    0    0 -0.28684152582E+02 -0.11136671006E+02  0.72066960120E+02  0.78361041285E+02  0.00000000000E+00 0. -1.
        -11    1    4    4    0    0 -0.12046216746E+02 -0.80395394043E+02  0.43185664928E+02  0.92051791816E+02  0.00000000000E+00 0. -1.
         11    1    4    4    0    0  0.68200262490E+01  0.24688280698E+02  0.63026999177E+01  0.26377035241E+02  0.00000000000E+00 0.  1.
         21    1    1    2  502  501  0.58593753117E+02  0.92553924792E+02 -0.17237050993E+03  0.20423283181E+03  0.00000000000E+00 0.  1.
<scales pt_clust_5="13000.00000" pt_clust_6="13000.00000" pt_clust_7="13000.00000" pt_clust_8="13000.00000" pt_clust_9="101.72942"></scales>
<clustering>
<clus scale="   90.420">  5  6 -1 -1</clus>
<clus scale="   91.900">  7  8 -1 -1</clus>
<clus scale="  107.593">  1  7  2 -1</clus>
<clus scale="  101.729">  2  9  1 -1</clus>
<clus scale="  107.593">  1  5  2 -1</clus>
</clustering>
</event>
<event>
 9    1  0.1713970E-005  0.1288354E+03  0.7546771E-02  0.1230803E+00
          1   -1    0    0  502    0  0.00000000000E+00  0.00000000000E+00  0.18169147556E+03  0.18169147556E+03  0.00000000000E+00 0. -1.
         -1   -1    0    0    0  501 -0.00000000000E+00 -0.00000000000E+00 -0.42901900305E+03  0.42901900305E+03  0.00000000000E+00 0.  1.
         23    2    1    2    0    0  0.33946498091E+02 -0.85045987545E+00 -0.24953888244E+03  0.26858603943E+03  0.93358013640E+02 0.  0.
         23    2    1    2    0    0 -0.91445508245E+02 -0.22516440127E+02  0.14057958733E+03  0.19047380147E+03  0.87455003398E+02 0.  0.
        -11    1    3    3    0    0  0.18965178418E+02 -0.35638694475E+02 -0.20994965966E+03  0.21379582345E+03  0.00000000000E+00 0.  1.
         11    1    3    3    0    0  0.14981319673E+02  0.34788234600E+02 -0.39589222782E+02  0.54790215971E+02  0.00000000000E+00 0. -1.
        -13    1    4    4    0    0 -0.56683826293E+02 -0.20566955259E+02  0.14338123161E+03  0.15554495617E+03  0.00000000000E+00 0. -1.
         13    1    4    4    0    0 -0.34761681952E+02 -0.19494848675E+01 -0.28016442820E+01  0.34928845301E+02  0.00000000000E+00 0.  1.
         21    1    1    2  502  501  0.57499010154E+02  0.23366900002E+02 -0.13836823239E+03  0.15165063771E+03  0.00000000000E+00 0.  1.
<scales pt_clust_5="13000.00000" pt_clust_6="13000.00000" pt_clust_7="13000.00000" pt_clust_8="13000.00000" pt_clust_9="62.06568"></scales>
<clustering>
<clus scale="   62.066">  2  9  1 -1</clus>
<clus scale="   87.455">  7  8 -1 -1</clus>
<clus scale="   93.358">  5  6 -1 -1</clus>
<clus scale="  124.624">  1  7  2 -1</clus>
<clus scale="  124.624">  1  5  2 -1</clus>
</clustering>
</event>
<event>
 9    1  0.1713970E-005  0.1139116E+03  0.7546771E-02  0.1253979E+00
         -1   -1    0    0    0  501 -0.00000000000E+00  0.00000000000E+00  0.90238757839E+02  0.90238757839E+02  0.00000000000E+00 0.  1.
          1   -1    0    0  502    0  0.00000000000E+00 -0.00000000000E+00 -0.59149495744E+03  0.59149495744E+03  0.00000000000E+00 0. -1.
         23    2    1    2    0    0  0.74980137229E+02 -0.18464825728E+02 -0.77001758818E+02  0.14287127573E+03  0.92303628318E+02 0.  0.
         23    2    1    2    0    0 -0.55666089051E+02  0.28931486672E+02 -0.47254994267E+03  0.48580549889E+03  0.93636478167E+02 0.  0.
        -11    1    4    4    0    0 -0.44667059787E+02  0.59006299433E+02 -0.39552458211E+03  0.40238859906E+03  0.00000000000E+00 0.  1.
         11    1    4    4    0    0 -0.10999029265E+02 -0.30074812761E+02 -0.77025360562E+02  0.83416899829E+02  0.00000000000E+00 0. -1.
        -11    1    3    3    0    0  0.37106254158E+02 -0.12580068502E+02 -0.93321789959E+02  0.10121308563E+03  0.00000000000E+00 0. -1.
         11    1    3    3    0    0  0.37873883071E+02 -0.58847572260E+01  0.16320031141E+02  0.41658190106E+02  0.00000000000E+00 0.  1.
         21    1    1    2  502  501 -0.19314048178E+02 -0.10466660944E+02  0.48295501891E+02  0.53056940651E+02  0.00000000000E+00 0.  1.
<scales pt_clust_5="13000.00000" pt_clust_6="13000.00000" pt_clust_7="13000.00000" pt_clust_8="13000.00000" pt_clust_9="21.96778"></scales>
<clustering>
<clus scale="   21.968">  1  9  2 -1</clus>
<clus scale="   92.304">  7  8 -1 -1</clus>
<clus scale="   93.636">  5  6 -1 -1</clus>
<clus scale="  112.819">  1  7  2 -1</clus>
<clus scale="  113.912">  2  5  1 -1</clus>
</clustering>
</event>
<event>
 9    1  0.1713970E-005  0.1784453E+03  0.7546771E-02  0.1169473E+00
         -3   -1    0    0    0  501 -0.00000000000E+00  0.00000000000E+00  0.20552082784E+03  0.20552082784E+03  0.00000000000E+00 0.  1.
          3   -1    0    0  502    0  0.00000000000E+00 -0.00000000000E+00 -0.47750505169E+03  0.47750505169E+03  0.00000000000E+00 0. -1.
         23    2    1    2    0    0  0.10329976609E+03 -0.17512538706E+03  0.10055474842E+02  0.22361580787E+03  0.92537419919E+02 0.  0.
         23    2    1    2    0    0 -0.64774198689E+02  0.12840650255E+03 -0.33701513331E+03  0.37762271368E+03  0.91300531717E+02 0.  0.
        -11    1    4    4    0    0  0.15778026286E+02  0.30071238208E+02 -0.13283046105E+03  0.13710272377E+03  0.00000000000E+00 0.  1.
         11    1    4    4    0    0 -0.80552224975E+02  0.98335264341E+02 -0.20418467226E+03  0.24051998991E+03  0.00000000000E+00 0. -1.
        -11    1    3    3    0    0 -0.17525277398E+02 -0.24184495251E+02 -0.16981643533E+01  0.29915028340E+02  0.00000000000E+00 0. -1.
         11    1    3    3    0    0  0.12082504349E+03 -0.15094089181E+03  0.11753639196E+02  0.19370077953E+03  0.00000000000E+00 0.  1.
         21    1    1    2  502  501 -0.38525567400E+02  0.46718884513E+02  0.54975434626E+02  0.81787357984E+02  0.00000000000E+00 0.  1.
<scales pt_clust_5="13000.00000" pt_clust_6="13000.00000" pt_clust_7="13000.00000" pt_clust_8="13000.00000" pt_clust_9="60.55472"></scales>
<clustering>
<clus scale="   60.555">  1  9  2 -1</clus>
<clus scale="   91.301">  5  6 -1 -1</clus>
<clus scale="   92.537">  7  8 -1 -1</clus>
<clus scale="  177.807">  2  5  1 -1</clus>
<clus scale="  177.807">  2  5  1 -1</clus>
</clustering>
</event>
<event>
 9    1  0.1713970E-005  0.9453575E+02  0.7546771E-02  0.1292359E+00
          3   -1    0    0  502    0  0.00000000000E+00  0.00000000000E+00  0.11005689602E+03  0.11005689602E+03  0.00000000000E+00 0. -1.
         -3   -1    0    0    0  501 -0.00000000000E+00 -0.00000000000E+00 -0.16973624034E+03  0.16973624034E+03  0.00000000000E+00 0.  1.
         23    2    1    2    0    0 -0.10110023671E+02 -0.32481490822E+02 -0.22472387094E+02  0.99372880516E+02  0.90623955860E+02 0.  0.
         23    2    1    2    0    0 -0.47901022764E+02 -0.43906972580E+00  0.25785517343E+01  0.10275474523E+03  0.90869070508E+02 0.  0.
        -13    1    4    4    0    0 -0.32573844565E+02 -0.43793632906E+02  0.11835404783E+02  0.55848137294E+02  0.00000000000E+00 0.  1.
         13    1    4    4    0    0 -0.15327178199E+02  0.43354563180E+02 -0.92568530485E+01  0.46906607940E+02  0.00000000000E+00 0. -1.
        -13    1    3    3    0    0  0.30057945611E+02 -0.81632056938E+01  0.19202531063E+02  0.36590370602E+02  0.00000000000E+00 0.  1.
         13    1    3    3    0    0 -0.40167969282E+02 -0.24318285128E+02 -0.41674918157E+02  0.62782509915E+02  0.00000000000E+00 0. -1.
         21    1    1    2  502  501  0.58011046436E+02  0.32920560547E+02 -0.39785508957E+02  0.77665510610E+02  0.00000000000E+00 0. -1.
<scales pt_clust_5="13000.00000" pt_clust_6="13000.00000" pt_clust_7="13000.00000" pt_clust_8="13000.00000" pt_clust_9="66.70116"></scales>
<clustering>
<clus scale="   66.701">  2  9  1 -1</clus>
<clus scale="   90.624">  7  8 -1 -1</clus>
<clus scale="   90.869">  5  6 -1 -1</clus>
<clus scale="   94.300">  2  7  1 -1</clus>
<clus scale="   94.536">  1  5  2 -1</clus>
</clustering>
</event>
<event>
 9    1  0.1713970E-005  0.1131830E+03  0.7546771E-02  0.1255854E+00
         -2   -1    0    0    0  501 -0.00000000000E+00  0.00000000000E+00  0.53695837915E+02  0.53695837915E+02  0.00000000000E+00 0.  1.
          2   -1    0    0  502    0  0.00000000000E+00 -0.00000000000E+00 -0.35029741833E+03  0.35029741833E+03  0.00000000000E+00 0. -1.
         23    2    1    2    0    0 -0.25015567635E+02  0.44935752757E+02 -0.45490176502E+02  0.11204143147E+03  0.88537707831E+02 0.  0.
         23    2    1    2    0    0  0.34338659985E+02 -0.64143678065E+02 -0.24197454064E+03  0.26872798538E+03  0.91484953975E+02 0.  0.
        -11    1    4    4    0    0 -0.13731684468E+02 -0.34036327707E+02 -0.18398802972E+03  0.18761296821E+03  0.00000000000E+00 0. -1.
         11    1    4    4    0    0  0.48070344453E+02 -0.30107350358E+02 -0.57986510924E+02  0.81115017170E+02  0.00000000000E+00 0.  1.
        -13    1    3    3    0    0 -0.53755967520E+02  0.99974391286E+01 -0.12605301299E+02  0.56111910090E+02  0.00000000000E+00 0. -1.
         13    1    3    3    0    0  0.28740399885E+02  0.34938313629E+02 -0.32884875203E+02  0.55929521381E+02  0.00000000000E+00 0.  1.
         21    1    1    2  502  501 -0.93230923502E+01  0.19207925308E+02 -0.91368632729E+01  0.23223839391E+02  0.00000000000E+00 0.  1.
<scales pt_clust_5="13000.00000" pt_clust_6="13000.00000" pt_clust_7="13000.00000" pt_clust_8="13000.00000" pt_clust_9="21.35098"></scales>
<clustering>
<clus scale="   21.351">  1  9  2 -1</clus>
<clus scale="   88.538">  7  8 -1 -1</clus>
<clus scale="   91.485">  5  6 -1 -1</clus>
<clus scale="  110.814">  1  7  2 -1</clus>
<clus scale="  113.183">  2  5  1 -1</clus>
</clustering>
</event>
<event>
 9    1  0.1713970E-005  0.9753399E+02  0.7546771E-02  0.1285754E+00
          1   -1    0    0  502    0  0.00000000000E+00  0.00000000000E+00  0.38016141722E+03  0.38016141722E+03  0.00000000000E+00 0. -1.
         -1   -1    0    0    0  501 -0.00000000000E+00 -0.00000000000E+00 -0.37877078551E+02  0.37877078551E+02  0.00000000000E+00 0.  1.
         23    2    1    2    0    0  0.51182025096E+02 -0.10633679820E+02  0.17530349427E+03  0.20454130652E+03  0.91504951394E+02 0.  0.
         23    2    1    2    0    0 -0.16376270616E+02 -0.47440675355E+01  0.13508002014E+03  0.16384259987E+03  0.91143278818E+02 0.  0.
        -11    1    4    4    0    0 -0.50134675585E+02  0.16488055868E+02  0.73827695140E+02  0.90751695587E+02  0.00000000000E+00 0. -1.
         11    1    4    4    0    0  0.33758404969E+02 -0.21232123404E+02  0.61252325000E+02  0.73090904278E+02  0.00000000000E+00 0.  1.
        -13    1    3    3    0    0  0.35341841051E+02  0.37504755026E+02  0.11325007286E+03  0.12442359656E+03  0.00000000000E+00 0. -1.
         13    1    3    3    0    0  0.15840184045E+02 -0.48138434847E+02  0.62053421409E+02  0.80117709957E+02  0.00000000000E+00 0.  1.
         21    1    1    2  502  501 -0.34805754480E+02  0.15377747356E+02  0.31900824260E+02  0.49654589387E+02  0.00000000000E+00 0. -1.
<scales pt_clust_5="13000.00000" pt_clust_6="13000.00000" pt_clust_7="13000.00000" pt_clust_8="13000.00000" pt_clust_9="38.05149"></scales>
<clustering>
<clus scale="   38.051">  2  9  1 -1</clus>
<clus scale="   91.143">  5  6 -1 -1</clus>
<clus scale="   91.505">  7  8 -1 -1</clus>
<clus scale="   97.195">  1  5  2 -1</clus>
<clus scale="   97.195">  1  5  2 -1</clus>
</clustering>
</event>
<event>
 9    1  0.1713970E-005  0.3662360E+03  0.7546771E-02  0.1056210E+00
         -1   -1    0    0    0  501 -0.00000000000E+00  0.00000000000E+00  0.12489374888E+03  0.12489374888E+03  0.00000000000E+00 0.  1.
          1   -1    0    0  502    0  0.00000000000E+00 -0.00000000000E+00 -0.12499825324E+04  0.12499825324E+04  0.00000000000E+00 0. -1.
         23    2    1    2    0    0  0.12406466037E+03 -0.32354063547E+03 -0.41413792041E+03  0.54709373507E+03  0.87924712575E+02 0.  0.
         23    2    1    2    0    0 -0.11081630805E+03  0.34324033712E+03 -0.71276211284E+03  0.80397335237E+03  0.90824769006E+02 0.  0.
        -11    1    4    4    0    0 -0.49597725348E+02  0.63471811768E+02 -0.21655636005E+03  0.23105250989E+03  0.00000000000E+00 0. -1.
         11    1    4    4    0    0 -0.61218582704E+02  0.27976852535E+03 -0.49620575279E+03  0.57292084248E+03  0.00000000000E+00 0.  1.
        -13    1    3    3    0    0  0.23175207658E+02 -0.42267281243E+02 -0.11302033492E+03  0.12287070204E+03  0.00000000000E+00 0.  1.
         13    1    3    3    0    0  0.10088945271E+03 -0.28127335423E+03 -0.30111758549E+03  0.42422303304E+03  0.00000000000E+00 0. -1.
         21    1    1    2  502  501 -0.13248352320E+02 -0.19699701647E+02  0.18112497684E+01  0.23809193811E+02  0.00000000000E+00 0. -1.
<scales pt_clust_5="13000.00000" pt_clust_6="13000.00000" pt_clust_7="13000.00000" pt_clust_8="13000.00000" pt_clust_9="23.74020"></scales>
<clustering>
<clus scale="   23.740">  1  9  2 -1</clus>
<clus scale="   87.925">  7  8 -1 -1</clus>
<clus scale="   90.825">  5  6 -1 -1</clus>
<clus scale="  365.528">  1  7  2 -1</clus>
<clus scale="  366.236">  2  5  1 -1</clus>
</clustering>
</event>
<event>
 9    1  0.1713970E-005  0.1054907E+03  0.7546771E-02  0.1278833E+00
          1   -1    0    0  502    0  0.00000000000E+00  0.00000000000E+00  0.52925092072E+03  0.52925092072E+03  0.00000000000E+00 0. -1.
         -1   -1    0    0    0  501 -0.00000000000E+00 -0.00000000000E+00 -0.53078553062E+02  0.53078553062E+02  0.00000000000E+00 0.  1.
         23    2    1    2    0    0 -0.14950931149E+02 -0.13002842624E+02  0.38717788820E+02  0.96856727072E+02  0.86542210218E+02 0.  0.
         23    2    1    2    0    0  0.60473010927E+01 -0.70078894564E+02  0.28455601803E+03  0.31123205232E+03  0.10462142077E+03 0.  0.
        -11    1    4    4    0    0  0.44319816013E+02 -0.59509121525E+02  0.11330636847E+03  0.13543970899E+03  0.00000000000E+00 0.  1.
         11    1    4    4    0    0 -0.38272514920E+02 -0.10569773038E+02  0.17124964956E+03  0.17579234333E+03  0.00000000000E+00 0. -1.
        -11    1    3    3    0    0  0.35939806362E+02  0.98264027286E+00  0.17301089659E+02  0.39899410605E+02  0.00000000000E+00 0. -1.
         11    1    3    3    0    0 -0.50890737510E+02 -0.13985482897E+02  0.21416699162E+02  0.56957316467E+02  0.00000000000E+00 0.  1.
         21    1    1    2  502  501  0.89036300560E+01  0.83081737188E+02  0.15289856081E+03  0.17424069438E+03  0.00000000000E+00 0. -1.
<scales pt_clust_5="13000.00000" pt_clust_6="13000.00000" pt_clust_7="13000.00000" pt_clust_8="13000.00000" pt_clust_9="83.55746"></scales>
<clustering>
<clus scale="   83.557">  1  9  2 -1</clus>
<clus scale="   86.542">  7  8 -1 -1</clus>
<clus scale="   87.591">  2  7  1 -1</clus>
<clus scale="  104.621">  5  6 -1 -1</clus>
<clus scale="   83.557">  1  5  2 -1</clus>
</clustering>
</event>
<event>
 9    1  0.1713970E-005  0.9364058E+02  0.7546771E-02  0.1294676E+00
         -1   -1    0    0    0  501 -0.00000000000E+00  0.00000000000E+00  0.10639583436E+03  0.10639583436E+03  0.00000000000E+00 0.  1.
          1   -1    0    0  502    0  0.00000000000E+00 -0.00000000000E+00 -0.31928996461E+03  0.31928996461E+03  0.00000000000E+00 0. -1.
         23    2    1    2    0    0  0.19495808277E+02 -0.37298964291E+02  0.30665903446E+02  0.10461407739E+03  0.90732619692E+02 0.  0.
         23    2    1    2    0    0  0.36812162895E+02 -0.17718696802E+02 -0.49665703133E+02  0.11180504464E+03  0.91458178344E+02 0.  0.
        -11    1    3    3    0    0  0.42810544901E+02 -0.40661517222E+02 -0.77515207326E+01  0.59549876668E+02  0.00000000000E+00 0.  1.
         11    1    3    3    0    0 -0.23314736624E+02  0.33625529313E+01  0.38417424178E+02  0.45064200720E+02  0.00000000000E+00 0. -1.
        -11    1    4    4    0    0  0.55368660848E+02 -0.26933335151E+02 -0.62256203814E+02  0.87560996225E+02  0.00000000000E+00 0. -1.
         11    1    4    4    0    0 -0.18556497953E+02  0.92146383495E+01  0.12590500681E+02  0.24244048416E+02  0.00000000000E+00 0.  1.
         21    1    1    2  502  501 -0.56307971172E+02  0.55017661093E+02 -0.19389433056E+03  0.20926667693E+03  0.00000000000E+00 0. -1.
<scales pt_clust_5="13000.00000" pt_clust_6="13000.00000" pt_clust_7="13000.00000" pt_clust_8="13000.00000" pt_clust_9="78.72440"></scales>
<clustering>
<clus scale="   78.724">  2  9  1 -1</clus>
<clus scale="   90.733">  5  6 -1 -1</clus>
<clus scale="   91.458">  7  8 -1 -1</clus>
<clus scale="   92.932">  1  5  2 -1</clus>
<clus scale="   78.724">  2  5  1 -1</clus>
</clustering>
</event>
<event>
 9    1  0.1713970E-005  0.9788635E+02  0.7546771E-02  0.1286598E+00
         -2   -1    0    0    0  501 -0.00000000000E+00  0.00000000000E+00  0.15782791376E+03  0.15782791376E+03  0.00000000000E+00 0.  1.
          2   -1    0    0  502    0  0.00000000000E+00 -0.00000000000E+00 -0.11875395989E+03  0.11875395989E+03  0.00000000000E+00 0. -1.
         23    2    1    2    0    0  0.38176049205E+02  0.12347941318E+02 -0.90729044561E+01  0.97631181363E+02  0.88541784438E+02 0.  0.
         23    2    1    2    0    0 -0.29391744118E+02  0.10116206267E+02 -0.26361790850E+02  0.10063504414E+03  0.92012259191E+02 0.  0.
        -13    1    4    4    0    0 -0.47113724405E+02  0.30410483736E+02 -0.41470842910E+02  0.69744758657E+02  0.00000000000E+00 0. -1.
         13    1    4    4    0    0  0.17721980288E+02 -0.20294277469E+02  0.15109052060E+02  0.30890285487E+02  0.00000000000E+00 0.  1.
        -13    1    3    3    0    0  0.60635429866E+02  0.30857633090E+02 -0.80397784896E+01  0.68509027967E+02  0.00000000000E+00 0.  1.
         13    1    3    3    0    0 -0.22459380661E+02 -0.18509691772E+02 -0.10331259665E+01  0.29122153396E+02  0.00000000000E+00 0. -1.
         21    1    1    2  502  501 -0.87843050873E+01 -0.22464147585E+02  0.74508649175E+02  0.78315648146E+02  0.00000000000E+00 0.  1.
<scales pt_clust_5="13000.00000" pt_clust_6="13000.00000" pt_clust_7="13000.00000" pt_clust_8="13000.00000" pt_clust_9="24.12057"></scales>
<clustering>
<clus scale="   24.121">  1  9  2 -1</clus>
<clus scale="   88.542">  7  8 -1 -1</clus>
<clus scale="   92.012">  5  6 -1 -1</clus>
<clus scale="   94.632">  1  7  2 -1</clus>
<clus scale="   97.886">  2  5  1 -1</clus>
</clustering>
</event>
<event>
 9    1  0.1713970E-005  0.2946796E+03  0.7546771E-02  0.1087946E+00
          2   -1    0    0  502    0  0.00000000000E+00  0.00000000000E+00  0.65779842613E+03  0.65779842613E+03  0.00000000000E+00 0. -1.
         -2   -1    0    0    0  501 -0.00000000000E+00 -0.00000000000E+00 -0.23301337550E+03  0.23301337550E+03  0.00000000000E+00 0.  1.
         23    2    1    2    0    0  0.11254670270E+03 -0.29259575649E+03  0.28240181435E+03  0.43147331953E+03  0.90218643959E+02 0.  0.
         23    2    1    2    0    0 -0.78574046131E+02  0.24050243025E+03  0.22874446756E+03  0.35291424472E+03  0.90604265933E+02 0.  0.
        -11    1    3    3    0    0  0.30864863152E+02 -0.11842387297E+03  0.56598985007E+02  0.13483433750E+03  0.00000000000E+00 0.  1.
         11    1    3    3    0    0  0.81681839544E+02 -0.17417188352E+03  0.22580282934E+03  0.29663898203E+03  0.00000000000E+00 0. -1.
        -11    1    4    4    0    0 -0.96450846465E+02  0.21557657409E+03  0.18769907753E+03  0.30167361301E+03  0.00000000000E+00 0. -1.
         11    1    4    4    0    0  0.17876800333E+02  0.24925856162E+02  0.41045390031E+02  0.51240631713E+02  0.00000000000E+00 0.  1.
         21    1    1    2  502  501 -0.33972656565E+02  0.52093326237E+02 -0.86361231277E+02  0.10642423737E+03  0.00000000000E+00 0. -1.
<scales pt_clust_5="13000.00000" pt_clust_6="13000.00000" pt_clust_7="13000.00000" pt_clust_8="13000.00000" pt_clust_9="62.19209"></scales>
<clustering>
<clus scale="   62.192">  2  9  1 -1</clus>
<clus scale="   90.219">  5  6 -1 -1</clus>
<clus scale="   90.604">  7  8 -1 -1</clus>
<clus scale="  294.561">  2  5  1 -1</clus>
<clus scale="  294.680">  1  5  2 -1</clus>
</clustering>
</event>
<event>
 9    1  0.1713970E-005  0.1471396E+03  0.7546771E-02  0.1204985E+00
         -3   -1    0    0    0  501 -0.00000000000E+00  0.00000000000E+00  0.48658119370E+03  0.48658119370E+03  0.00000000000E+00 0.  1.
          3   -1    0    0  502    0  0.00000000000E+00 -0.00000000000E+00 -0.14020137353E+03  0.14020137353E+03  0.00000000000E+00 0. -1.
         23    2    1    2    0    0  0.78970626185E+02  0.12201118702E+03  0.19014251334E+03  0.25640306001E+03  0.92006870625E+02 0.  0.
         23    2    1    2    0    0 -0.53024695407E+02 -0.94765888405E+02 -0.59477944432E+02  0.15140789434E+03  0.87146615926E+02 0.  0.
        -13    1    4    4    0    0 -0.46775242862E+01 -0.41971285723E+02 -0.67239076073E+02  0.79401268314E+02  0.00000000000E+00 0. -1.
         13    1    4    4    0    0 -0.48347171121E+02 -0.52794602681E+02  0.77611316417E+01  0.72006626029E+02  0.00000000000E+00 0.  1.
        -13    1    3    3    0    0  0.27917351464E+02  0.71804350970E+02  0.33184550370E+02  0.83883596217E+02  0.00000000000E+00 0. -1.
         13    1    3    3    0    0  0.51053274720E+02  0.50206836052E+02  0.15695796297E+03  0.17251946379E+03  0.00000000000E+00 0.  1.
         21    1    1    2  502  501 -0.25945930778E+02 -0.27245298618E+02  0.21571525126E+03  0.21897161288E+03  0.00000000000E+00 0.  1.
<scales pt_clust_5="13000.00000" pt_clust_6="13000.00000" pt_clust_7="13000.00000" pt_clust_8="13000.00000" pt_clust_9="37.62310"></scales>
<clustering>
<clus scale="   37.623">  1  9  2 -1</clus>
<clus scale="   87.147">  5  6 -1 -1</clus>
<clus scale="   92.007">  7  8 -1 -1</clus>
<clus scale="  144.150">  2  5  1 -1</clus>
<clus scale="  144.150">  2  5  1 -1</clus>
</clustering>
</event>
<event>
 9    1  0.1713970E-005  0.1473100E+03  0.7546771E-02  0.1224538E+00
          2   -1    0    0  502    0  0.00000000000E+00  0.00000000000E+00  0.36122231525E+03  0.36122231525E+03  0.00000000000E+00 0. -1.
         -2   -1    0    0    0  501 -0.00000000000E+00 -0.00000000000E+00 -0.11795865671E+03  0.11795865671E+03  0.00000000000E+00 0.  1.
         23    2    1    2    0    0  0.59398576047E+02  0.84323759959E+02  0.20833787962E+03  0.25248631501E+03  0.98518931451E+02 0.  0.
         23    2    1    2    0    0  0.20523128417E+01  0.77964014517E+01  0.61116391292E+02  0.11290412984E+03  0.94589287912E+02 0.  0.
        -11    1    4    4    0    0 -0.31649044661E+02  0.31806831501E+02  0.80096836374E+01  0.45579508445E+02  0.00000000000E+00 0. -1.
         11    1    4    4    0    0  0.33701357503E+02 -0.24010430050E+02  0.53106707654E+02  0.67324621399E+02  0.00000000000E+00 0.  1.
        -13    1    3    3    0    0  0.39880279675E+02  0.29815345544E+02  0.17055176543E+02  0.52633359989E+02  0.00000000000E+00 0.  1.
         13    1    3    3    0    0  0.19518296372E+02  0.54508414415E+02  0.19128270307E+03  0.19985295502E+03  0.00000000000E+00 0. -1.
         21    1    1    2  502  501 -0.61450888889E+02 -0.92120161411E+02 -0.26190612361E+02  0.11379052711E+03  0.00000000000E+00 0.  1.
<scales pt_clust_5="13000.00000" pt_clust_6="13000.00000" pt_clust_7="13000.00000" pt_clust_8="13000.00000" pt_clust_9="109.51834"></scales>
<clustering>
<clus scale="   94.589">  5  6 -1 -1</clus>
<clus scale="   94.932">  1  5  2 -1</clus>
<clus scale="   98.519">  7  8 -1 -1</clus>
<clus scale="  109.518">  2  9  1 -1</clus>
<clus scale="   94.932">  1  5  2 -1</clus>
</clustering>
</event>
<event>
 9    1  0.1713970E-005  0.1623587E+03  0.7546771E-02  0.1186940E+00
          1   -1    0    0  502    0  0.00000000000E+00  0.00000000000E+00  0.18375881764E+03  0.18375881764E+03  0.00000000000E+00 0. -1.
         -1   -1    0    0    0  501 -0.00000000000E+00 -0.00000000000E+00 -0.16782840888E+03  0.16782840888E+03  0.00000000000E+00 0.  1.
         23    2    1    2    0    0 -0.12971336247E+03  0.50685292865E+02 -0.17748155889E+02  0.16380283734E+03  0.84390859503E+02 0.  0.
         23    2    1    2    0    0  0.12936573487E+03 -0.29513332784E+02  0.40623302841E+02  0.16549981767E+03  0.90185402060E+02 0.  0.
        -11    1    3    3    0    0 -0.69335538325E+02  0.62173324485E+02  0.14732972290E+02  0.94286794541E+02  0.00000000000E+00 0. -1.
         11    1    3    3    0    0 -0.60377824147E+02 -0.11488031619E+02 -0.32481128178E+02  0.69516042803E+02  0.00000000000E+00 0.  1.
        -13    1    4    4    0    0  0.28261437159E+02 -0.27216468406E+02 -0.23517689091E+02  0.45744143701E+02  0.00000000000E+00 0.  1.
         13    1    4    4    0    0  0.10110429771E+03 -0.22968643778E+01  0.64140991932E+02  0.11975567397E+03  0.00000000000E+00 0. -1.
         21    1    1    2  502  501  0.34762760012E+00 -0.21171960082E+02 -0.69447381848E+01  0.22284571504E+02  0.00000000000E+00 0. -1.
<scales pt_clust_5="13000.00000" pt_clust_6="13000.00000" pt_clust_7="13000.00000" pt_clust_8="13000.00000" pt_clust_9="21.17481"></scales>
<clustering>
<clus scale="   21.175">  2  9  1 -1</clus>
<clus scale="   84.391">  5  6 -1 -1</clus>
<clus scale="   90.185">  7  8 -1 -1</clus>
<clus scale="  159.213">  2  5  1 -1</clus>
<clus scale="  162.359">  1  5  2 -1</clus>
</clustering>
</event>
<event>
 9    1  0.1713970E-005  0.1062867E+03  0.7546771E-02  0.1268932E+00
          1   -1    0    0  502    0  0.00000000000E+00  0.00000000000E+00  0.10228163575E+03  0.10228163575E+03  0.00000000000E+00 0. -1.
         -1   -1    0    0    0  501 -0.00000000000E+00 -0.00000000000E+00 -0.21529021330E+03  0.21529021330E+03  0.00000000000E+00 0.  1.
         23    2    1    2    0    0  0.16693315577E+02  0.41446185714E+02 -0.70717150057E+02  0.12621669551E+03  0.94516061165E+02 0.  0.
         23    2    1    2    0    0 -0.64277043226E+02  0.48669744560E+01  0.13276562435E+01  0.11190866584E+03  0.91468907798E+02 0.  0.
        -11    1    3    3    0    0 -0.21431800829E+02 -0.70821611856E+01 -0.59307576801E+02  0.63457606004E+02  0.00000000000E+00 0. -1.
         11    1    3    3    0    0  0.38125116405E+02  0.48528346900E+02 -0.11409573256E+02  0.62759089506E+02  0.00000000000E+00 0.  1.
        -11    1    4    4    0    0 -0.31060079570E+02  0.16161709139E+02 -0.42951588466E+02  0.55414513775E+02  0.00000000000E+00 0.  1.
         11    1    4    4    0    0 -0.33216963656E+02 -0.11294734683E+02  0.44279244709E+02  0.56494152070E+02  0.00000000000E+00 0. -1.
         21    1    1    2  502  501  0.47583727650E+02 -0.46313160170E+02 -0.43619083736E+02  0.79446487701E+02  0.00000000000E+00 0. -1.
<scales pt_clust_5="13000.00000" pt_clust_6="13000.00000" pt_clust_7="13000.00000" pt_clust_8="13000.00000" pt_clust_9="66.40120"></scales>
<clustering>
<clus scale="   66.401">  2  9  1 -1</clus>
<clus scale="   91.469">  7  8 -1 -1</clus>
<clus scale="   94.516">  5  6 -1 -1</clus>
<clus scale="  103.586">  1  7  2 -1</clus>
<clus scale="  103.586">  1  5  2 -1</clus>
</clustering>
</event>
<event>
 9    1  0.1713970E-005  0.1592636E+03  0.7546771E-02  0.1189975E+00
         -1   -1    0    0    0  501 -0.00000000000E+00  0.00000000000E+00  0.12164434564E+03  0.12164434564E+03  0.00000000000E+00 0.  1.
          1   -1    0    0  502    0  0.00000000000E+00 -0.00000000000E+00 -0.31691538346E+03  0.31691538346E+03  0.00000000000E+00 0. -1.
         23    2    1    2    0    0 -0.73184019107E+02 -0.13533721893E+03 -0.91273668101E+02  0.20172368867E+03  0.93217490848E+02 0.  0.
         23    2    1    2    0    0  0.31907531707E+02  0.10627281646E+03 -0.11357031629E+03  0.18545385277E+03  0.95827515174E+02 0.  0.
        -13    1    4    4    0    0 -0.10074369121E+02  0.10236482875E+03 -0.92431234754E+02  0.13828804806E+03  0.00000000000E+00 0.  1.
         13    1    4    4    0    0  0.41981900828E+02  0.39079877095E+01 -0.21139081541E+02  0.47165804705E+02  0.00000000000E+00 0. -1.
        -13    1    3    3    0    0 -0.36643149711E+02 -0.20899357501E+02  0.11397093827E+02  0.43696651043E+02  0.00000000000E+00 0.  1.
         13    1    3    3    0    0 -0.36540869396E+02 -0.11443786143E+03 -0.10267076193E+03  0.15802703763E+03  0.00000000000E+00 0. -1.
         21    1    1    2  502  501  0.41276487400E+02  0.29064402473E+02  0.95729465681E+01  0.51382187664E+02  0.00000000000E+00 0.  1.
<scales pt_clust_5="13000.00000" pt_clust_6="13000.00000" pt_clust_7="13000.00000" pt_clust_8="13000.00000" pt_clust_9="50.48255"></scales>
<clustering>
<clus scale="   50.483">  1  9  2 -1</clus>
<clus scale="   93.217">  7  8 -1 -1</clus>
<clus scale="   95.828">  5  6 -1 -1</clus>
<clus scale="  157.707">  1  7  2 -1</clus>
<clus scale="  159.264">  2  5  1 -1</clus>
</clustering>
</event>
<event>
 9    1  0.1713970E-005  0.1190213E+03  0.7546771E-02  0.1245642E+00
          1   -1    0    0  502    0  0.00000000000E+00  0.00000000000E+00  0.66159044104E+02  0.66159044104E+02  0.00000000000E+00 0. -1.
         -1   -1    0    0    0  501 -0.00000000000E+00 -0.00000000000E+00 -0.36373073590E+03  0.36373073590E+03  0.00000000000E+00 0.  1.
         23    2    1    2    0    0  0.37781831880E+02 -0.76330264487E+02 -0.89301225675E+02  0.15309714696E+03  0.90610437602E+02 0.  0.
         23    2    1    2    0    0 -0.11288906458E+02  0.64802097672E+02 -0.66682438776E+02  0.13228677429E+03  0.93415693218E+02 0.  0.
        -13    1    3    3    0    0  0.15672460751E+02  0.17253857064E+02 -0.36737184522E+02  0.43507957159E+02  0.00000000000E+00 0. -1.
         13    1    3    3    0    0  0.22109371129E+02 -0.93584121551E+02 -0.52564041153E+02  0.10958918980E+03  0.00000000000E+00 0.  1.
        -13    1    4    4    0    0 -0.16686103242E+02  0.87203382930E+02 -0.41037960284E+02  0.97810890089E+02  0.00000000000E+00 0. -1.
         13    1    4    4    0    0  0.53971967841E+01 -0.22401285258E+02 -0.25644478492E+02  0.34475884201E+02  0.00000000000E+00 0.  1.
         21    1    1    2  502  501 -0.26492925422E+02  0.11528166815E+02 -0.14158802734E+03  0.14450585876E+03  0.00000000000E+00 0.  1.
<scales pt_clust_5="13000.00000" pt_clust_6="13000.00000" pt_clust_7="13000.00000" pt_clust_8="13000.00000" pt_clust_9="28.89245"></scales>
<clustering>
<clus scale="   28.892">  2  9  1 -1</clus>
<clus scale="   90.610">  5  6 -1 -1</clus>
<clus scale="   93.416">  7  8 -1 -1</clus>
<clus scale="  116.833">  2  5  1 -1</clus>
<clus scale="  119.021">  1  5  2 -1</clus>
</clustering>
</event>
<event>
 9    1  0.1713970E-005  0.1261692E+03  0.7546771E-02  0.1233341E+00
         -1   -1    0    0    0  501 -0.00000000000E+00  0.00000000000E+00  0.47680636003E+03  0.47680636003E+03  0.00000000000E+00 0.  1.
          1   -1    0    0  502    0  0.00000000000E+00 -0.00000000000E+00 -0.57357897242E+02  0.57357897242E+02  0.00000000000E+00 0. -1.
         23    2    1    2    0    0  0.49648424991E+02  0.15398114061E+02  0.22209838865E+03  0.24553459948E+03  0.90870662389E+02 0.  0.
         23    2    1    2    0    0 -0.10667734841E+03 -0.12191993039E+02  0.89393812987E+02  0.16649394786E+03  0.90555394735E+02 0.  0.
        -11    1    3    3    0    0 -0.26496216687E+02  0.68909853912E+01  0.46726983330E+02  0.54156681485E+02  0.00000000000E+00 0. -1.
         11    1    3    3    0    0  0.76144641678E+02  0.85071286693E+01  0.17537140532E+03  0.19137791800E+03  0.00000000000E+00 0.  1.
        -11    1    4    4    0    0 -0.75760532235E+02  0.11475729204E+02  0.89792760044E+01  0.77149063525E+02  0.00000000000E+00 0. -1.
         11    1    4    4    0    0 -0.30916816173E+02 -0.23667722242E+02  0.80414536983E+02  0.89344884334E+02  0.00000000000E+00 0.  1.
         21    1    1    2  502  501  0.57028923417E+02 -0.32061210219E+01  0.10795626116E+03  0.12213570994E+03  0.00000000000E+00 0.  1.
<scales pt_clust_5="13000.00000" pt_clust_6="13000.00000" pt_clust_7="13000.00000" pt_clust_8="13000.00000" pt_clust_9="57.11898"></scales>
<clustering>
<clus scale="   57.119">  1  9  2 -1</clus>
<clus scale="   90.555">  7  8 -1 -1</clus>
<clus scale="   90.871">  5  6 -1 -1</clus>
<clus scale="  125.942">  2  7  1 -1</clus>
<clus scale="  125.942">  2  5  1 -1</clus>
</clustering>
</event>
<event>
 9    1  0.1713970E-005  0.1137916E+03  0.7546771E-02  0.1256097E+00
          1   -1    0    0  502    0  0.00000000000E+00  0.00000000000E+00  0.72245116000E+02  0.72245116000E+02  0.00000000000E+00 0. -1.
         -1   -1    0    0    0  501 -0.00000000000E+00 -0.00000000000E+00 -0.28057403770E+03  0.28057403770E+03  0.00000000000E+00 0.  1.
         23    2    1    2    0    0 -0.25325741937E+00 -0.87696987033E+02 -0.13287713930E+03  0.18361298675E+03  0.91468951453E+02 0.  0.
         23    2    1    2    0    0  0.22272163652E+01  0.59855627808E+02 -0.18078244476E+02  0.10540365406E+03  0.84826002456E+02 0.  0.
        -11    1    4    4    0    0  0.37078923722E+02  0.80048552712E+01 -0.20032701955E+02  0.42897942141E+02  0.00000000000E+00 0.  1.
         11    1    4    4    0    0 -0.34851707357E+02  0.51850772537E+02  0.19544574789E+01  0.62505711919E+02  0.00000000000E+00 0. -1.
        -13    1    3    3    0    0 -0.39914580841E+02 -0.73298550688E+02 -0.99108768717E+02  0.12957005570E+03  0.00000000000E+00 0.  1.
         13    1    3    3    0    0  0.39661323422E+02 -0.14398436345E+02 -0.33768370582E+02  0.54042931051E+02  0.00000000000E+00 0. -1.
         21    1    1    2  502  501 -0.19739589459E+01  0.27841359225E+02 -0.57373537925E+02  0.63802512893E+02  0.00000000000E+00 0.  1.
<scales pt_clust_5="13000.00000" pt_clust_6="13000.00000" pt_clust_7="13000.00000" pt_clust_8="13000.00000" pt_clust_9="27.91125"></scales>
<clustering>
<clus scale="   27.911">  2  9  1 -1</clus>
<clus scale="   84.826">  5  6 -1 -1</clus>
<clus scale="   91.469">  7  8 -1 -1</clus>
<clus scale="  108.524">  1  5  2 -1</clus>
<clus scale="  108.524">  1  5  2 -1</clus>
</clustering>
</event>
<event>
 9    1  0.1713970E-005  0.9423232E+02  0.7546771E-02  0.1294438E+00
          2   -1    0    0  502    0  0.00000000000E+00  0.00000000000E+00  0.17142246037E+03  0.17142246037E+03  0.00000000000E+00 0. -1.
         -2   -1    0    0    0  501 -0.00000000000E+00 -0.00000000000E+00 -0.45411628850E+03  0.45411628850E+03  0.00000000000E+00 0.  1.
         23    2    1    2    0    0  0.98231756028E+01 -0.15493556408E+02 -0.39724296266E+03  0.40833748148E+03  0.92741481150E+02 0.  0.
         23    2    1    2    0    0  0.34283454544E+02 -0.10989654272E+02  0.13117137220E+03  0.16313599151E+03  0.90062728609E+02 0.  0.
        -11    1    3    3    0    0 -0.50776471316E+01 -0.52125061428E+02 -0.27211702964E+03  0.27711095675E+03  0.00000000000E+00 0.  1.
         11    1    3    3    0    0  0.14900822734E+02  0.36631505020E+02 -0.12512593302E+03  0.13122652473E+03  0.00000000000E+00 0. -1.
        -11    1    4    4    0    0 -0.43452576528E+01  0.35756347310E+02  0.42479101136E+02  0.55694449188E+02  0.00000000000E+00 0.  1.
         11    1    4    4    0    0  0.38628712197E+02 -0.46746001582E+02  0.88692271065E+02  0.10744154232E+03  0.00000000000E+00 0. -1.
         21    1    1    2  502  501 -0.44106630147E+02  0.26483210680E+02 -0.16622237672E+02  0.54065275880E+02  0.00000000000E+00 0.  1.
<scales pt_clust_5="13000.00000" pt_clust_6="13000.00000" pt_clust_7="13000.00000" pt_clust_8="13000.00000" pt_clust_9="51.44663"></scales>
<clustering>
<clus scale="   51.447">  1  9  2 -1</clus>
<clus scale="   90.063">  7  8 -1 -1</clus>
<clus scale="   91.597">  1  7  2 -1</clus>
<clus scale="   92.741">  5  6 -1 -1</clus>
<clus scale="   51.447">  1  5  2 -1</clus>
</clustering>
</event>
<event>
 9    1  0.1713970E-005  0.9527075E+02  0.7546771E-02  0.1291555E+00
          3   -1    0    0  502    0  0.00000000000E+00  0.00000000000E+00  0.51318789931E+02  0.51318789931E+02  0.00000000000E+00 0. -1.
         -3   -1    0    0    0  501 -0.00000000000E+00 -0.00000000000E+00 -0.41309123560E+03  0.41309123560E+03  0.00000000000E+00 0.  1.
         23    2    1    2    0    0 -0.33457549360E+02  0.27447025672E+02 -0.29285332178E+03  0.30947579944E+03  0.90218931123E+02 0.  0.
         23    2    1    2    0    0  0.21302524554E+02 -0.48089983130E+01 -0.15750629045E+02  0.95882437342E+02  0.92024102594E+02 0.  0.
        -13    1    3    3    0    0 -0.58816061609E+02  0.36803851127E+02 -0.24365998358E+03  0.25334569300E+03  0.00000000000E+00 0.  1.
         13    1    3    3    0    0  0.25358512249E+02 -0.93568254546E+01 -0.49193338197E+02  0.56130106440E+02  0.00000000000E+00 0. -1.
        -13    1    4    4    0    0 -0.76062712087E+01  0.34405449223E+02 -0.28730361767E+02  0.45464535466E+02  0.00000000000E+00 0.  1.
         13    1    4    4    0    0  0.28908795763E+02 -0.39214447536E+02  0.12979732722E+02  0.50417901876E+02  0.00000000000E+00 0. -1.
         21    1    1    2  502  501  0.12155024806E+02 -0.22638027359E+02 -0.53168494846E+02  0.59051788753E+02  0.00000000000E+00 0. -1.
<scales pt_clust_5="13000.00000" pt_clust_6="13000.00000" pt_clust_7="13000.00000" pt_clust_8="13000.00000" pt_clust_9="25.69484"></scales>
<clustering>
<clus scale="   25.695">  2  9  1 -1</clus>
<clus scale="   90.219">  5  6 -1 -1</clus>
<clus scale="   92.024">  7  8 -1 -1</clus>
<clus scale="   93.528">  2  5  1 -1</clus>
<clus scale="   95.271">  1  5  2 -1</clus>
</clustering>
</event>
<event>
 9    1  0.1713970E-005  0.1351952E+03  0.7546771E-02  0.1224828E+00
         -2   -1    0    0    0  501 -0.00000000000E+00  0.00000000000E+00  0.97537686303E+02  0.97537686303E+02  0.00000000000E+00 0.  1.
          2   -1    0    0  502    0  0.00000000000E+00 -0.00000000000E+00 -0.27840628427E+03  0.27840628427E+03  0.00000000000E+00 0. -1.
         23    2    1    2    0    0 -0.51032762760E+02  0.46896467513E+02 -0.46971229190E+02  0.13678144777E+03  0.10816305535E+03 0.  0.
         23    2    1    2    0    0  0.54720004412E+02 -0.67748212870E+02 -0.16115942063E+03  0.20464281094E+03  0.91226213233E+02 0.  0.
        -11    1    4    4    0    0  0.77251809397E+02 -0.60968583173E+02 -0.14785489249E+03  0.17761216012E+03  0.00000000000E+00 0. -1.
         11    1    4    4    0    0 -0.22531804985E+02 -0.67796296969E+01 -0.13304528145E+02  0.27030650822E+02  0.00000000000E+00 0.  1.
        -13    1    3    3    0    0 -0.83064532124E+02  0.40080816184E+02 -0.20039665804E+02  0.94381017840E+02  0.00000000000E+00 0.  1.
         13    1    3    3    0    0  0.32031769364E+02  0.68156513292E+01 -0.26931563386E+02  0.42400429928E+02  0.00000000000E+00 0. -1.
         21    1    1    2  502  501 -0.36872416527E+01  0.20851745357E+02  0.27262051859E+02  0.34519711862E+02  0.00000000000E+00 0. -1.
<scales pt_clust_5="13000.00000" pt_clust_6="13000.00000" pt_clust_7="13000.00000" pt_clust_8="13000.00000" pt_clust_9="21.17525"></scales>
<clustering>
<clus scale="   21.175">  1  9  2 -1</clus>
<clus scale="   91.226">  5  6 -1 -1</clus>
<clus scale="  108.163">  7  8 -1 -1</clus>
<clus scale="  122.068">  2  5  1 -1</clus>
<clus scale="  122.068">  2  5  1 -1</clus>
</clustering>
</event>
<event>
 9    1  0.1935109E-005  0.9689506E+02  0.7546771E-02  0.1287429E+00
          1   -1    0    0  502    0  0.00000000000E+00  0.00000000000E+00  0.45043801379E+03  0.45043801379E+03  0.00000000000E+00 0. -1.
         -1   -1    0    0    0  501 -0.00000000000E+00 -0.00000000000E+00 -0.66444796019E+02  0.66444796019E+02  0.00000000000E+00 0.  1.
         23    2    1    2    0    0 -0.13187990806E+02  0.15572419051E+01 -0.75762950818E+01  0.92105999841E+02  0.90828227196E+02 0.  0.
         23    2    1    2    0    0  0.32201454998E+02  0.17172011076E+02  0.38533580103E+03  0.39736958645E+03  0.89928288153E+02 0.  0.
        -11    1    3    3    0    0 -0.39784906446E+02  0.11101431340E+02 -0.33939581093E+02  0.53460038566E+02  0.00000000000E+00 0.  1.
         11    1    3    3    0    0  0.26596915640E+02 -0.95441894351E+01  0.26363286011E+02  0.38645961275E+02  0.00000000000E+00 0. -1.
        -11    1    4    4    0    0 -0.13032612595E+01  0.49725048535E+02  0.17669943803E+03  0.18356734552E+03  0.00000000000E+00 0.  1.
         11    1    4    4    0    0  0.33504716257E+02 -0.32553037459E+02  0.20863636301E+03  0.21380224093E+03  0.00000000000E+00 0. -1.
         21    1    1    2  502  501 -0.19013464192E+02 -0.18729252981E+02  0.62337118175E+01  0.27407223515E+02  0.00000000000E+00 0. -1.
<scales pt_clust_5="13000.00000" pt_clust_6="13000.00000" pt_clust_7="13000.00000" pt_clust_8="13000.00000" pt_clust_9="26.68889"></scales>
<clustering>
<clus scale="   26.689">  2  9  1 -1</clus>
<clus scale="   89.928">  7  8 -1 -1</clus>
<clus scale="   90.828">  5  6 -1 -1</clus>
<clus scale="   96.052">  1  7  2 -1</clus>
<clus scale="   96.052">  1  5  2 -1</clus>
</clustering>
</event>
<event>
 9    1  0.1713970E-005  0.1597749E+03  0.7546771E-02  0.1191564E+00
          1   -1    0    0  502    0  0.00000000000E+00  0.00000000000E+00  0.76496347443E+02  0.76496347443E+02  0.00000000000E+00 0. -1.
         -1   -1    0    0    0  501 -0.00000000000E+00 -0.00000000000E+00 -0.48631845743E+03  0.48631845743E+03  0.00000000000E+00 0.  1.
         23    2    1    2    0    0 -0.13552144161E+03 -0.47873309597E+01 -0.32055256638E+03  0.36356072445E+03  0.10504033926E+03 0.  0.
         23    2    1    2    0    0  0.90276966125E+02  0.21396374060E+02 -0.62101961448E+02  0.14392777207E+03  0.90833994314E+02 0.  0.
        -11    1    4    4    0    0  0.20975927021E+01 -0.23952565556E+02  0.45236350902E+01  0.24466069694E+02  0.00000000000E+00 0.  1.
         11    1    4    4    0    0  0.88179373423E+02  0.45348939616E+02 -0.66625596538E+02  0.11946170238E+03  0.00000000000E+00 0. -1.
        -11    1    3    3    0    0 -0.12373911962E+03  0.32147155861E+02 -0.27804557222E+03  0.30602965475E+03  0.00000000000E+00 0.  1.
         11    1    3    3    0    0 -0.11782321999E+02 -0.36934486821E+02 -0.42506994165E+02  0.57531069705E+02  0.00000000000E+00 0. -1.
         21    1    1    2  502  501  0.45244475489E+02 -0.16609043101E+02 -0.27167582151E+02  0.55326308344E+02  0.00000000000E+00 0. -1.
<scales pt_clust_5="13000.00000" pt_clust_6="13000.00000" pt_clust_7="13000.00000" pt_clust_8="13000.00000" pt_clust_9="48.19671"></scales>
<clustering>
<clus scale="   48.197">  1  9  2 -1</clus>
<clus scale="   90.834">  5  6 -1 -1</clus>
<clus scale="  105.040">  7  8 -1 -1</clus>
<clus scale="  150.816">  1  5  2 -1</clus>
<clus scale="   48.197">  1  5  2 -1</clus>
</clustering>
</event>
<event>
 9    1  0.1713970E-005  0.9368054E+02  0.7546771E-02  0.1294354E+00
          1   -1    0    0  502    0  0.00000000000E+00  0.00000000000E+00  0.27670601101E+03  0.27670601101E+03  0.00000000000E+00 0. -1.
         -1   -1    0    0    0  501 -0.00000000000E+00 -0.00000000000E+00 -0.20478308087E+03  0.20478308087E+03  0.00000000000E+00 0.  1.
         23    2    1    2    0    0 -0.50433030032E+02  0.25936664477E+02 -0.10687932985E+03  0.15213969692E+03  0.92233915386E+02 0.  0.
         23    2    1    2    0    0  0.11953943554E+02  0.10108220458E+02  0.23467899923E+03  0.25252437420E+03  0.91919823736E+02 0.  0.
        -11    1    4    4    0    0 -0.53612087636E+01 -0.39301120903E+02  0.12177037146E+03  0.12806773219E+03  0.00000000000E+00 0.  1.
         11    1    4    4    0    0  0.17315152318E+02  0.49409341360E+02  0.11290862777E+03  0.12445664200E+03  0.00000000000E+00 0. -1.
        -13    1    3    3    0    0 -0.37452798479E+01  0.39377819915E+02 -0.93840299396E+02  0.10183634721E+03  0.00000000000E+00 0.  1.
         13    1    3    3    0    0 -0.46687750184E+02 -0.13441155438E+02 -0.13039030451E+02  0.50303349708E+02  0.00000000000E+00 0. -1.
         21    1    1    2  502  501  0.38479086477E+02 -0.36044884935E+02 -0.55876739250E+02  0.76825020763E+02  0.00000000000E+00 0.  1.
<scales pt_clust_5="13000.00000" pt_clust_6="13000.00000" pt_clust_7="13000.00000" pt_clust_8="13000.00000" pt_clust_9="52.72451"></scales>
<clustering>
<clus scale="   52.725">  2  9  1 -1</clus>
<clus scale="   91.920">  5  6 -1 -1</clus>
<clus scale="   92.234">  7  8 -1 -1</clus>
<clus scale="   93.371">  1  5  2 -1</clus>
<clus scale="   93.371">  1  5  2 -1</clus>
</clustering>
</event>
<event>
 9    1  0.1713970E-005  0.9707097E+02  0.7546771E-02  0.1286663E+00
         -2   -1    0    0    0  501 -0.00000000000E+00  0.00000000000E+00  0.19909885601E+03  0.19909885601E+03  0.00000000000E+00 0.  1.
          2   -1    0    0  502    0  0.00000000000E+00 -0.00000000000E+00 -0.14095787292E+03  0.14095787292E+03  0.00000000000E+00 0. -1.
         23    2    1    2    0    0  0.42013813543E+02  0.19974519560E+02  0.11715275646E+03  0.15334874667E+03  0.87332283829E+02 0.  0.
         23    2    1    2    0    0 -0.42023335015E+02  0.31166530502E+01 -0.10016499442E+03  0.13951910703E+03  0.87503605098E+02 0.  0.
        -11    1    3    3    0    0  0.61546894908E+02 -0.46222102306E+01  0.10012790595E+03  0.11762220305E+03  0.00000000000E+00 0.  1.
         11    1    3    3    0    0 -0.19533081365E+02  0.24596729791E+02  0.17024850503E+02  0.35726543615E+02  0.00000000000E+00 0. -1.
        -13    1    4    4    0    0 -0.61629710237E+02  0.14696243594E+02 -0.39354931382E+02  0.74585597697E+02  0.00000000000E+00 0. -1.
         13    1    4    4    0    0  0.19606375223E+02 -0.11579590544E+02 -0.60810063042E+02  0.64933509329E+02  0.00000000000E+00 0.  1.
         21    1    1    2  502  501  0.95214716833E-02 -0.23091172610E+02  0.41153221057E+02  0.47188875241E+02  0.00000000000E+00 0.  1.
<scales pt_clust_5="13000.00000" pt_clust_6="13000.00000" pt_clust_7="13000.00000" pt_clust_8="13000.00000" pt_clust_9="23.09117"></scales>
<clustering>
<clus scale="   23.091">  1  9  2 -1</clus>
<clus scale="   87.332">  5  6 -1 -1</clus>
<clus scale="   87.504">  7  8 -1 -1</clus>
<clus scale="   96.917">  1  5  2 -1</clus>
<clus scale="   97.071">  2  5  1 -1</clus>
</clustering>
</event>
<event>
 9    1  0.1713970E-005  0.1063107E+03  0.7546771E-02  0.1268636E+00
         -2   -1    0    0    0  501 -0.00000000000E+00  0.00000000000E+00  0.40127198465E+02  0.40127198465E+02  0.00000000000E+00 0.  1.
          2   -1    0    0  502    0  0.00000000000E+00 -0.00000000000E+00 -0.63881550059E+03  0.63881550059E+03  0.00000000000E+00 0. -1.
         23    2    1    2    0    0 -0.49995041624E+02 -0.27686040683E+01 -0.11383038745E+03  0.15559611578E+03  0.93518045224E+02 0.  0.
         23    2    1    2    0    0  0.31899870304E+02 -0.47043014069E+02 -0.44301016358E+03  0.45581979749E+03  0.91011185315E+02 0.  0.
        -11    1    4    4    0    0  0.59071546120E+01 -0.71263470776E+02 -0.31069743620E+03  0.31882012735E+03  0.00000000000E+00 0. -1.
         11    1    4    4    0    0  0.25992715692E+02  0.24220456707E+02 -0.13231272738E+03  0.13699967014E+03  0.00000000000E+00 0.  1.
        -13    1    3    3    0    0 -0.71530648282E+02 -0.11146997133E+02 -0.11070987868E+03  0.13227836718E+03  0.00000000000E+00 0.  1.
         13    1    3    3    0    0  0.21535606658E+02  0.83783930646E+01 -0.31205087773E+01  0.23317748594E+02  0.00000000000E+00 0. -1.
         21    1    1    2  502  501  0.18095171320E+02  0.49811618137E+02 -0.41847751089E+02  0.67526785780E+02  0.00000000000E+00 0. -1.
<scales pt_clust_5="13000.00000" pt_clust_6="13000.00000" pt_clust_7="13000.00000" pt_clust_8="13000.00000" pt_clust_9="52.99653"></scales>
<clustering>
<clus scale="   52.997">  1  9  2 -1</clus>
<clus scale="   91.011">  5  6 -1 -1</clus>
<clus scale="   93.518">  7  8 -1 -1</clus>
<clus scale="  104.112">  2  5  1 -1</clus>
<clus scale="  104.112">  2  5  1 -1</clus>
</clustering>
</event>
<event>
 9    1  0.1713970E-005  0.1759572E+03  0.7546771E-02  0.1200231E+00
         -1   -1    0    0    0  501 -0.00000000000E+00  0.00000000000E+00  0.19316570831E+03  0.19316570831E+03  0.00000000000E+00 0.  1.
          1   -1    0    0  502    0  0.00000000000E+00 -0.00000000000E+00 -0.36907437771E+03  0.36907437771E+03  0.00000000000E+00 0. -1.
         23    2    1    2    0    0 -0.17667675380E+02  0.15539002649E+03 -0.85379232202E+02  0.20025968976E+03  0.91411831650E+02 0.  0.
         23    2    1    2    0    0 -0.13697767763E+02 -0.10095322392E+02 -0.16959334969E+03  0.19361934280E+03  0.91853150565E+02 0.  0.
        -11    1    3    3    0    0 -0.48457418342E+02  0.11760391208E+03 -0.82134517923E+02  0.15140964488E+03  0.00000000000E+00 0. -1.
         11    1    3    3    0    0  0.30789742961E+02  0.37786114409E+02 -0.32447142791E+01  0.48850044877E+02  0.00000000000E+00 0.  1.
        -13    1    4    4    0    0  0.33669686025E+02 -0.18292046257E+02 -0.39973700449E+02  0.55372768044E+02  0.00000000000E+00 0.  1.
         13    1    4    4    0    0 -0.47367453788E+02  0.81967238646E+01 -0.12961964924E+03  0.13824657475E+03  0.00000000000E+00 0. -1.
         21    1    1    2  502  501  0.31365443143E+02 -0.14529470410E+03  0.79063912498E+02  0.16836105346E+03  0.00000000000E+00 0.  1.
<scales pt_clust_5="13000.00000" pt_clust_6="13000.00000" pt_clust_7="13000.00000" pt_clust_8="13000.00000" pt_clust_9="150.34893"></scales>
<clustering>
<clus scale="   91.412">  5  6 -1 -1</clus>
<clus scale="   91.853">  7  8 -1 -1</clus>
<clus scale="   93.416">  2  7  1 -1</clus>
<clus scale="  150.349">  1  9  2 -1</clus>
<clus scale="   93.416">  2  5  1 -1</clus>
</clustering>
</event>
<event>
 9    1  0.1713970E-005  0.9789280E+02  0.7546771E-02  0.1285656E+00
         -1   -1    0    0    0  501 -0.00000000000E+00  0.00000000000E+00  0.23878449814E+03  0.23878449814E+03  0.00000000000E+00 0.  1.
          1   -1    0    0  502    0  0.00000000000E+00 -0.00000000000E+00 -0.57255461999E+02  0.57255461999E+02  0.00000000000E+00 0. -1.
         23    2    1    2    0    0 -0.21495986910E+02  0.23307610185E+02  0.86318473755E+02  0.12868577231E+03  0.90021258248E+02 0.  0.
         23    2    1    2    0    0  0.51603538190E+02 -0.62614964306E+01  0.77615353870E+02  0.12853890732E+03  0.88294824584E+02 0.  0.
        -11    1    4    4    0    0  0.51756914565E+02 -0.30386255008E+02  0.15622923647E+02  0.62017565592E+02  0.00000000000E+00 0. -1.
         11    1    4    4    0    0 -0.15337637529E+00  0.24124758577E+02  0.61992430223E+02  0.66521341731E+02  0.00000000000E+00 0.  1.
        -11    1    3    3    0    0  0.50180373483E+01 -0.31405058711E+02  0.45280228097E+02  0.55333149811E+02  0.00000000000E+00 0. -1.
         11    1    3    3    0    0 -0.26514024258E+02  0.54712668896E+02  0.41038245658E+02  0.73352622494E+02  0.00000000000E+00 0.  1.
         21    1    1    2  502  501 -0.30107551279E+02 -0.17046113755E+02  0.17595208512E+02  0.38815280506E+02  0.00000000000E+00 0. -1.
<scales pt_clust_5="13000.00000" pt_clust_6="13000.00000" pt_clust_7="13000.00000" pt_clust_8="13000.00000" pt_clust_9="34.59819"></scales>
<clustering>
<clus scale="   34.598">  2  9  1 -1</clus>
<clus scale="   88.295">  5  6 -1 -1</clus>
<clus scale="   90.021">  7  8 -1 -1</clus>
<clus scale="   96.308">  2  5  1 -1</clus>
<clus scale="   34.598">  2  5  1 -1</clus>
</clustering>
</event>
<event>
 9    1  0.1713970E-005  0.1453687E+03  0.7546771E-02  0.1206909E+00
          1   -1    0    0  502    0  0.00000000000E+00  0.00000000000E+00  0.41702432010E+03  0.41702432010E+03  0.00000000000E+00 0. -1.
         -1   -1    0    0    0  501 -0.00000000000E+00 -0.00000000000E+00 -0.79280653907E+02  0.79280653907E+02  0.00000000000E+00 0.  1.
         23    2    1    2    0    0 -0.61111941114E+02  0.66157853389E+02  0.22677278326E+02  0.13000231012E+03  0.90965986903E+02 0.  0.
         23    2    1    2    0    0  0.76096459591E+02 -0.90100732267E+02  0.29605607098E+03  0.33225579338E+03  0.93999478468E+02 0.  0.
        -11    1    3    3    0    0 -0.60403064780E+02  0.86451469697E+02  0.27789726493E+02  0.10906262305E+03  0.00000000000E+00 0.  1.
         11    1    3    3    0    0 -0.70887633407E+00 -0.20293616308E+02 -0.51124481670E+01  0.20939687075E+02  0.00000000000E+00 0. -1.
        -11    1    4    4    0    0  0.16073947303E+02  0.19218505244E+02  0.65547062919E+02  0.70172218029E+02  0.00000000000E+00 0.  1.
         11    1    4    4    0    0  0.60022512288E+02 -0.10931923751E+03  0.23050900806E+03  0.26208357535E+03  0.00000000000E+00 0. -1.
         21    1    1    2  502  501 -0.14984518477E+02  0.23942878878E+02  0.19010316883E+02  0.34046870501E+02  0.00000000000E+00 0. -1.
<scales pt_clust_5="13000.00000" pt_clust_6="13000.00000" pt_clust_7="13000.00000" pt_clust_8="13000.00000" pt_clust_9="28.24530"></scales>
<clustering>
<clus scale="   28.245">  2  9  1 -1</clus>
<clus scale="   90.966">  5  6 -1 -1</clus>
<clus scale="   93.999">  7  8 -1 -1</clus>
<clus scale="  143.426">  2  5  1 -1</clus>
<clus scale="  145.369">  1  5  2 -1</clus>
</clustering>
</event>
<event>
 9    1  0.1713970E-005  0.9980723E+02  0.7546771E-02  0.1281276E+00
          1   -1    0    0  502    0  0.00000000000E+00  0.00000000000E+00  0.10448160799E+03  0.10448160799E+03  0.00000000000E+00 0. -1.
         -1   -1    0    0    0  501 -0.00000000000E+00 -0.00000000000E+00 -0.17729032145E+03  0.17729032145E+03  0.00000000000E+00 0.  1.
         23    2    1    2    0    0 -0.51988313823E+02 -0.75123113966E+01 -0.77221873384E+02  0.13121955507E+03  0.92174477525E+02 0.  0.
         23    2    1    2    0    0  0.30976603185E+02  0.15091604471E+02  0.42671574936E+02  0.10625063641E+03  0.91000153618E+02 0.  0.
        -11    1    4    4    0    0  0.49831160261E+02  0.40625570459E+02  0.36447513472E+02  0.73905363448E+02  0.00000000000E+00 0.  1.
         11    1    4    4    0    0 -0.18854557075E+02 -0.25533965988E+02  0.62240614641E+01  0.32345272957E+02  0.00000000000E+00 0. -1.
        -13    1    3    3    0    0 -0.23485419914E+02  0.49248938602E+01  0.18674672706E+02  0.30406626396E+02  0.00000000000E+00 0. -1.
         13    1    3    3    0    0 -0.28502893909E+02 -0.12437205257E+02 -0.95896546090E+02  0.10081292867E+03  0.00000000000E+00 0.  1.
         21    1    1    2  502  501  0.21011710638E+02 -0.75792930749E+01 -0.38258415008E+02  0.44301737961E+02  0.00000000000E+00 0.  1.
<scales pt_clust_5="13000.00000" pt_clust_6="13000.00000" pt_clust_7="13000.00000" pt_clust_8="13000.00000" pt_clust_9="22.33691"></scales>
<clustering>
<clus scale="   22.337">  2  9  1 -1</clus>
<clus scale="   91.000">  5  6 -1 -1</clus>
<clus scale="   92.174">  7  8 -1 -1</clus>
<clus scale="   98.724">  1  5  2 -1</clus>
<clus scale="   98.724">  1  5  2 -1</clus>
</clustering>
</event>
<event>
 9    1  0.1713970E-005  0.1933882E+03  0.7546771E-02  0.1155884E+00
          2   -1    0    0  502    0  0.00000000000E+00  0.00000000000E+00  0.55384714527E+03  0.55384714527E+03  0.00000000000E+00 0. -1.
         -2   -1    0    0    0  501 -0.00000000000E+00 -0.00000000000E+00 -0.30385207642E+03  0.30385207642E+03  0.00000000000E+00 0.  1.
         23    2    1    2    0    0  0.16536645724E+03 -0.93485061507E+02 -0.14685709306E+03  0.25734215532E+03  0.92587565129E+02 0.  0.
         23    2    1    2    0    0 -0.15009156578E+03  0.75459113326E+02  0.47881281025E+03  0.51505873700E+03  0.88330285826E+02 0.  0.
        -11    1    4    4    0    0 -0.11476323290E+03  0.72644848480E+02  0.44786676225E+03  0.46800909218E+03  0.00000000000E+00 0. -1.
         11    1    4    4    0    0 -0.35328332875E+02  0.28142648455E+01  0.30946048006E+02  0.47049644818E+02  0.00000000000E+00 0.  1.
        -11    1    3    3    0    0  0.32612037616E+02 -0.18194842340E+02  0.98247228300E+01  0.38615054887E+02  0.00000000000E+00 0. -1.
         11    1    3    3    0    0  0.13275441962E+03 -0.75290219167E+02 -0.15668181589E+03  0.21872710043E+03  0.00000000000E+00 0.  1.
         21    1    1    2  502  501 -0.15274891465E+02  0.18025948181E+02 -0.81960648343E+02  0.85298329373E+02  0.00000000000E+00 0.  1.
<scales pt_clust_5="13000.00000" pt_clust_6="13000.00000" pt_clust_7="13000.00000" pt_clust_8="13000.00000" pt_clust_9="23.62747"></scales>
<clustering>
<clus scale="   23.627">  2  9  1 -1</clus>
<clus scale="   88.330">  5  6 -1 -1</clus>
<clus scale="   92.588">  7  8 -1 -1</clus>
<clus scale="  191.386">  1  5  2 -1</clus>
<clus scale="  191.386">  1  5  2 -1</clus>
</clustering>
</event>
<event>
 9    1  0.1713970E-005  0.1065114E+03  0.7546771E-02  0.1272392E+00
          1   -1    0    0  502    0  0.00000000000E+00  0.00000000000E+00  0.41464372391E+03  0.41464372391E+03  0.00000000000E+00 0. -1.
         -1   -1    0    0    0  501 -0.00000000000E+00 -0.00000000000E+00 -0.44170796484E+02  0.44170796484E+02  0.00000000000E+00 0.  1.
         23    2    1    2    0    0 -0.16004310000E+02 -0.43594133090E+01  0.49949594577E+02  0.10717728930E+03  0.93364162938E+02 0.  0.
         23    2    1    2    0    0  0.16817362461E+01  0.29160996274E+02  0.29162489785E+03  0.31095094124E+03  0.10388558548E+03 0.  0.
        -11    1    3    3    0    0 -0.53808545381E+02 -0.11718962432E+02  0.20764739842E+02  0.58854634969E+02  0.00000000000E+00 0.  1.
         11    1    3    3    0    0  0.37804235382E+02  0.73595491230E+01  0.29184854734E+02  0.48322654335E+02  0.00000000000E+00 0. -1.
        -11    1    4    4    0    0  0.16886651235E+02 -0.31534525391E+02  0.17482181877E+03  0.17844397889E+03  0.00000000000E+00 0. -1.
         11    1    4    4    0    0 -0.15204914989E+02  0.60695521665E+02  0.11680307908E+03  0.13250696235E+03  0.00000000000E+00 0.  1.
         21    1    1    2  502  501  0.14322573753E+02 -0.24801582965E+02  0.28898434998E+02  0.40686289851E+02  0.00000000000E+00 0.  1.
<scales pt_clust_5="13000.00000" pt_clust_6="13000.00000" pt_clust_7="13000.00000" pt_clust_8="13000.00000" pt_clust_9="28.64009"></scales>
<clustering>
<clus scale="   28.640">  2  9  1 -1</clus>
<clus scale="   93.364">  5  6 -1 -1</clus>
<clus scale="   96.277">  2  5  1 -1</clus>
<clus scale="  103.886">  7  8 -1 -1</clus>
<clus scale="  106.511">  1  5  2 -1</clus>
</clustering>
</event>
<event>
 9    1  0.1713970E-005  0.1084912E+03  0.7546771E-02  0.1263762E+00
          1   -1    0    0  502    0  0.00000000000E+00  0.00000000000E+00  0.48329430859E+03  0.48329430859E+03  0.00000000000E+00 0. -1.
         -1   -1    0    0    0  501 -0.00000000000E+00 -0.00000000000E+00 -0.34742132748E+02  0.34742132748E+02  0.00000000000E+00 0.  1.
         23    2    1    2    0    0 -0.42725197796E+02 -0.10286650386E+02  0.15430210223E+03  0.18519469060E+03  0.92502307927E+02 0.  0.
         23    2    1    2    0    0  0.60248751265E+02  0.26621993368E+02  0.28610056870E+03  0.30753695303E+03  0.91579471000E+02 0.  0.
        -11    1    3    3    0    0 -0.55314259364E+01  0.36491165971E+02  0.31103997686E+02  0.48266557147E+02  0.00000000000E+00 0.  1.
         11    1    3    3    0    0 -0.37193771859E+02 -0.46777816357E+02  0.12319810455E+03  0.13692813346E+03  0.00000000000E+00 0. -1.
        -13    1    4    4    0    0 -0.19056440221E+02  0.20254009914E+02  0.38681093750E+02  0.47640317434E+02  0.00000000000E+00 0.  1.
         13    1    4    4    0    0  0.79305191486E+02  0.63679834541E+01  0.24741947495E+03  0.25989663560E+03  0.00000000000E+00 0. -1.
         21    1    1    2  502  501 -0.17523553469E+02 -0.16335342982E+02  0.81495049083E+01  0.25304797703E+02  0.00000000000E+00 0.  1.
<scales pt_clust_5="13000.00000" pt_clust_6="13000.00000" pt_clust_7="13000.00000" pt_clust_8="13000.00000" pt_clust_9="23.95659"></scales>
<clustering>
<clus scale="   23.957">  2  9  1 -1</clus>
<clus scale="   91.579">  7  8 -1 -1</clus>
<clus scale="   92.502">  5  6 -1 -1</clus>
<clus scale="  107.705">  1  7  2 -1</clus>
<clus scale="  107.705">  1  5  2 -1</clus>
</clustering>
</event>
<event>
 9    1  0.1713970E-005  0.1012609E+03  0.7546771E-02  0.1281766E+00
          1   -1    0    0  502    0  0.00000000000E+00  0.00000000000E+00  0.94018285141E+02  0.94018285141E+02  0.00000000000E+00 0. -1.
         -1   -1    0    0    0  501 -0.00000000000E+00 -0.00000000000E+00 -0.24838990836E+03  0.24838990836E+03  0.00000000000E+00 0.  1.
         23    2    1    2    0    0 -0.19471165227E+02  0.48951032365E+01 -0.10662256593E+03  0.14206614860E+03  0.91713307113E+02 0.  0.
         23    2    1    2    0    0  0.35668292935E+02 -0.34203302226E+02  0.41267323349E+02  0.10523561244E+03  0.83243312912E+02 0.  0.
        -13    1    4    4    0    0  0.56761634159E+02 -0.34782407303E+02  0.49108535275E+02  0.82724526031E+02  0.00000000000E+00 0. -1.
         13    1    4    4    0    0 -0.21093341224E+02  0.57910507628E+00 -0.78412119265E+01  0.22511086406E+02  0.00000000000E+00 0.  1.
        -13    1    3    3    0    0 -0.44007718819E+02  0.34114814177E+02 -0.61036349612E+02  0.82619221952E+02  0.00000000000E+00 0.  1.
         13    1    3    3    0    0  0.24536553592E+02 -0.29219710941E+02 -0.45586216316E+02  0.59446926646E+02  0.00000000000E+00 0. -1.
         21    1    1    2  502  501 -0.16197127708E+02  0.29308198990E+02 -0.89016380637E+02  0.95106432463E+02  0.00000000000E+00 0.  1.
<scales pt_clust_5="13000.00000" pt_clust_6="13000.00000" pt_clust_7="13000.00000" pt_clust_8="13000.00000" pt_clust_9="33.48608"></scales>
<clustering>
<clus scale="   33.486">  2  9  1 -1</clus>
<clus scale="   83.243">  5  6 -1 -1</clus>
<clus scale="   91.713">  7  8 -1 -1</clus>
<clus scale="   93.658">  1  5  2 -1</clus>
<clus scale="   93.658">  1  5  2 -1</clus>
</clustering>
</event>
<event>
 9    1  0.1713970E-005  0.1210740E+03  0.7546771E-02  0.1241441E+00
          1   -1    0    0  502    0  0.00000000000E+00  0.00000000000E+00  0.18239465800E+03  0.18239465800E+03  0.00000000000E+00 0. -1.
         -1   -1    0    0    0  501 -0.00000000000E+00 -0.00000000000E+00 -0.16395804748E+03  0.16395804748E+03  0.00000000000E+00 0.  1.
         23    2    1    2    0    0 -0.85041714191E+02 -0.16003502393E+02 -0.92693813543E+02  0.15628305321E+03  0.91345741067E+02 0.  0.
         23    2    1    2    0    0  0.53316228595E+02 -0.89716624938E+01  0.10524154863E+03  0.14926592509E+03  0.91002317977E+02 0.  0.
        -11    1    4    4    0    0  0.59772427929E+02 -0.41004048252E+02  0.64398601493E+02  0.96960069038E+02  0.00000000000E+00 0. -1.
         11    1    4    4    0    0 -0.64561993339E+01  0.32032385758E+02  0.40842947133E+02  0.52305856055E+02  0.00000000000E+00 0.  1.
        -13    1    3    3    0    0 -0.98740294511E+02  0.12241331240E-01 -0.54812388874E+02  0.11293380311E+03  0.00000000000E+00 0.  1.
         13    1    3    3    0    0  0.13698580321E+02 -0.16015743724E+02 -0.37881424669E+02  0.43349250106E+02  0.00000000000E+00 0. -1.
         21    1    1    2  502  501  0.31725485596E+02  0.24975164887E+02  0.58888754445E+01  0.40803727175E+02  0.00000000000E+00 0.  1.
<scales pt_clust_5="13000.00000" pt_clust_6="13000.00000" pt_clust_7="13000.00000" pt_clust_8="13000.00000" pt_clust_9="40.37654"></scales>
<clustering>
<clus scale="   40.377">  1  9  2 -1</clus>
<clus scale="   91.002">  5  6 -1 -1</clus>
<clus scale="   91.346">  7  8 -1 -1</clus>
<clus scale="  120.815">  1  5  2 -1</clus>
<clus scale="   40.377">  1  5  2 -1</clus>
</clustering>
</event>
<event>
 9    1  0.1713970E-005  0.1350955E+03  0.7546771E-02  0.1221487E+00
          3   -1    0    0  502    0  0.00000000000E+00  0.00000000000E+00  0.32339866687E+03  0.32339866687E+03  0.00000000000E+00 0. -1.
         -3   -1    0    0    0  501 -0.00000000000E+00 -0.00000000000E+00 -0.11308258732E+03  0.11308258732E+03  0.00000000000E+00 0.  1.
         23    2    1    2    0    0 -0.76773600687E+02 -0.90828775150E+02  0.35769962686E+02  0.15152594874E+03  0.86813424959E+02 0.  0.
         23    2    1    2    0    0  0.56478754694E+02  0.72173142247E+02  0.20561294994E+03  0.24342144541E+03  0.92620206803E+02 0.  0.
        -11    1    4    4    0    0 -0.23930615851E+02  0.28977845739E+01  0.40886194758E+02  0.47463169429E+02  0.00000000000E+00 0.  1.
         11    1    4    4    0    0  0.80409370545E+02  0.69275357673E+02  0.16472675518E+03  0.19595827598E+03  0.00000000000E+00 0. -1.
        -13    1    3    3    0    0 -0.53177436648E+02 -0.10560888749E+03  0.36267143947E+02  0.12367854550E+03  0.00000000000E+00 0.  1.
         13    1    3    3    0    0 -0.23596164039E+02  0.14780112342E+02 -0.49718126131E+00  0.27847403243E+02  0.00000000000E+00 0. -1.
         21    1    1    2  502  501  0.20294845992E+02  0.18655632903E+02 -0.31066833073E+02  0.41533860043E+02  0.00000000000E+00 0. -1.
<scales pt_clust_5="13000.00000" pt_clust_6="13000.00000" pt_clust_7="13000.00000" pt_clust_8="13000.00000" pt_clust_9="27.56653"></scales>
<clustering>
<clus scale="   27.567">  2  9  1 -1</clus>
<clus scale="   86.813">  7  8 -1 -1</clus>
<clus scale="   92.620">  5  6 -1 -1</clus>
<clus scale="  131.183">  2  7  1 -1</clus>
<clus scale="  135.096">  1  5  2 -1</clus>
</clustering>
</event>
<event>
 9    1  0.1713970E-005  0.1425240E+03  0.7546771E-02  0.1211872E+00
         -2   -1    0    0    0  501 -0.00000000000E+00  0.00000000000E+00  0.11319820800E+03  0.11319820800E+03  0.00000000000E+00 0.  1.
          2   -1    0    0  502    0  0.00000000000E+00 -0.00000000000E+00 -0.92392155620E+03  0.92392155620E+03  0.00000000000E+00 0. -1.
         23    2    1    2    0    0 -0.32931020785E+02 -0.11308958051E+03 -0.25368976842E+03  0.29428147242E+03  0.91484321367E+02 0.  0.
         23    2    1    2    0    0  0.16546820670E+02  0.94717105240E+02 -0.64076054102E+03  0.65556748395E+03  0.99747319687E+02 0.  0.
        -11    1    3    3    0    0 -0.18734482172E+02  0.12143243765E+02 -0.49905444955E+02  0.54671680306E+02  0.00000000000E+00 0. -1.
         11    1    3    3    0    0 -0.14196538613E+02 -0.12523282427E+03 -0.20378432347E+03  0.23960979211E+03  0.00000000000E+00 0.  1.
        -13    1    4    4    0    0 -0.39783406740E+02  0.19154266171E+02 -0.19084162038E+03  0.19588294830E+03  0.00000000000E+00 0.  1.
         13    1    4    4    0    0  0.56330227410E+02  0.75562839069E+02 -0.44991892064E+03  0.45968453565E+03  0.00000000000E+00 0. -1.
         21    1    1    2  502  501  0.16384200115E+02  0.18372475269E+02  0.83726961243E+02  0.87270807833E+02  0.00000000000E+00 0.  1.
<scales pt_clust_5="13000.00000" pt_clust_6="13000.00000" pt_clust_7="13000.00000" pt_clust_8="13000.00000" pt_clust_9="24.61686"></scales>
<clustering>
<clus scale="   24.617">  1  9  2 -1</clus>
<clus scale="   91.484">  5  6 -1 -1</clus>
<clus scale="   99.747">  7  8 -1 -1</clus>
<clus scale="  136.868">  1  5  2 -1</clus>
<clus scale="  142.524">  2  5  1 -1</clus>
</clustering>
</event>
<event>
 9    1  0.1713970E-005  0.1123864E+03  0.7546771E-02  0.1256471E+00
         -3   -1    0    0    0  501 -0.00000000000E+00  0.00000000000E+00  0.38166926118E+03  0.38166926118E+03  0.00000000000E+00 0.  1.
          3   -1    0    0  502    0  0.00000000000E+00 -0.00000000000E+00 -0.10822620129E+03  0.10822620129E+03  0.00000000000E+00 0. -1.
         23    2    1    2    0    0 -0.71078521918E+02 -0.49545639548E+02  0.43801200395E+02  0.13375886650E+03  0.92010665338E+02 0.  0.
         23    2    1    2    0    0  0.36430402385E+02  0.39617978917E+02 -0.16586606319E+02  0.10728421399E+03  0.91312806282E+02 0.  0.
        -11    1    3    3    0    0 -0.47963901757E+01 -0.23443292017E+02 -0.25081777699E+02  0.34665384346E+02  0.00000000000E+00 0. -1.
         11    1    3    3    0    0 -0.66282131742E+02 -0.26102347532E+02  0.68882978094E+02  0.99093482157E+02  0.00000000000E+00 0.  1.
        -13    1    4    4    0    0  0.63374813663E+02  0.12456839834E+02  0.22775812366E+01  0.64627604333E+02  0.00000000000E+00 0. -1.
         13    1    4    4    0    0 -0.26944411278E+02  0.27161139083E+02 -0.18864187556E+02  0.42656609658E+02  0.00000000000E+00 0.  1.
         21    1    1    2  502  501  0.34648119532E+02  0.99276606309E+01  0.24622846582E+03  0.24885238197E+03  0.00000000000E+00 0. -1.
<scales pt_clust_5="13000.00000" pt_clust_6="13000.00000" pt_clust_7="13000.00000" pt_clust_8="13000.00000" pt_clust_9="36.04234"></scales>
<clustering>
<clus scale="   36.042">  1  9  2 -1</clus>
<clus scale="   91.313">  7  8 -1 -1</clus>
<clus scale="   92.011">  5  6 -1 -1</clus>
<clus scale="  111.816">  2  7  1 -1</clus>
<clus scale="  111.816">  2  5  1 -1</clus>
</clustering>
</event>
<event>
 9    1  0.1713970E-005  0.1414514E+03  0.7546771E-02  0.1212591E+00
          3   -1    0    0  502    0  0.00000000000E+00  0.00000000000E+00  0.15833008832E+03  0.15833008832E+03  0.00000000000E+00 0. -1.
         -3   -1    0    0    0  501 -0.00000000000E+00 -0.00000000000E+00 -0.25720550466E+03  0.25720550466E+03  0.00000000000E+00 0.  1.
         23    2    1    2    0    0  0.41603888230E+02 -0.15288343366E+03 -0.51332442254E+02  0.19013000437E+03  0.91706985169E+02 0.  0.
         23    2    1    2    0    0 -0.38924048451E+02  0.66528760053E+02  0.55244985364E+01  0.12401294663E+03  0.96992439842E+02 0.  0.
        -11    1    4    4    0    0 -0.22046011303E+02  0.18787687983E+02 -0.44329035364E+02  0.52953443801E+02  0.00000000000E+00 0.  1.
         11    1    4    4    0    0 -0.16878037149E+02  0.47741072069E+02  0.49853533900E+02  0.71059502832E+02  0.00000000000E+00 0. -1.
        -13    1    3    3    0    0  0.62530119400E+02 -0.10604751198E+03 -0.61836520450E+02  0.13776736149E+03  0.00000000000E+00 0.  1.
         13    1    3    3    0    0 -0.20926231171E+02 -0.46835921682E+02  0.10504078196E+02  0.52362642882E+02  0.00000000000E+00 0. -1.
         21    1    1    2  502  501 -0.26798397783E+01  0.86354673610E+02 -0.53067472627E+02  0.10139264197E+03  0.00000000000E+00 0. -1.
<scales pt_clust_5="13000.00000" pt_clust_6="13000.00000" pt_clust_7="13000.00000" pt_clust_8="13000.00000" pt_clust_9="86.39625"></scales>
<clustering>
<clus scale="   86.396">  2  9  1 -1</clus>
<clus scale="   91.707">  7  8 -1 -1</clus>
<clus scale="   96.992">  5  6 -1 -1</clus>
<clus scale="  137.881">  2  7  1 -1</clus>
<clus scale="  141.451">  1  5  2 -1</clus>
</clustering>
</event>
<event>
 9    1  0.1713970E-005  0.9737675E+02  0.7546771E-02  0.1288353E+00
          1   -1    0    0  502    0  0.00000000000E+00  0.00000000000E+00  0.24637776303E+03  0.24637776303E+03  0.00000000000E+00 0. -1.
         -1   -1    0    0    0  501 -0.00000000000E+00 -0.00000000000E+00 -0.73696252691E+02  0.73696252691E+02  0.00000000000E+00 0.  1.
         23    2    1    2    0    0 -0.55640631280E+01  0.18327337336E+02 -0.56707014792E+01  0.92053030386E+02  0.89859631959E+02 0.  0.
         23    2    1    2    0    0 -0.55307120395E+01 -0.41999057481E+02  0.17809386820E+03  0.20187693989E+03  0.85102076153E+02 0.  0.
        -11    1    4    4    0    0 -0.22379361260E+02 -0.57896614178E+02  0.16250264387E+03  0.17395391059E+03  0.00000000000E+00 0. -1.
         11    1    4    4    0    0  0.16848649220E+02  0.15897556698E+02  0.15591224326E+02  0.27923029304E+02  0.00000000000E+00 0.  1.
        -11    1    3    3    0    0  0.24205975772E+02  0.37586747098E+02 -0.25459573579E+02  0.51447863973E+02  0.00000000000E+00 0.  1.
         11    1    3    3    0    0 -0.29770038900E+02 -0.19259409762E+02  0.19788872100E+02  0.40605166414E+02  0.00000000000E+00 0. -1.
         21    1    1    2  502  501  0.11094775168E+02  0.23671720145E+02  0.25834361972E+00  0.26144045442E+02  0.00000000000E+00 0.  1.
<scales pt_clust_5="13000.00000" pt_clust_6="13000.00000" pt_clust_7="13000.00000" pt_clust_8="13000.00000" pt_clust_9="26.14277"></scales>
<clustering>
<clus scale="   26.143">  2  9  1 -1</clus>
<clus scale="   85.102">  5  6 -1 -1</clus>
<clus scale="   89.860">  7  8 -1 -1</clus>
<clus scale="   93.005">  1  5  2 -1</clus>
<clus scale="   93.005">  1  5  2 -1</clus>
</clustering>
</event>
<event>
 9    1  0.1713970E-005  0.1034544E+03  0.7546771E-02  0.1278592E+00
          1   -1    0    0  502    0  0.00000000000E+00  0.00000000000E+00  0.41463189181E+03  0.41463189181E+03  0.00000000000E+00 0. -1.
         -1   -1    0    0    0  501 -0.00000000000E+00 -0.00000000000E+00 -0.47909274011E+02  0.47909274011E+02  0.00000000000E+00 0.  1.
         23    2    1    2    0    0 -0.20073328813E+02 -0.18206869098E+02  0.43226310743E+02  0.10135621307E+03  0.87579331899E+02 0.  0.
         23    2    1    2    0    0  0.52321018114E+01  0.34625583211E+02  0.32256436867E+03  0.33903309727E+03  0.98332920246E+02 0.  0.
        -13    1    4    4    0    0 -0.40923006786E+02  0.39890556252E+02  0.15711423206E+03  0.16718501990E+03  0.00000000000E+00 0.  1.
         13    1    4    4    0    0  0.46155108597E+02 -0.52649730413E+01  0.16545013661E+03  0.17184807737E+03  0.00000000000E+00 0. -1.
        -13    1    3    3    0    0 -0.24819994245E+02 -0.49098195135E+02  0.43446107058E+02  0.70101562738E+02  0.00000000000E+00 0.  1.
         13    1    3    3    0    0  0.47466654321E+01  0.30891326037E+02 -0.21979631532E+00  0.31254650334E+02  0.00000000000E+00 0. -1.
         21    1    1    2  502  501  0.14841227001E+02 -0.16418714113E+02  0.93193838149E+00  0.22151855479E+02  0.00000000000E+00 0.  1.
<scales pt_clust_5="13000.00000" pt_clust_6="13000.00000" pt_clust_7="13000.00000" pt_clust_8="13000.00000" pt_clust_9="22.13224"></scales>
<clustering>
<clus scale="   22.132">  2  9  1 -1</clus>
<clus scale="   87.579">  7  8 -1 -1</clus>
<clus scale="   93.293">  2  7  1 -1</clus>
<clus scale="   98.333">  5  6 -1 -1</clus>
<clus scale="  103.454">  1  5  2 -1</clus>
</clustering>
</event>
<event>
 9    1  0.1713970E-005  0.1320491E+03  0.7546771E-02  0.1224540E+00
         -1   -1    0    0    0  501 -0.00000000000E+00  0.00000000000E+00  0.22810657190E+03  0.22810657190E+03  0.00000000000E+00 0.  1.
          1   -1    0    0  502    0  0.00000000000E+00 -0.00000000000E+00 -0.13141876354E+03  0.13141876354E+03  0.00000000000E+00 0. -1.
         23    2    1    2    0    0  0.13437873264E+03  0.88910424004E+01  0.45604828842E+02  0.16909313669E+03  0.91520456949E+02 0.  0.
         23    2    1    2    0    0 -0.66244494840E+02 -0.19688158778E+02  0.29113742570E+02  0.11803399811E+03  0.91150743338E+02 0.  0.
        -13    1    3    3    0    0  0.41807708636E+02 -0.28045194292E+02  0.47772189002E+02  0.69401725240E+02  0.00000000000E+00 0.  1.
         13    1    3    3    0    0  0.92571024007E+02  0.36936236692E+02 -0.21673601600E+01  0.99691411449E+02  0.00000000000E+00 0. -1.
        -13    1    4    4    0    0 -0.58594414932E+02  0.28802736376E+02  0.17195379933E+02  0.67517287971E+02  0.00000000000E+00 0. -1.
         13    1    4    4    0    0 -0.76500799085E+01 -0.48490895154E+02  0.11918362636E+02  0.50516710140E+02  0.00000000000E+00 0.  1.
         21    1    1    2  502  501 -0.68134237802E+02  0.10797116377E+02  0.21969236946E+02  0.72398200633E+02  0.00000000000E+00 0. -1.
<scales pt_clust_5="13000.00000" pt_clust_6="13000.00000" pt_clust_7="13000.00000" pt_clust_8="13000.00000" pt_clust_9="68.98443"></scales>
<clustering>
<clus scale="   68.984">  1  9  2 -1</clus>
<clus scale="   91.151">  7  8 -1 -1</clus>
<clus scale="   91.520">  5  6 -1 -1</clus>
<clus scale="  131.793">  2  7  1 -1</clus>
<clus scale="  131.793">  2  5  1 -1</clus>
</clustering>
</event>
<event>
 9    1  0.1713970E-005  0.1131567E+03  0.7546771E-02  0.1256092E+00
          2   -1    0    0  502    0  0.00000000000E+00  0.00000000000E+00  0.33242857498E+03  0.33242857498E+03  0.00000000000E+00 0. -1.
         -2   -1    0    0    0  501 -0.00000000000E+00 -0.00000000000E+00 -0.13233949741E+03  0.13233949741E+03  0.00000000000E+00 0.  1.
         23    2    1    2    0    0  0.28820693565E+02 -0.39286100012E+02 -0.48014398719E+02  0.11654222027E+03  0.94353996154E+02 0.  0.
         23    2    1    2    0    0 -0.49525831292E+02  0.41148220162E+02  0.28491752477E+03  0.30594767352E+03  0.90994499977E+02 0.  0.
        -11    1    3    3    0    0 -0.25600025351E+02 -0.17241233829E+02 -0.48892426494E+02  0.57819467399E+02  0.00000000000E+00 0. -1.
         11    1    3    3    0    0  0.54420718916E+02 -0.22044866183E+02  0.87802777495E+00  0.58722752874E+02  0.00000000000E+00 0.  1.
        -13    1    4    4    0    0  0.22056125019E+02 -0.78577867440E+01  0.43239955531E+02  0.49172260652E+02  0.00000000000E+00 0.  1.
         13    1    4    4    0    0 -0.71581956311E+02  0.49006006906E+02  0.24167756924E+03  0.25677541287E+03  0.00000000000E+00 0. -1.
         21    1    1    2  502  501  0.20705137727E+02 -0.18621201501E+01 -0.36814048478E+02  0.42278178592E+02  0.00000000000E+00 0.  1.
<scales pt_clust_5="13000.00000" pt_clust_6="13000.00000" pt_clust_7="13000.00000" pt_clust_8="13000.00000" pt_clust_9="20.78870"></scales>
<clustering>
<clus scale="   20.789">  2  9  1 -1</clus>
<clus scale="   90.994">  7  8 -1 -1</clus>
<clus scale="   94.354">  5  6 -1 -1</clus>
<clus scale="  110.371">  1  7  2 -1</clus>
<clus scale="  110.371">  1  5  2 -1</clus>
</clustering>
</event>
<event>
 9    1  0.1713970E-005  0.1170751E+03  0.7546771E-02  0.1249312E+00
          1   -1    0    0  502    0  0.00000000000E+00  0.00000000000E+00  0.78282592158E+03  0.78282592158E+03  0.00000000000E+00 0. -1.
         -1   -1    0    0    0  501 -0.00000000000E+00 -0.00000000000E+00 -0.21366651184E+02  0.21366651184E+02  0.00000000000E+00 0.  1.
         23    2    1    2    0    0 -0.39655720745E+02  0.44764675317E+02  0.28274800369E+03  0.30335689683E+03  0.92209115153E+02 0.  0.
         23    2    1    2    0    0  0.54784572272E+02 -0.60729467238E+02  0.44143582055E+03  0.45755501495E+03  0.88326612573E+02 0.  0.
        -13    1    4    4    0    0  0.59348484037E+02 -0.15419239361E+02  0.35083217237E+03  0.35615054215E+03  0.00000000000E+00 0.  1.
         13    1    4    4    0    0 -0.45639117649E+01 -0.45310227876E+02  0.90603648176E+02  0.10140447280E+03  0.00000000000E+00 0. -1.
        -13    1    3    3    0    0 -0.54118896532E+02 -0.35108000835E+01  0.99669189297E+02  0.11346862110E+03  0.00000000000E+00 0.  1.
         13    1    3    3    0    0  0.14463175787E+02  0.48275475401E+02  0.18307881440E+03  0.18988827573E+03  0.00000000000E+00 0. -1.
         21    1    1    2  502  501 -0.15128851528E+02  0.15964791921E+02  0.37275446154E+02  0.43280660989E+02  0.00000000000E+00 0. -1.
<scales pt_clust_5="13000.00000" pt_clust_6="13000.00000" pt_clust_7="13000.00000" pt_clust_8="13000.00000" pt_clust_9="21.99447"></scales>
<clustering>
<clus scale="   21.994">  2  9  1 -1</clus>
<clus scale="   88.327">  5  6 -1 -1</clus>
<clus scale="   92.209">  7  8 -1 -1</clus>
<clus scale="  114.042">  1  5  2 -1</clus>
<clus scale="  114.042">  1  5  2 -1</clus>
</clustering>
</event>
<event>
 9    1  0.1713970E-005  0.9309180E+02  0.7546771E-02  0.1296027E+00
          1   -1    0    0  502    0  0.00000000000E+00  0.00000000000E+00  0.49351887833E+03  0.49351887833E+03  0.00000000000E+00 0. -1.
         -1   -1    0    0    0  501 -0.00000000000E+00 -0.00000000000E+00 -0.42921335254E+02  0.42921335254E+02  0.00000000000E+00 0.  1.
         23    2    1    2    0    0  0.19266670332E+01  0.15055769792E+02  0.12794008090E+03  0.15839834825E+03  0.92146536441E+02 0.  0.
         23    2    1    2    0    0 -0.49704426175E+01  0.77157588618E+01  0.33782563081E+03  0.35051223718E+03  0.92996953449E+02 0.  0.
        -11    1    3    3    0    0  0.33468901259E+02  0.21627777369E+02  0.11820347801E+03  0.12473969023E+03  0.00000000000E+00 0. -1.
         11    1    3    3    0    0 -0.31542234226E+02 -0.65720075761E+01  0.97366028829E+01  0.33658658013E+02  0.00000000000E+00 0.  1.
        -13    1    4    4    0    0 -0.26320173637E+02  0.41428843737E+02  0.23795672234E+03  0.24296605182E+03  0.00000000000E+00 0. -1.
         13    1    4    4    0    0  0.21349731020E+02 -0.33713084875E+02  0.99868908471E+02  0.10754618536E+03  0.00000000000E+00 0.  1.
         21    1    1    2  502  501  0.30437755843E+01 -0.22771528654E+02 -0.15168168623E+02  0.27529628156E+02  0.00000000000E+00 0.  1.
<scales pt_clust_5="13000.00000" pt_clust_6="13000.00000" pt_clust_7="13000.00000" pt_clust_8="13000.00000" pt_clust_9="22.97405"></scales>
<clustering>
<clus scale="   22.974">  2  9  1 -1</clus>
<clus scale="   92.147">  5  6 -1 -1</clus>
<clus scale="   92.242">  2  5  1 -1</clus>
<clus scale="   92.997">  7  8 -1 -1</clus>
<clus scale="   93.092">  1  5  2 -1</clus>
</clustering>
</event>
<event>
 9    1  0.1713970E-005  0.2294242E+03  0.7546771E-02  0.1127069E+00
          1   -1    0    0  502    0  0.00000000000E+00  0.00000000000E+00  0.10945683040E+03  0.10945683040E+03  0.00000000000E+00 0. -1.
         -1   -1    0    0    0  501 -0.00000000000E+00 -0.00000000000E+00 -0.86581331232E+03  0.86581331232E+03  0.00000000000E+00 0.  1.
         23    2    1    2    0    0  0.26477330668E+02  0.20052735262E+03 -0.57051219181E+03  0.61203179544E+03  0.90479221025E+02 0.  0.
         23    2    1    2    0    0 -0.68334590990E+01 -0.24382205968E+03 -0.13346203628E+03  0.29249787890E+03  0.90813000615E+02 0.  0.
        -11    1    3    3    0    0  0.45105018133E+02  0.42475030116E+02 -0.17849640325E+03  0.18894326349E+03  0.00000000000E+00 0. -1.
         11    1    3    3    0    0 -0.18627687465E+02  0.15805232250E+03 -0.39201578856E+03  0.42308853195E+03  0.00000000000E+00 0.  1.
        -13    1    4    4    0    0  0.27171251761E+02 -0.15338762593E+03 -0.11622484709E+03  0.19435600272E+03  0.00000000000E+00 0. -1.
         13    1    4    4    0    0 -0.34004710860E+02 -0.90434433753E+02 -0.17237189183E+02  0.98141876178E+02  0.00000000000E+00 0.  1.
         21    1    1    2  502  501 -0.19643871569E+02  0.43294707067E+02 -0.52382253834E+02  0.70740468382E+02  0.00000000000E+00 0. -1.
<scales pt_clust_5="13000.00000" pt_clust_6="13000.00000" pt_clust_7="13000.00000" pt_clust_8="13000.00000" pt_clust_9="47.54275"></scales>
<clustering>
<clus scale="   47.543">  1  9  2 -1</clus>
<clus scale="   90.479">  5  6 -1 -1</clus>
<clus scale="   90.813">  7  8 -1 -1</clus>
<clus scale="  229.292">  2  5  1 -1</clus>
<clus scale="   47.543">  1  5  2 -1</clus>
</clustering>
</event>
<event>
 9    1  0.1713970E-005  0.1827247E+03  0.7546771E-02  0.1165391E+00
          2   -1    0    0  502    0  0.00000000000E+00  0.00000000000E+00  0.92277215544E+03  0.92277215544E+03  0.00000000000E+00 0. -1.
         -2   -1    0    0    0  501 -0.00000000000E+00 -0.00000000000E+00 -0.17361098024E+03  0.17361098024E+03  0.00000000000E+00 0.  1.
         23    2    1    2    0    0 -0.13461217356E+03 -0.14626227540E+02  0.11159159856E+03  0.19867487833E+03  0.93191515738E+02 0.  0.
         23    2    1    2    0    0  0.15945296408E+03  0.33975436227E+02  0.75413380522E+03  0.77696606864E+03  0.91536318616E+02 0.  0.
        -11    1    4    4    0    0  0.11310312603E+03 -0.17677012058E+02  0.53479735782E+03  0.54691224873E+03  0.00000000000E+00 0. -1.
         11    1    4    4    0    0  0.46349838055E+02  0.51652448285E+02  0.21933644739E+03  0.23005381991E+03  0.00000000000E+00 0.  1.
        -13    1    3    3    0    0 -0.81909002527E+02 -0.15543804559E+02  0.96701954571E+01  0.83929775618E+02  0.00000000000E+00 0.  1.
         13    1    3    3    0    0 -0.52703171032E+02  0.91757701821E+00  0.10192140310E+03  0.11474510271E+03  0.00000000000E+00 0. -1.
         21    1    1    2  502  501 -0.24840790522E+02 -0.19349208687E+02 -0.11656422858E+03  0.12074218872E+03  0.00000000000E+00 0.  1.
<scales pt_clust_5="13000.00000" pt_clust_6="13000.00000" pt_clust_7="13000.00000" pt_clust_8="13000.00000" pt_clust_9="31.48741"></scales>
<clustering>
<clus scale="   31.487">  2  9  1 -1</clus>
<clus scale="   91.536">  5  6 -1 -1</clus>
<clus scale="   93.192">  7  8 -1 -1</clus>
<clus scale="  181.886">  1  5  2 -1</clus>
<clus scale="  181.886">  1  5  2 -1</clus>
</clustering>
</event>
<event>
 9    1  0.1713970E-005  0.1247265E+03  0.7546771E-02  0.1235792E+00
         -1   -1    0    0    0  501 -0.00000000000E+00  0.00000000000E+00  0.85698180043E+02  0.85698180043E+02  0.00000000000E+00 0.  1.
          1   -1    0    0  502    0  0.00000000000E+00 -0.00000000000E+00 -0.23497428997E+03  0.23497428997E+03  0.00000000000E+00 0. -1.
         23    2    1    2    0    0  0.11978686840E+02 -0.76887052652E+02 -0.39488619911E+02  0.12878843696E+03  0.94720655551E+02 0.  0.
         23    2    1    2    0    0  0.12431241007E+02  0.83837263616E+02 -0.10835846726E+03  0.16646372393E+03  0.93730418936E+02 0.  0.
        -11    1    3    3    0    0  0.45915084496E+02 -0.97112519950E+01 -0.10183462021E+02  0.48022976775E+02  0.00000000000E+00 0.  1.
         11    1    3    3    0    0 -0.33936397656E+02 -0.67175800657E+02 -0.29305157890E+02  0.80765460184E+02  0.00000000000E+00 0. -1.
        -13    1    4    4    0    0  0.27582114139E+02  0.59037052884E+02 -0.12570204696E+02  0.66363820563E+02  0.00000000000E+00 0.  1.
         13    1    4    4    0    0 -0.15150873132E+02  0.24800210732E+02 -0.95788262564E+02  0.10009990337E+03  0.00000000000E+00 0. -1.
         21    1    1    2  502  501 -0.24409927847E+02 -0.69502109640E+01 -0.14290227553E+01  0.25420309124E+02  0.00000000000E+00 0. -1.
<scales pt_clust_5="13000.00000" pt_clust_6="13000.00000" pt_clust_7="13000.00000" pt_clust_8="13000.00000" pt_clust_9="25.38011"></scales>
<clustering>
<clus scale="   25.380">  1  9  2 -1</clus>
<clus scale="   93.730">  7  8 -1 -1</clus>
<clus scale="   94.721">  5  6 -1 -1</clus>
<clus scale="  123.976">  2  7  1 -1</clus>
<clus scale="  123.976">  2  5  1 -1</clus>
</clustering>
</event>
<event>
 9    1  0.1713970E-005  0.9578777E+02  0.7546771E-02  0.1289423E+00
          2   -1    0    0  502    0  0.00000000000E+00  0.00000000000E+00  0.30124930553E+03  0.30124930553E+03  0.00000000000E+00 0. -1.
         -2   -1    0    0    0  501 -0.00000000000E+00 -0.00000000000E+00 -0.45412266493E+02  0.45412266493E+02  0.00000000000E+00 0.  1.
         23    2    1    2    0    0 -0.11521240708E+02 -0.41436184892E+02  0.11224156318E+03  0.15077240069E+03  0.91018964507E+02 0.  0.
         23    2    1    2    0    0 -0.13305819153E+01  0.21070302836E+02  0.14418372509E+03  0.17180007559E+03  0.90997754276E+02 0.  0.
        -13    1    4    4    0    0 -0.93126812595E+01 -0.32191009642E+02  0.27731842949E+02  0.43497611973E+02  0.00000000000E+00 0.  1.
         13    1    4    4    0    0  0.79820993442E+01  0.53261312479E+02  0.11645188214E+03  0.12830246362E+03  0.00000000000E+00 0. -1.
        -13    1    3    3    0    0  0.28303844404E+02  0.41607310278E+01  0.73566409326E+02  0.78933110112E+02  0.00000000000E+00 0. -1.
         13    1    3    3    0    0 -0.39825085112E+02 -0.45596915920E+02  0.38675153851E+02  0.71839290580E+02  0.00000000000E+00 0.  1.
         21    1    1    2  502  501  0.12851822624E+02  0.20365882056E+02 -0.58824922232E+00  0.24089095745E+02  0.00000000000E+00 0. -1.
<scales pt_clust_5="13000.00000" pt_clust_6="13000.00000" pt_clust_7="13000.00000" pt_clust_8="13000.00000" pt_clust_9="24.08191"></scales>
<clustering>
<clus scale="   24.082">  2  9  1 -1</clus>
<clus scale="   90.998">  5  6 -1 -1</clus>
<clus scale="   91.019">  7  8 -1 -1</clus>
<clus scale="   95.768">  1  5  2 -1</clus>
<clus scale="   95.768">  1  5  2 -1</clus>
</clustering>
</event>
<event>
 9    1  0.1713970E-005  0.9770174E+02  0.7546771E-02  0.1288390E+00
          1   -1    0    0  502    0  0.00000000000E+00  0.00000000000E+00  0.41525380115E+03  0.41525380115E+03  0.00000000000E+00 0. -1.
         -1   -1    0    0    0  501 -0.00000000000E+00 -0.00000000000E+00 -0.51069133918E+02  0.51069133918E+02  0.00000000000E+00 0.  1.
         23    2    1    2    0    0  0.38367685567E+02  0.22757325822E+02  0.55620539333E+02  0.11603185624E+03  0.91541095102E+02 0.  0.
         23    2    1    2    0    0  0.79117246158E+00 -0.81051424332E+00  0.28160409772E+03  0.29792771446E+03  0.97256219864E+02 0.  0.
        -11    1    3    3    0    0  0.53797301888E+02  0.83773836559E+01 -0.21943452314E+01  0.54489865098E+02  0.00000000000E+00 0.  1.
         11    1    3    3    0    0 -0.15429616321E+02  0.14379942166E+02  0.57814884564E+02  0.61541991142E+02  0.00000000000E+00 0. -1.
        -13    1    4    4    0    0  0.45197458067E+02  0.18108569472E+02  0.15318172094E+03  0.16073384875E+03  0.00000000000E+00 0.  1.
         13    1    4    4    0    0 -0.44406285606E+02 -0.18919083715E+02  0.12842237679E+03  0.13719386571E+03  0.00000000000E+00 0. -1.
         21    1    1    2  502  501 -0.39158858028E+02 -0.21946811579E+02  0.26960030172E+02  0.52363364363E+02  0.00000000000E+00 0. -1.
<scales pt_clust_5="13000.00000" pt_clust_6="13000.00000" pt_clust_7="13000.00000" pt_clust_8="13000.00000" pt_clust_9="44.88963"></scales>
<clustering>
<clus scale="   44.890">  2  9  1 -1</clus>
<clus scale="   91.541">  5  6 -1 -1</clus>
<clus scale="   92.014">  2  5  1 -1</clus>
<clus scale="   97.256">  7  8 -1 -1</clus>
<clus scale="   97.702">  1  5  2 -1</clus>
</clustering>
</event>
<event>
 9    1  0.1713970E-005  0.1377819E+03  0.7546771E-02  0.1228943E+00
         -1   -1    0    0    0  501 -0.00000000000E+00  0.00000000000E+00  0.24501078558E+02  0.24501078558E+02  0.00000000000E+00 0.  1.
          1   -1    0    0  502    0  0.00000000000E+00 -0.00000000000E+00 -0.17115758286E+04  0.17115758286E+04  0.00000000000E+00 0. -1.
         23    2    1    2    0    0  0.31087038773E+02  0.43491667515E+02 -0.18164824867E+03  0.21025413761E+03  0.91393583006E+02 0.  0.
         23    2    1    2    0    0  0.76760414372E+02  0.67093878861E+01 -0.54367249692E+03  0.55673970592E+03  0.91881114223E+02 0.  0.
        -11    1    4    4    0    0  0.25083004130E+02 -0.41072243572E+02 -0.18021037942E+03  0.18652578144E+03  0.00000000000E+00 0. -1.
         11    1    4    4    0    0  0.51677410242E+02  0.47781631458E+02 -0.36346211749E+03  0.37021392449E+03  0.00000000000E+00 0.  1.
        -13    1    3    3    0    0  0.40689779234E+02  0.65507094260E+02 -0.16125547627E+03  0.17874609411E+03  0.00000000000E+00 0.  1.
         13    1    3    3    0    0 -0.96027404602E+01 -0.22015426746E+02 -0.20392772404E+02  0.31508043504E+02  0.00000000000E+00 0. -1.
         21    1    1    2  502  501 -0.10784745315E+03 -0.50201055401E+02 -0.96175400443E+03  0.96908306360E+03  0.00000000000E+00 0. -1.
<scales pt_clust_5="13000.00000" pt_clust_6="13000.00000" pt_clust_7="13000.00000" pt_clust_8="13000.00000" pt_clust_9="102.67282"></scales>
<clustering>
<clus scale="   91.394">  7  8 -1 -1</clus>
<clus scale="   91.881">  5  6 -1 -1</clus>
<clus scale="  105.881">  1  7  2 -1</clus>
<clus scale="  102.673">  2  9  1 -1</clus>
<clus scale="  102.673">  2  5  1 -1</clus>
</clustering>
</event>
<event>
 9    1  0.1713970E-005  0.1190190E+03  0.7546771E-02  0.1247995E+00
         -1   -1    0    0    0  501 -0.00000000000E+00  0.00000000000E+00  0.55183593663E+02  0.55183593663E+02  0.00000000000E+00 0.  1.
          1   -1    0    0  502    0  0.00000000000E+00 -0.00000000000E+00 -0.49169190879E+03  0.49169190879E+03  0.00000000000E+00 0. -1.
         23    2    1    2    0    0 -0.84553236298E+02  0.19744529972E+02 -0.86631046079E+02  0.15343607518E+03  0.92187823441E+02 0.  0.
         23    2    1    2    0    0  0.41883644512E+02 -0.39484797623E+02 -0.31215250830E+03  0.33316065983E+03  0.10121041400E+03 0.  0.
        -11    1    4    4    0    0  0.23782689792E+02  0.15485296867E+02 -0.18540466269E+02  0.33899257252E+02  0.00000000000E+00 0.  1.
         11    1    4    4    0    0  0.18100954721E+02 -0.54970094490E+02 -0.29361204203E+03  0.29926140258E+03  0.00000000000E+00 0. -1.
        -13    1    3    3    0    0 -0.66501278448E+02 -0.30565479331E+02 -0.50165272005E+02  0.88731184356E+02  0.00000000000E+00 0.  1.
         13    1    3    3    0    0 -0.18051957851E+02  0.50310009303E+02 -0.36465774075E+02  0.64704890828E+02  0.00000000000E+00 0. -1.
         21    1    1    2  502  501  0.42669591786E+02  0.19740267651E+02 -0.37724760753E+02  0.60278767439E+02  0.00000000000E+00 0. -1.
<scales pt_clust_5="13000.00000" pt_clust_6="13000.00000" pt_clust_7="13000.00000" pt_clust_8="13000.00000" pt_clust_9="47.01460"></scales>
<clustering>
<clus scale="   47.015">  1  9  2 -1</clus>
<clus scale="   92.188">  7  8 -1 -1</clus>
<clus scale="  101.210">  5  6 -1 -1</clus>
<clus scale="  111.448">  1  7  2 -1</clus>
<clus scale="  119.019">  2  5  1 -1</clus>
</clustering>
</event>
<event>
 9    1  0.1713970E-005  0.9475694E+02  0.7546771E-02  0.1293542E+00
          3   -1    0    0  502    0  0.00000000000E+00  0.00000000000E+00  0.14978996408E+03  0.14978996408E+03  0.00000000000E+00 0. -1.
         -3   -1    0    0    0  501 -0.00000000000E+00 -0.00000000000E+00 -0.78198238510E+02  0.78198238510E+02  0.00000000000E+00 0.  1.
         23    2    1    2    0    0  0.29050706034E+02 -0.66590724301E+01  0.30143538416E+02  0.10024440269E+03  0.90840632957E+02 0.  0.
         23    2    1    2    0    0 -0.16336772655E+02  0.22781715806E+02  0.50974762421E+02  0.10510888510E+03  0.87541730665E+02 0.  0.
        -11    1    3    3    0    0  0.46965783259E+02  0.30282945919E+01  0.52158939952E+02  0.70253187701E+02  0.00000000000E+00 0. -1.
         11    1    3    3    0    0 -0.17915077225E+02 -0.96873670220E+01 -0.22015401536E+02  0.29991214990E+02  0.00000000000E+00 0.  1.
        -11    1    4    4    0    0 -0.48753605326E+02 -0.20640455126E+01  0.16048055035E+02  0.51368418183E+02  0.00000000000E+00 0. -1.
         11    1    4    4    0    0  0.32416832672E+02  0.24845761318E+02  0.34926707386E+02  0.53740466920E+02  0.00000000000E+00 0.  1.
         21    1    1    2  502  501 -0.12713933379E+02 -0.16122643376E+02 -0.95265752687E+01  0.22634914794E+02  0.00000000000E+00 0.  1.
<scales pt_clust_5="13000.00000" pt_clust_6="13000.00000" pt_clust_7="13000.00000" pt_clust_8="13000.00000" pt_clust_9="20.53250"></scales>
<clustering>
<clus scale="   20.533">  2  9  1 -1</clus>
<clus scale="   87.542">  7  8 -1 -1</clus>
<clus scale="   90.841">  5  6 -1 -1</clus>
<clus scale="   91.599">  1  7  2 -1</clus>
<clus scale="   91.599">  1  5  2 -1</clus>
</clustering>
</event>
<event>
 9    1  0.1713970E-005  0.2273352E+03  0.7546771E-02  0.1129803E+00
         -2   -1    0    0    0  501 -0.00000000000E+00  0.00000000000E+00  0.17165255204E+03  0.17165255204E+03  0.00000000000E+00 0.  1.
          2   -1    0    0  502    0  0.00000000000E+00 -0.00000000000E+00 -0.44053782911E+03  0.44053782911E+03  0.00000000000E+00 0. -1.
         23    2    1    2    0    0  0.11249264324E+03  0.21970043071E+03 -0.11857078403E+03  0.28914225611E+03  0.92851168027E+02 0.  0.
         23    2    1    2    0    0 -0.66576963240E+02 -0.15696270166E+03 -0.13711290639E+03  0.24419031499E+03  0.10843974866E+03 0.  0.
        -11    1    3    3    0    0  0.88551282617E+02  0.18528097942E+03 -0.13316064148E+03  0.24474911119E+03  0.00000000000E+00 0.  1.
         11    1    3    3    0    0  0.23941360627E+02  0.34419451289E+02  0.14589857446E+02  0.44393144922E+02  0.00000000000E+00 0. -1.
        -13    1    4    4    0    0  0.12133785442E+02 -0.98789483246E+02 -0.43050166724E+02  0.10844310768E+03  0.00000000000E+00 0.  1.
         13    1    4    4    0    0 -0.78710748682E+02 -0.58173218418E+02 -0.94062739664E+02  0.13574720731E+03  0.00000000000E+00 0. -1.
         21    1    1    2  502  501 -0.45915680004E+02 -0.62737729047E+02 -0.13201586649E+02  0.78857810052E+02  0.00000000000E+00 0. -1.
<scales pt_clust_5="13000.00000" pt_clust_6="13000.00000" pt_clust_7="13000.00000" pt_clust_8="13000.00000" pt_clust_9="77.74492"></scales>
<clustering>
<clus scale="   77.745">  1  9  2 -1</clus>
<clus scale="   92.851">  5  6 -1 -1</clus>
<clus scale="  108.440">  7  8 -1 -1</clus>
<clus scale="  220.326">  1  5  2 -1</clus>
<clus scale="  227.335">  2  5  1 -1</clus>
</clustering>
</event>
<event>
 9    1  0.1713970E-005  0.1104061E+03  0.7546771E-02  0.1260418E+00
          1   -1    0    0  502    0  0.00000000000E+00  0.00000000000E+00  0.81054221780E+03  0.81054221780E+03  0.00000000000E+00 0. -1.
         -1   -1    0    0    0  501 -0.00000000000E+00 -0.00000000000E+00 -0.39047389760E+02  0.39047389760E+02  0.00000000000E+00 0.  1.
         23    2    1    2    0    0 -0.25460831096E+02  0.64410999187E+02  0.38793018828E+03  0.40469088253E+03  0.92129521267E+02 0.  0.
         23    2    1    2    0    0  0.32494551289E+02 -0.44227167344E+02  0.40258778759E+03  0.41628508420E+03  0.90578178493E+02 0.  0.
        -11    1    3    3    0    0 -0.41910326650E+02  0.88659906996E+00  0.22800906647E+03  0.23183053279E+03  0.00000000000E+00 0.  1.
         11    1    3    3    0    0  0.16449495554E+02  0.63524400117E+02  0.15992112181E+03  0.17286034974E+03  0.00000000000E+00 0. -1.
        -13    1    4    4    0    0  0.61840004271E+02 -0.28312112402E+02  0.32110605231E+03  0.32822988692E+03  0.00000000000E+00 0.  1.
         13    1    4    4    0    0 -0.29345452982E+02 -0.15915054942E+02  0.81481735279E+02  0.88055197283E+02  0.00000000000E+00 0. -1.
         21    1    1    2  502  501 -0.70337201928E+01 -0.20183831844E+02 -0.19023147833E+02  0.28613640822E+02  0.00000000000E+00 0.  1.
<scales pt_clust_5="13000.00000" pt_clust_6="13000.00000" pt_clust_7="13000.00000" pt_clust_8="13000.00000" pt_clust_9="21.37429"></scales>
<clustering>
<clus scale="   21.374">  2  9  1 -1</clus>
<clus scale="   90.578">  7  8 -1 -1</clus>
<clus scale="   92.130">  5  6 -1 -1</clus>
<clus scale="  109.115">  1  7  2 -1</clus>
<clus scale="  109.115">  1  5  2 -1</clus>
</clustering>
</event>
<event>
 9    1  0.1713970E-005  0.1188600E+03  0.7546771E-02  0.1245197E+00
          3   -1    0    0  502    0  0.00000000000E+00  0.00000000000E+00  0.11552412188E+03  0.11552412188E+03  0.00000000000E+00 0. -1.
         -3   -1    0    0    0  501 -0.00000000000E+00 -0.00000000000E+00 -0.16902482943E+03  0.16902482943E+03  0.00000000000E+00 0.  1.
         23    2    1    2    0    0  0.39044846122E+02  0.59845920813E+02 -0.71330527070E+02  0.14192686915E+03  0.99745465306E+02 0.  0.
         23    2    1    2    0    0 -0.39962305870E+02 -0.31612631558E+02  0.19988283116E+02  0.11429154528E+03  0.10033285352E+03 0.  0.
        -11    1    3    3    0    0  0.60239464430E+02  0.96673250723E+01 -0.13507643443E+02  0.62487652222E+02  0.00000000000E+00 0. -1.
         11    1    3    3    0    0 -0.21194618308E+02  0.50178595741E+02 -0.57822883628E+02  0.79439216932E+02  0.00000000000E+00 0.  1.
        -13    1    4    4    0    0 -0.23477835644E+02 -0.16025148932E+02  0.61070138139E+02  0.67361531583E+02  0.00000000000E+00 0. -1.
         13    1    4    4    0    0 -0.16484470226E+02 -0.15587482626E+02 -0.41081855023E+02  0.46930013695E+02  0.00000000000E+00 0.  1.
         21    1    1    2  502  501  0.91745974820E+00 -0.28233289255E+02 -0.21584635990E+01  0.28330536875E+02  0.00000000000E+00 0. -1.
<scales pt_clust_5="13000.00000" pt_clust_6="13000.00000" pt_clust_7="13000.00000" pt_clust_8="13000.00000" pt_clust_9="28.24819"></scales>
<clustering>
<clus scale="   28.248">  1  9  2 -1</clus>
<clus scale="   99.745">  5  6 -1 -1</clus>
<clus scale="  100.333">  7  8 -1 -1</clus>
<clus scale="  118.365">  2  5  1 -1</clus>
<clus scale="   28.248">  1  5  2 -1</clus>
</clustering>
</event>
<event>
 9    1  0.1713970E-005  0.1292479E+03  0.7546771E-02  0.1229185E+00
         -2   -1    0    0    0  501 -0.00000000000E+00  0.00000000000E+00  0.47479152192E+03  0.47479152192E+03  0.00000000000E+00 0.  1.
          2   -1    0    0  502    0  0.00000000000E+00 -0.00000000000E+00 -0.50547402675E+02  0.50547402675E+02  0.00000000000E+00 0. -1.
         23    2    1    2    0    0  0.43573418915E+02  0.88424802805E+02  0.14217787721E+03  0.19701275987E+03  0.94243780679E+02 0.  0.
         23    2    1    2    0    0 -0.30231379688E+02 -0.72715895330E+02  0.14147753969E+03  0.18623477508E+03  0.92010648626E+02 0.  0.
        -11    1    3    3    0    0 -0.10844250871E+02  0.45916341183E+02  0.10509502299E+02  0.48335885253E+02  0.00000000000E+00 0.  1.
         11    1    3    3    0    0  0.54417669786E+02  0.42508461623E+02  0.13166837491E+03  0.14867687462E+03  0.00000000000E+00 0. -1.
        -13    1    4    4    0    0 -0.39393170219E+02 -0.91165026544E+02  0.12619121122E+03  0.16058364087E+03  0.00000000000E+00 0.  1.
         13    1    4    4    0    0  0.91617905304E+01  0.18449131215E+02  0.15286328471E+02  0.25651134213E+02  0.00000000000E+00 0. -1.
         21    1    1    2  502  501 -0.13342039227E+02 -0.15708907476E+02  0.14058870234E+03  0.14209138965E+03  0.00000000000E+00 0.  1.
<scales pt_clust_5="13000.00000" pt_clust_6="13000.00000" pt_clust_7="13000.00000" pt_clust_8="13000.00000" pt_clust_9="20.61019"></scales>
<clustering>
<clus scale="   20.610">  1  9  2 -1</clus>
<clus scale="   92.011">  7  8 -1 -1</clus>
<clus scale="   94.244">  5  6 -1 -1</clus>
<clus scale="  127.629">  2  7  1 -1</clus>
<clus scale="  127.629">  2  5  1 -1</clus>
</clustering>
</event>
<event>
 9    1  0.1713970E-005  0.9870850E+02  0.7546771E-02  0.1284339E+00
         -2   -1    0    0    0  501 -0.00000000000E+00  0.00000000000E+00  0.78740378456E+02  0.78740378456E+02  0.00000000000E+00 0.  1.
          2   -1    0    0  502    0  0.00000000000E+00 -0.00000000000E+00 -0.17043788174E+03  0.17043788174E+03  0.00000000000E+00 0. -1.
         23    2    1    2    0    0  0.31876203879E+02  0.34849898469E+02 -0.50381555092E+02  0.11507103461E+03  0.92045826169E+02 0.  0.
         23    2    1    2    0    0 -0.19193320896E+02 -0.17868044598E+02 -0.55600208806E+02  0.10854790277E+03  0.89462916298E+02 0.  0.
        -11    1    4    4    0    0  0.26543920399E+02 -0.25252956359E+02 -0.60953752215E+00  0.36642366886E+02  0.00000000000E+00 0.  1.
         11    1    4    4    0    0 -0.45737241296E+02  0.73849117608E+01 -0.54990671284E+02  0.71905535888E+02  0.00000000000E+00 0. -1.
        -11    1    3    3    0    0  0.27333535257E+02 -0.20420511372E+02 -0.48859502039E+02  0.59593375252E+02  0.00000000000E+00 0.  1.
         11    1    3    3    0    0  0.45426686219E+01  0.55270409841E+02 -0.15220530528E+01  0.55477659356E+02  0.00000000000E+00 0. -1.
         21    1    1    2  502  501 -0.12682882983E+02 -0.16981853870E+02  0.14284260612E+02  0.25559322817E+02  0.00000000000E+00 0.  1.
<scales pt_clust_5="13000.00000" pt_clust_6="13000.00000" pt_clust_7="13000.00000" pt_clust_8="13000.00000" pt_clust_9="21.19526"></scales>
<clustering>
<clus scale="   21.195">  1  9  2 -1</clus>
<clus scale="   89.463">  5  6 -1 -1</clus>
<clus scale="   92.046">  7  8 -1 -1</clus>
<clus scale="   96.304">  2  5  1 -1</clus>
<clus scale="   96.304">  2  5  1 -1</clus>
</clustering>
</event>
<event>
 9    1  0.1713970E-005  0.9875404E+02  0.7546771E-02  0.1284130E+00
         -1   -1    0    0    0  501 -0.00000000000E+00  0.00000000000E+00  0.63825495686E+02  0.63825495686E+02  0.00000000000E+00 0.  1.
          1   -1    0    0  502    0  0.00000000000E+00 -0.00000000000E+00 -0.40846054778E+03  0.40846054778E+03  0.00000000000E+00 0. -1.
         23    2    1    2    0    0  0.13983643067E+02 -0.28441955120E+02 -0.14471163345E+03  0.17307337116E+03  0.89489931638E+02 0.  0.
         23    2    1    2    0    0  0.21166223455E+02  0.41489450806E+02 -0.22943882225E+03  0.25149570142E+03  0.91861477966E+02 0.  0.
        -11    1    4    4    0    0  0.45772787832E+02  0.57419517310E+02 -0.15582026492E+03  0.17225592597E+03  0.00000000000E+00 0.  1.
         11    1    4    4    0    0 -0.24606564376E+02 -0.15930066504E+02 -0.73618557338E+02  0.79239775452E+02  0.00000000000E+00 0. -1.
        -11    1    3    3    0    0 -0.37402307304E+02 -0.29893310995E+01 -0.53992696722E+02  0.65750133014E+02  0.00000000000E+00 0.  1.
         11    1    3    3    0    0  0.51385950371E+02 -0.25452624021E+02 -0.90718936727E+02  0.10732323815E+03  0.00000000000E+00 0. -1.
         21    1    1    2  502  501 -0.35149866522E+02 -0.13047495686E+02  0.29515403607E+02  0.47716970883E+02  0.00000000000E+00 0.  1.
<scales pt_clust_5="13000.00000" pt_clust_6="13000.00000" pt_clust_7="13000.00000" pt_clust_8="13000.00000" pt_clust_9="37.49334"></scales>
<clustering>
<clus scale="   37.493">  1  9  2 -1</clus>
<clus scale="   89.490">  7  8 -1 -1</clus>
<clus scale="   91.861">  5  6 -1 -1</clus>
<clus scale="   96.552">  1  7  2 -1</clus>
<clus scale="   98.754">  2  5  1 -1</clus>
</clustering>
</event>
<event>
 9    1  0.1713970E-005  0.1290971E+03  0.7546771E-02  0.1230625E+00
          3   -1    0    0  502    0  0.00000000000E+00  0.00000000000E+00  0.11102024472E+03  0.11102024472E+03  0.00000000000E+00 0. -1.
         -3   -1    0    0    0  501 -0.00000000000E+00 -0.00000000000E+00 -0.34825633190E+03  0.34825633190E+03  0.00000000000E+00 0.  1.
         23    2    1    2    0    0  0.10226563980E+02  0.77422088020E+02 -0.23316971756E+03  0.26482134519E+03  0.98302926491E+02 0.  0.
         23    2    1    2    0    0  0.14904324586E+02 -0.83865028820E+02  0.49640383552E+02  0.13481054699E+03  0.91946908324E+02 0.  0.
        -11    1    4    4    0    0  0.18367217782E+01 -0.10244545025E+03  0.37956942019E+02  0.10926652402E+03  0.00000000000E+00 0. -1.
         11    1    4    4    0    0  0.13067602807E+02  0.18580421428E+02  0.11683441532E+02  0.25544022973E+02  0.00000000000E+00 0.  1.
        -13    1    3    3    0    0 -0.82775616350E+01  0.30280750060E+02 -0.58543350631E+01  0.31932978092E+02  0.00000000000E+00 0. -1.
         13    1    3    3    0    0  0.18504125615E+02  0.47141337960E+02 -0.22731538250E+03  0.23288836710E+03  0.00000000000E+00 0.  1.
         21    1    1    2  502  501 -0.25130888565E+02  0.64429407998E+01 -0.53706753166E+02  0.59644684439E+02  0.00000000000E+00 0. -1.
<scales pt_clust_5="13000.00000" pt_clust_6="13000.00000" pt_clust_7="13000.00000" pt_clust_8="13000.00000" pt_clust_9="25.94365"></scales>
<clustering>
<clus scale="   25.944">  2  9  1 -1</clus>
<clus scale="   91.947">  5  6 -1 -1</clus>
<clus scale="   98.303">  7  8 -1 -1</clus>
<clus scale="  124.326">  1  5  2 -1</clus>
<clus scale="  124.326">  1  5  2 -1</clus>
</clustering>
</event>
<event>
 9    1  0.1713970E-005  0.1035536E+03  0.7546771E-02  0.1274104E+00
          1   -1    0    0  502    0  0.00000000000E+00  0.00000000000E+00  0.37381048747E+03  0.37381048747E+03  0.00000000000E+00 0. -1.
         -1   -1    0    0    0  501 -0.00000000000E+00 -0.00000000000E+00 -0.43039129915E+02  0.43039129915E+02  0.00000000000E+00 0.  1.
         23    2    1    2    0    0 -0.17072124591E+02  0.44823370794E+02  0.89398617378E+02  0.13626304093E+03  0.90966540702E+02 0.  0.
         23    2    1    2    0    0 -0.48272656894E+01 -0.44617091268E+02  0.23642538982E+03  0.25813435783E+03  0.93393760034E+02 0.  0.
        -11    1    4    4    0    0 -0.20543342338E+02  0.24855650564E+02  0.80056436872E+02  0.86306809488E+02  0.00000000000E+00 0. -1.
         11    1    4    4    0    0  0.15716076649E+02 -0.69472741832E+02  0.15636895294E+03  0.17182754834E+03  0.00000000000E+00 0.  1.
        -13    1    3    3    0    0 -0.23060041408E+02 -0.23894613146E+02  0.36429372045E+02  0.49293175945E+02  0.00000000000E+00 0.  1.
         13    1    3    3    0    0  0.59879168163E+01  0.68717983940E+02  0.52969245332E+02  0.86969864986E+02  0.00000000000E+00 0. -1.
         21    1    1    2  502  501  0.21899390281E+02 -0.20627952586E+00  0.49473503658E+01  0.22452218633E+02  0.00000000000E+00 0.  1.
<scales pt_clust_5="13000.00000" pt_clust_6="13000.00000" pt_clust_7="13000.00000" pt_clust_8="13000.00000" pt_clust_9="21.90036"></scales>
<clustering>
<clus scale="   21.900">  2  9  1 -1</clus>
<clus scale="   90.967">  7  8 -1 -1</clus>
<clus scale="   93.394">  5  6 -1 -1</clus>
<clus scale="  101.370">  2  7  1 -1</clus>
<clus scale="  103.554">  1  5  2 -1</clus>
</clustering>
</event>
<event>
 9    1  0.1713970E-005  0.2603765E+03  0.7546771E-02  0.1106991E+00
         -1   -1    0    0    0  501 -0.00000000000E+00  0.00000000000E+00  0.22663240624E+03  0.22663240624E+03  0.00000000000E+00 0.  1.
          1   -1    0    0  502    0  0.00000000000E+00 -0.00000000000E+00 -0.18227058723E+04  0.18227058723E+04  0.00000000000E+00 0. -1.
         23    2    1    2    0    0 -0.28933959187E+03 -0.68960060961E+01 -0.69657604021E+03  0.75962761788E+03  0.89727274101E+02 0.  0.
         23    2    1    2    0    0  0.22342267866E+03 -0.28237869190E+02 -0.10733447220E+04  0.11004956744E+04  0.91141464166E+02 0.  0.
        -11    1    4    4    0    0  0.18263423703E+01 -0.20884808508E+02 -0.10804539007E+03  0.11006051548E+03  0.00000000000E+00 0.  1.
         11    1    4    4    0    0  0.22159633629E+03 -0.73530606823E+01 -0.96529933198E+03  0.99043515894E+03  0.00000000000E+00 0. -1.
        -11    1    3    3    0    0 -0.22965453730E+03 -0.89996639987E+01 -0.62776451089E+03  0.66851363605E+03  0.00000000000E+00 0.  1.
         11    1    3    3    0    0 -0.59685054579E+02  0.21036579026E+01 -0.68811529323E+02  0.91113981827E+02  0.00000000000E+00 0. -1.
         21    1    1    2  502  501  0.65916913210E+02  0.35133875286E+02  0.17384729617E+03  0.18921498626E+03  0.00000000000E+00 0.  1.
<scales pt_clust_5="13000.00000" pt_clust_6="13000.00000" pt_clust_7="13000.00000" pt_clust_8="13000.00000" pt_clust_9="74.69557"></scales>
<clustering>
<clus scale="   74.696">  1  9  2 -1</clus>
<clus scale="   89.727">  7  8 -1 -1</clus>
<clus scale="   91.141">  5  6 -1 -1</clus>
<clus scale="  259.885">  1  7  2 -1</clus>
<clus scale="  260.377">  2  5  1 -1</clus>
</clustering>
</event>
<event>
 9    1  0.1713970E-005  0.2147323E+03  0.7546771E-02  0.1147181E+00
         -2   -1    0    0    0  501 -0.00000000000E+00  0.00000000000E+00  0.28406321491E+03  0.28406321491E+03  0.00000000000E+00 0.  1.
          2   -1    0    0  502    0  0.00000000000E+00 -0.00000000000E+00 -0.60128437791E+03  0.60128437791E+03  0.00000000000E+00 0. -1.
         23    2    1    2    0    0 -0.17309288425E+03 -0.19248808625E+02  0.11846579738E+03  0.22978936786E+03  0.91855022863E+02 0.  0.
         23    2    1    2    0    0 -0.13637897105E+03 -0.51305230957E+02 -0.16983248549E+03  0.24151800524E+03  0.90864862630E+02 0.  0.
        -13    1    4    4    0    0 -0.12787322734E+03 -0.20219498472E+02 -0.16370937969E+03  0.20871308389E+03  0.00000000000E+00 0.  1.
         13    1    4    4    0    0 -0.85057437107E+01 -0.31085732485E+02 -0.61231057965E+01  0.32804921350E+02  0.00000000000E+00 0. -1.
        -13    1    3    3    0    0 -0.12442138009E+03  0.28853105854E+02  0.67480108178E+02  0.14445326767E+03  0.00000000000E+00 0. -1.
         13    1    3    3    0    0 -0.48671504160E+02 -0.48101914479E+02  0.50985689201E+02  0.85336100198E+02  0.00000000000E+00 0.  1.
         21    1    1    2  502  501  0.30947185530E+03  0.70554039582E+02 -0.26585447489E+03  0.41404021972E+03  0.00000000000E+00 0. -1.
<scales pt_clust_5="13000.00000" pt_clust_6="13000.00000" pt_clust_7="13000.00000" pt_clust_8="13000.00000" pt_clust_9="194.09432"></scales>
<clustering>
<clus scale="   90.865">  5  6 -1 -1</clus>
<clus scale="   91.855">  7  8 -1 -1</clus>
<clus scale="  171.720">  2  5  1 -1</clus>
<clus scale="  194.094">  2  9  1 -1</clus>
<clus scale="  171.720">  2  5  1 -1</clus>
</clustering>
</event>
<event>
 9    1  0.1713970E-005  0.1201470E+03  0.7546771E-02  0.1251935E+00
         -1   -1    0    0    0  501 -0.00000000000E+00  0.00000000000E+00  0.71990657696E+02  0.71990657696E+02  0.00000000000E+00 0.  1.
          1   -1    0    0  502    0  0.00000000000E+00 -0.00000000000E+00 -0.25469470490E+03  0.25469470490E+03  0.00000000000E+00 0. -1.
         23    2    1    2    0    0  0.27764433761E+02  0.22084612165E+02 -0.66169988233E+02  0.13502741460E+03  0.11222896896E+03 0.  0.
         23    2    1    2    0    0 -0.82045073303E+01 -0.54020315678E+02 -0.53824559432E+02  0.11861712918E+03  0.90484427888E+02 0.  0.
        -11    1    3    3    0    0 -0.17568625538E+02  0.52326407083E+02 -0.87875925867E+01  0.55892139563E+02  0.00000000000E+00 0. -1.
         11    1    3    3    0    0  0.45333059299E+02 -0.30241794918E+02 -0.57382395647E+02  0.79135275038E+02  0.00000000000E+00 0.  1.
        -11    1    4    4    0    0 -0.22560660981E+02 -0.68656214505E+02 -0.13695278434E+02  0.73554196790E+02  0.00000000000E+00 0.  1.
         11    1    4    4    0    0  0.14356153651E+02  0.14635898827E+02 -0.40129280998E+02  0.45062932390E+02  0.00000000000E+00 0. -1.
         21    1    1    2  502  501 -0.19559926431E+02  0.31935703513E+02 -0.62709499541E+02  0.73040818817E+02  0.00000000000E+00 0. -1.
<scales pt_clust_5="13000.00000" pt_clust_6="13000.00000" pt_clust_7="13000.00000" pt_clust_8="13000.00000" pt_clust_9="37.44970"></scales>
<clustering>
<clus scale="   37.450">  2  9  1 -1</clus>
<clus scale="   90.484">  7  8 -1 -1</clus>
<clus scale="  100.137">  2  7  1 -1</clus>
<clus scale="  112.229">  5  6 -1 -1</clus>
<clus scale="   37.450">  2  5  1 -1</clus>
</clustering>
</event>
<event>
 9    1  0.1713970E-005  0.1334004E+03  0.7546771E-02  0.1235758E+00
          1   -1    0    0  502    0  0.00000000000E+00  0.00000000000E+00  0.25031182296E+03  0.25031182296E+03  0.00000000000E+00 0. -1.
         -1   -1    0    0    0  501 -0.00000000000E+00 -0.00000000000E+00 -0.14033619032E+03  0.14033619032E+03  0.00000000000E+00 0.  1.
         23    2    1    2    0    0  0.58280521634E+02 -0.25640723460E+02 -0.47649072791E+02  0.14899897442E+03  0.12600077118E+03 0.  0.
         23    2    1    2    0    0 -0.61383619703E+01 -0.37535132418E+02  0.10470837983E+03  0.14412913784E+03  0.91448334670E+02 0.  0.
        -11    1    3    3    0    0  0.89561776543E+02  0.58514397491E+00 -0.46125164057E+01  0.89682381316E+02  0.00000000000E+00 0.  1.
         11    1    3    3    0    0 -0.31281254909E+02 -0.26225867435E+02 -0.43036556386E+02  0.59316593099E+02  0.00000000000E+00 0. -1.
        -13    1    4    4    0    0 -0.33478285587E+02  0.13707040855E+02  0.19750002945E+02  0.41215788130E+02  0.00000000000E+00 0.  1.
         13    1    4    4    0    0  0.27339923617E+02 -0.51242173273E+02  0.84958376886E+02  0.10291334971E+03  0.00000000000E+00 0. -1.
         21    1    1    2  502  501 -0.52142159664E+02  0.63175855877E+02  0.52916325601E+02  0.97519901022E+02  0.00000000000E+00 0.  1.
<scales pt_clust_5="13000.00000" pt_clust_6="13000.00000" pt_clust_7="13000.00000" pt_clust_8="13000.00000" pt_clust_9="81.91455"></scales>
<clustering>
<clus scale="   81.915">  1  9  2 -1</clus>
<clus scale="   91.448">  7  8 -1 -1</clus>
<clus scale="  101.402">  1  7  2 -1</clus>
<clus scale="  126.001">  5  6 -1 -1</clus>
<clus scale="   81.915">  1  5  2 -1</clus>
</clustering>
</event>
<event>
 9    1  0.1713970E-005  0.9478992E+02  0.7546771E-02  0.1292862E+00
         -1   -1    0    0    0  501 -0.00000000000E+00  0.00000000000E+00  0.78309503109E+02  0.78309503109E+02  0.00000000000E+00 0.  1.
          1   -1    0    0  502    0  0.00000000000E+00 -0.00000000000E+00 -0.27822280395E+03  0.27822280395E+03  0.00000000000E+00 0. -1.
         23    2    1    2    0    0 -0.41469156512E+02  0.34971837491E+01 -0.48452406093E+02  0.11122455079E+03  0.91056816361E+02 0.  0.
         23    2    1    2    0    0 -0.31353568480E+02 -0.22989190832E+02 -0.13422099898E+03  0.16797534636E+03  0.93214222461E+02 0.  0.
        -11    1    3    3    0    0 -0.28725350694E+02 -0.15671853386E+02 -0.71511592527E+02  0.78642613301E+02  0.00000000000E+00 0. -1.
         11    1    3    3    0    0 -0.12743805818E+02  0.19169037135E+02  0.23059186434E+02  0.32581937487E+02  0.00000000000E+00 0.  1.
        -13    1    4    4    0    0 -0.93514987085E+00  0.30121920268E+02 -0.14340544476E+02  0.33374478300E+02  0.00000000000E+00 0. -1.
         13    1    4    4    0    0 -0.30418418609E+02 -0.53111111100E+02 -0.11988045450E+03  0.13460086806E+03  0.00000000000E+00 0.  1.
         21    1    1    2  502  501  0.72822724992E+02  0.19492007083E+02 -0.17239895772E+02  0.77332409905E+02  0.00000000000E+00 0.  1.
<scales pt_clust_5="13000.00000" pt_clust_6="13000.00000" pt_clust_7="13000.00000" pt_clust_8="13000.00000" pt_clust_9="75.38626"></scales>
<clustering>
<clus scale="   75.386">  1  9  2 -1</clus>
<clus scale="   91.057">  5  6 -1 -1</clus>
<clus scale="   92.669">  1  5  2 -1</clus>
<clus scale="   93.214">  7  8 -1 -1</clus>
<clus scale="   94.790">  2  5  1 -1</clus>
</clustering>
</event>
<event>
 9    1  0.1713970E-005  0.9840272E+02  0.7546771E-02  0.1285109E+00
         -1   -1    0    0    0  501 -0.00000000000E+00  0.00000000000E+00  0.31230093530E+03  0.31230093530E+03  0.00000000000E+00 0.  1.
          1   -1    0    0  502    0  0.00000000000E+00 -0.00000000000E+00 -0.61007110336E+02  0.61007110336E+02  0.00000000000E+00 0. -1.
         23    2    1    2    0    0  0.40975180661E+02 -0.25081260876E+02  0.85266708063E+02  0.13362958513E+03  0.90985820002E+02 0.  0.
         23    2    1    2    0    0 -0.17442879542E+02  0.28160374912E+02  0.26070373223E+02  0.97723748570E+02  0.88164652286E+02 0.  0.
        -11    1    4    4    0    0  0.15555928272E+02  0.36097223074E+02  0.44278665578E+02  0.59208079208E+02  0.00000000000E+00 0. -1.
         11    1    4    4    0    0 -0.32998807815E+02 -0.79368481621E+01 -0.18208292355E+02  0.38515669362E+02  0.00000000000E+00 0.  1.
        -13    1    3    3    0    0 -0.90785008978E+01 -0.21866183786E+02  0.79726518826E+02  0.83167703924E+02  0.00000000000E+00 0.  1.
         13    1    3    3    0    0  0.50053681559E+02 -0.32150770904E+01  0.55401892365E+01  0.50461881208E+02  0.00000000000E+00 0. -1.
         21    1    1    2  502  501 -0.23532301118E+02 -0.30791140352E+01  0.13995674368E+03  0.14195471193E+03  0.00000000000E+00 0.  1.
<scales pt_clust_5="13000.00000" pt_clust_6="13000.00000" pt_clust_7="13000.00000" pt_clust_8="13000.00000" pt_clust_9="23.73289"></scales>
<clustering>
<clus scale="   23.733">  1  9  2 -1</clus>
<clus scale="   88.165">  5  6 -1 -1</clus>
<clus scale="   90.986">  7  8 -1 -1</clus>
<clus scale="   95.800">  2  5  1 -1</clus>
<clus scale="   95.800">  2  5  1 -1</clus>
</clustering>
</event>
<event>
 9    1  0.1713970E-005  0.9066445E+02  0.7546771E-02  0.1318450E+00
          1   -1    0    0  502    0  0.00000000000E+00  0.00000000000E+00  0.17903266852E+03  0.17903266852E+03  0.00000000000E+00 0. -1.
         -1   -1    0    0    0  501 -0.00000000000E+00 -0.00000000000E+00 -0.72105965797E+02  0.72105965797E+02  0.00000000000E+00 0.  1.
         23    2    1    2    0    0 -0.91113930189E+01  0.47598349686E+01  0.77468977562E+02  0.11962458721E+03  0.90570005355E+02 0.  0.
         23    2    1    2    0    0 -0.12027677038E+02  0.78461165011E+01  0.61228160961E+02  0.91325356071E+02  0.66220891022E+02 0.  0.
        -11    1    3    3    0    0 -0.27394605609E+02 -0.36713428260E+02  0.40173925452E+02  0.60928519737E+02  0.00000000000E+00 0.  1.
         11    1    3    3    0    0  0.18283212590E+02  0.41473263229E+02  0.37295052110E+02  0.58696067477E+02  0.00000000000E+00 0. -1.
        -13    1    4    4    0    0 -0.31809523336E+02  0.19110297189E+02  0.57237361864E+02  0.68214110173E+02  0.00000000000E+00 0. -1.
         13    1    4    4    0    0  0.19781846297E+02 -0.11264180688E+02  0.39907990965E+01  0.23111245898E+02  0.00000000000E+00 0.  1.
         21    1    1    2  502  501  0.21139070057E+02 -0.12605951470E+02 -0.31770435804E+02  0.40188691028E+02  0.00000000000E+00 0.  1.
<scales pt_clust_5="13000.00000" pt_clust_6="13000.00000" pt_clust_7="13000.00000" pt_clust_8="13000.00000" pt_clust_9="24.61240"></scales>
<clustering>
<clus scale="   24.612">  2  9  1 -1</clus>
<clus scale="   66.221">  7  8 -1 -1</clus>
<clus scale="   66.350">  1  7  2 -1</clus>
<clus scale="   90.570">  5  6 -1 -1</clus>
<clus scale="   66.350">  1  5  2 -1</clus>
</clustering>
</event>
<event>
 9    1  0.1713970E-005  0.1359498E+03  0.7546771E-02  0.1239030E+00
         -2   -1    0    0    0  501 -0.00000000000E+00  0.00000000000E+00  0.88652371951E+03  0.88652371951E+03  0.00000000000E+00 0.  1.
          2   -1    0    0  502    0  0.00000000000E+00 -0.00000000000E+00 -0.64181108962E+02  0.64181108962E+02  0.00000000000E+00 0. -1.
         23    2    1    2    0    0  0.39632311452E+02  0.71096425155E+02  0.29523256229E+03  0.32150014268E+03  0.97850161603E+02 0.  0.
         23    2    1    2    0    0 -0.99648833751E-01  0.19685029672E+02 -0.32531086322E+01  0.89677872612E+02  0.87430130947E+02 0.  0.
        -11    1    3    3    0    0  0.47544922951E+02  0.91034201761E+02  0.21227769140E+03  0.23581680147E+03  0.00000000000E+00 0. -1.
         11    1    3    3    0    0 -0.79126114987E+01 -0.19937776606E+02  0.82954870891E+02  0.85683341212E+02  0.00000000000E+00 0.  1.
        -13    1    4    4    0    0  0.31950091219E+02  0.18078648532E+01 -0.30315090869E+02  0.44080397441E+02  0.00000000000E+00 0. -1.
         13    1    4    4    0    0 -0.32049740052E+02  0.17877164819E+02  0.27061982236E+02  0.45597475171E+02  0.00000000000E+00 0.  1.
         21    1    1    2  502  501 -0.39532662618E+02 -0.90781454827E+02  0.53036315690E+03  0.53952681319E+03  0.00000000000E+00 0.  1.
<scales pt_clust_5="13000.00000" pt_clust_6="13000.00000" pt_clust_7="13000.00000" pt_clust_8="13000.00000" pt_clust_9="94.38057"></scales>
<clustering>
<clus scale="   87.430">  7  8 -1 -1</clus>
<clus scale="   89.619">  2  7  1 -1</clus>
<clus scale="   94.381">  1  9  2 -1</clus>
<clus scale="   97.850">  5  6 -1 -1</clus>
<clus scale="   89.619">  2  5  1 -1</clus>
</clustering>
</event>
<event>
 9    1  0.1713970E-005  0.1214152E+03  0.7546771E-02  0.1241412E+00
         -1   -1    0    0    0  501 -0.00000000000E+00  0.00000000000E+00  0.55585277356E+02  0.55585277356E+02  0.00000000000E+00 0.  1.
          1   -1    0    0  502    0  0.00000000000E+00 -0.00000000000E+00 -0.54444190708E+03  0.54444190708E+03  0.00000000000E+00 0. -1.
         23    2    1    2    0    0 -0.36873539121E+02  0.25856297693E+02 -0.27920699697E+02  0.10582814647E+03  0.91606905281E+02 0.  0.
         23    2    1    2    0    0  0.68159911290E+02 -0.51138087537E+02 -0.41113353481E+03  0.43018119241E+03  0.93617291939E+02 0.  0.
        -11    1    3    3    0    0 -0.14429763752E+02  0.45502260806E+02 -0.49687918978E+02  0.68902562454E+02  0.00000000000E+00 0.  1.
         11    1    3    3    0    0 -0.22443775369E+02 -0.19645963113E+02  0.21767219280E+02  0.36925584012E+02  0.00000000000E+00 0. -1.
        -13    1    4    4    0    0 -0.59047492539E+00  0.24265849781E+02 -0.90760428809E+02  0.93950175965E+02  0.00000000000E+00 0.  1.
         13    1    4    4    0    0  0.68750386216E+02 -0.75403937318E+02 -0.32037310601E+03  0.33623101645E+03  0.00000000000E+00 0. -1.
         21    1    1    2  502  501 -0.31286372169E+02  0.25281789843E+02 -0.49802395210E+02  0.64017845558E+02  0.00000000000E+00 0. -1.
<scales pt_clust_5="13000.00000" pt_clust_6="13000.00000" pt_clust_7="13000.00000" pt_clust_8="13000.00000" pt_clust_9="40.22445"></scales>
<clustering>
<clus scale="   40.224">  1  9  2 -1</clus>
<clus scale="   91.607">  5  6 -1 -1</clus>
<clus scale="   93.617">  7  8 -1 -1</clus>
<clus scale="  119.872">  1  5  2 -1</clus>
<clus scale="  121.415">  2  5  1 -1</clus>
</clustering>
</event>
<event>
 9    1  0.1713970E-005  0.1033937E+03  0.7546771E-02  0.1275481E+00
         -1   -1    0    0    0  501 -0.00000000000E+00  0.00000000000E+00  0.54432164356E+02  0.54432164356E+02  0.00000000000E+00 0.  1.
          1   -1    0    0  502    0  0.00000000000E+00 -0.00000000000E+00 -0.26252131889E+03  0.26252131889E+03  0.00000000000E+00 0. -1.
         23    2    1    2    0    0  0.52114948899E+02 -0.44389833739E+01 -0.89990873911E+02  0.13875074392E+03  0.91748237471E+02 0.  0.
         23    2    1    2    0    0 -0.23857335712E+02  0.13349629157E+02 -0.10712583037E+03  0.14660705962E+03  0.96282404068E+02 0.  0.
        -13    1    3    3    0    0 -0.22263746581E+02  0.17130163327E+02 -0.26302557866E+02  0.38483002192E+02  0.00000000000E+00 0.  1.
         13    1    3    3    0    0  0.74378695480E+02 -0.21569146701E+02 -0.63688316045E+02  0.10026774173E+03  0.00000000000E+00 0. -1.
        -13    1    4    4    0    0 -0.11978800388E+02  0.39001787157E+02 -0.55557150417E+01  0.41176413513E+02  0.00000000000E+00 0.  1.
         13    1    4    4    0    0 -0.11878535325E+02 -0.25652158000E+02 -0.10157011533E+03  0.10543064611E+03  0.00000000000E+00 0. -1.
         21    1    1    2  502  501 -0.28257613187E+02 -0.89106457829E+01 -0.10972450254E+02  0.31595679703E+02  0.00000000000E+00 0. -1.
<scales pt_clust_5="13000.00000" pt_clust_6="13000.00000" pt_clust_7="13000.00000" pt_clust_8="13000.00000" pt_clust_9="29.62925"></scales>
<clustering>
<clus scale="   29.629">  1  9  2 -1</clus>
<clus scale="   91.748">  5  6 -1 -1</clus>
<clus scale="   96.282">  7  8 -1 -1</clus>
<clus scale="   99.185">  1  5  2 -1</clus>
<clus scale="  103.394">  2  5  1 -1</clus>
</clustering>
</event>
<event>
 9    1  0.1713970E-005  0.1059508E+03  0.7546771E-02  0.1268966E+00
         -1   -1    0    0    0  501 -0.00000000000E+00  0.00000000000E+00  0.15072646844E+03  0.15072646844E+03  0.00000000000E+00 0.  1.
          1   -1    0    0  502    0  0.00000000000E+00 -0.00000000000E+00 -0.13354825803E+03  0.13354825803E+03  0.00000000000E+00 0. -1.
         23    2    1    2    0    0  0.28816626266E+01  0.31070499104E+02  0.71683870774E+02  0.11891093865E+03  0.89596618838E+02 0.  0.
         23    2    1    2    0    0 -0.23147984309E+02 -0.56871629317E+02 -0.68612251950E+02  0.12965079242E+03  0.91276916350E+02 0.  0.
        -11    1    4    4    0    0 -0.55222462291E+02 -0.14950934775E+02 -0.34675329057E+02  0.66898648995E+02  0.00000000000E+00 0. -1.
         11    1    4    4    0    0  0.32074477983E+02 -0.41920694541E+02 -0.33936922893E+02  0.62752143423E+02  0.00000000000E+00 0.  1.
        -13    1    3    3    0    0 -0.24121002433E+02  0.28114116235E+01  0.75812984122E+02  0.79607382542E+02  0.00000000000E+00 0. -1.
         13    1    3    3    0    0  0.27002665060E+02  0.28259087481E+02 -0.41291133487E+01  0.39303556107E+02  0.00000000000E+00 0.  1.
         21    1    1    2  502  501  0.20266321682E+02  0.25801130212E+02  0.14106591589E+02  0.35712995408E+02  0.00000000000E+00 0.  1.
<scales pt_clust_5="13000.00000" pt_clust_6="13000.00000" pt_clust_7="13000.00000" pt_clust_8="13000.00000" pt_clust_9="32.80887"></scales>
<clustering>
<clus scale="   32.809">  1  9  2 -1</clus>
<clus scale="   89.597">  7  8 -1 -1</clus>
<clus scale="   91.277">  5  6 -1 -1</clus>
<clus scale="  104.507">  1  7  2 -1</clus>
<clus scale="  105.951">  2  5  1 -1</clus>
</clustering>
</event>
<event>
 9    1  0.1713970E-005  0.1233019E+03  0.7546771E-02  0.1237995E+00
          1   -1    0    0  502    0  0.00000000000E+00  0.00000000000E+00  0.40243876577E+03  0.40243876577E+03  0.00000000000E+00 0. -1.
         -1   -1    0    0    0  501 -0.00000000000E+00 -0.00000000000E+00 -0.51217987495E+02  0.51217987495E+02  0.00000000000E+00 0.  1.
         23    2    1    2    0    0  0.40790281696E+02  0.82850998548E+02  0.16777481965E+03  0.21244945331E+03  0.91968717834E+02 0.  0.
         23    2    1    2    0    0 -0.13964882383E+02 -0.72097503350E+02  0.17470777077E+03  0.21101465790E+03  0.92797159180E+02 0.  0.
        -11    1    3    3    0    0  0.41597060434E+02  0.38806138945E+02  0.23415733451E+02  0.61518521029E+02  0.00000000000E+00 0.  1.
         11    1    3    3    0    0 -0.80677873811E+00  0.44044859603E+02  0.14435908620E+03  0.15093093228E+03  0.00000000000E+00 0. -1.
        -13    1    4    4    0    0 -0.26923835949E+02 -0.89905823326E+02  0.15629433736E+03  0.18230707584E+03  0.00000000000E+00 0.  1.
         13    1    4    4    0    0  0.12958953566E+02  0.17808319976E+02  0.18413433415E+02  0.28707582065E+02  0.00000000000E+00 0. -1.
         21    1    1    2  502  501 -0.26825399313E+02 -0.10753495198E+02  0.87381878480E+01  0.30192642053E+02  0.00000000000E+00 0. -1.
<scales pt_clust_5="13000.00000" pt_clust_6="13000.00000" pt_clust_7="13000.00000" pt_clust_8="13000.00000" pt_clust_9="28.90051"></scales>
<clustering>
<clus scale="   28.901">  2  9  1 -1</clus>
<clus scale="   91.969">  5  6 -1 -1</clus>
<clus scale="   92.797">  7  8 -1 -1</clus>
<clus scale="  122.680">  2  5  1 -1</clus>
<clus scale="  123.302">  1  5  2 -1</clus>
</clustering>
</event>
<event>
 9    1  0.1713970E-005  0.1132826E+03  0.7546771E-02  0.1255967E+00
          3   -1    0    0  502    0  0.00000000000E+00  0.00000000000E+00  0.30938027046E+03  0.30938027046E+03  0.00000000000E+00 0. -1.
         -3   -1    0    0    0  501 -0.00000000000E+00 -0.00000000000E+00 -0.97624097016E+02  0.97624097016E+02  0.00000000000E+00 0.  1.
         23    2    1    2    0    0  0.52294613291E+02  0.12147630797E+02  0.81448995037E+02  0.13451293081E+03  0.92614784176E+02 0.  0.
         23    2    1    2    0    0 -0.71569991816E+02  0.32914373668E+02  0.17139486869E+03  0.20853580552E+03  0.88912099546E+02 0.  0.
        -11    1    3    3    0    0 -0.19153799806E+01 -0.33030185648E+02  0.11172774479E+02  0.34921236146E+02  0.00000000000E+00 0. -1.
         11    1    3    3    0    0  0.54209993272E+02  0.45177816445E+02  0.70276220558E+02  0.99591694660E+02  0.00000000000E+00 0.  1.
        -11    1    4    4    0    0 -0.43678426798E+02 -0.27391039222E+02  0.86940328723E+02  0.10107766695E+03  0.00000000000E+00 0. -1.
         11    1    4    4    0    0 -0.27891565018E+02  0.60305412891E+02  0.84454539971E+02  0.10745813857E+03  0.00000000000E+00 0.  1.
         21    1    1    2  502  501  0.19275378525E+02 -0.45062004465E+02 -0.41087690284E+02  0.63955631156E+02  0.00000000000E+00 0.  1.
<scales pt_clust_5="13000.00000" pt_clust_6="13000.00000" pt_clust_7="13000.00000" pt_clust_8="13000.00000" pt_clust_9="49.01147"></scales>
<clustering>
<clus scale="   49.011">  2  9  1 -1</clus>
<clus scale="   88.912">  7  8 -1 -1</clus>
<clus scale="   92.615">  5  6 -1 -1</clus>
<clus scale="  110.276">  1  7  2 -1</clus>
<clus scale="  110.276">  1  5  2 -1</clus>
</clustering>
</event>
<event>
 9    1  0.1713970E-005  0.1082675E+03  0.7546771E-02  0.1264799E+00
          1   -1    0    0  502    0  0.00000000000E+00  0.00000000000E+00  0.87733034002E+02  0.87733034002E+02  0.00000000000E+00 0. -1.
         -1   -1    0    0    0  501 -0.00000000000E+00 -0.00000000000E+00 -0.23870928109E+03  0.23870928109E+03  0.00000000000E+00 0.  1.
         23    2    1    2    0    0  0.38594907328E+02  0.24600644045E+02 -0.13913264928E+03  0.17168441339E+03  0.89570559596E+02 0.  0.
         23    2    1    2    0    0 -0.40725319391E+02 -0.44944058039E+02  0.24648734265E+02  0.11292390299E+03  0.92009389587E+02 0.  0.
        -11    1    4    4    0    0 -0.43836776737E+02 -0.24186928320E+02 -0.27206972455E+02  0.56981486874E+02  0.00000000000E+00 0.  1.
         11    1    4    4    0    0  0.31114573461E+01 -0.20757129719E+02  0.51855706720E+02  0.55942416111E+02  0.00000000000E+00 0. -1.
        -13    1    3    3    0    0  0.45694656636E+02 -0.17359347595E+02 -0.10924260481E+03  0.11967997034E+03  0.00000000000E+00 0. -1.
         13    1    3    3    0    0 -0.70997493078E+01  0.41959991640E+02 -0.29890044461E+02  0.52004443046E+02  0.00000000000E+00 0.  1.
         21    1    1    2  502  501  0.21304120623E+01  0.20343413994E+02 -0.36492332076E+02  0.41833998719E+02  0.00000000000E+00 0. -1.
<scales pt_clust_5="13000.00000" pt_clust_6="13000.00000" pt_clust_7="13000.00000" pt_clust_8="13000.00000" pt_clust_9="20.45466"></scales>
<clustering>
<clus scale="   20.455">  2  9  1 -1</clus>
<clus scale="   89.571">  7  8 -1 -1</clus>
<clus scale="   92.009">  5  6 -1 -1</clus>
<clus scale="  106.203">  2  7  1 -1</clus>
<clus scale="  108.268">  1  5  2 -1</clus>
</clustering>
</event>
<event>
 9    1  0.1713970E-005  0.9843620E+02  0.7546771E-02  0.1285427E+00
         -3   -1    0    0    0  501 -0.00000000000E+00  0.00000000000E+00  0.51710182259E+03  0.51710182259E+03  0.00000000000E+00 0.  1.
          3   -1    0    0  502    0  0.00000000000E+00 -0.00000000000E+00 -0.49041962553E+02  0.49041962553E+02  0.00000000000E+00 0. -1.
         23    2    1    2    0    0  0.38466569275E+00 -0.22311488035E+02  0.32371948848E+03  0.33630483436E+03  0.88366758010E+02 0.  0.
         23    2    1    2    0    0 -0.41326684029E+02  0.40153236279E+01  0.27281445556E+02  0.10448429131E+03  0.91916659110E+02 0.  0.
        -11    1    4    4    0    0  0.21031864772E+02 -0.37951421876E+01  0.35160922934E+02  0.41146481522E+02  0.00000000000E+00 0.  1.
         11    1    4    4    0    0 -0.62358548801E+02  0.78104658156E+01 -0.78794773778E+01  0.63337809787E+02  0.00000000000E+00 0. -1.
        -13    1    3    3    0    0 -0.37671306628E+02  0.29265178799E+01  0.21640479329E+03  0.21967868902E+03  0.00000000000E+00 0.  1.
         13    1    3    3    0    0  0.38055972321E+02 -0.25238005915E+02  0.10731469519E+03  0.11662614534E+03  0.00000000000E+00 0. -1.
         21    1    1    2  502  501  0.40942018337E+02  0.18296164407E+02  0.11705892600E+03  0.12535465948E+03  0.00000000000E+00 0. -1.
<scales pt_clust_5="13000.00000" pt_clust_6="13000.00000" pt_clust_7="13000.00000" pt_clust_8="13000.00000" pt_clust_9="44.84416"></scales>
<clustering>
<clus scale="   44.844">  1  9  2 -1</clus>
<clus scale="   88.367">  7  8 -1 -1</clus>
<clus scale="   91.917">  5  6 -1 -1</clus>
<clus scale="   95.130">  1  7  2 -1</clus>
<clus scale="   98.436">  2  5  1 -1</clus>
</clustering>
</event>
<event>
 9    1  0.1713970E-005  0.9761659E+02  0.7546771E-02  0.1285716E+00
         -1   -1    0    0    0  501 -0.00000000000E+00  0.00000000000E+00  0.82228976092E+02  0.82228976092E+02  0.00000000000E+00 0.  1.
          1   -1    0    0  502    0  0.00000000000E+00 -0.00000000000E+00 -0.27965185945E+03  0.27965185945E+03  0.00000000000E+00 0. -1.
         23    2    1    2    0    0 -0.16042835213E+02  0.68768245278E+02 -0.62521358455E+02  0.13140288992E+03  0.91495109681E+02 0.  0.
         23    2    1    2    0    0  0.27301467362E+01 -0.16956304967E+02 -0.14820790354E+03  0.17535295541E+03  0.92130919467E+02 0.  0.
        -11    1    3    3    0    0 -0.94903809326E+01  0.30308300824E+02  0.21780902224E+02  0.38510623609E+02  0.00000000000E+00 0.  1.
         11    1    3    3    0    0 -0.65524542806E+01  0.38459944454E+02 -0.84302260679E+02  0.92892266309E+02  0.00000000000E+00 0. -1.
        -13    1    4    4    0    0  0.46414380183E+02 -0.18092804563E+02 -0.73175698299E+02  0.88523031389E+02  0.00000000000E+00 0.  1.
         13    1    4    4    0    0 -0.43684233447E+02  0.11364995961E+01 -0.75032205239E+02  0.86829924025E+02  0.00000000000E+00 0. -1.
         21    1    1    2  502  501  0.13312688477E+02 -0.51811940311E+02  0.13306378635E+02  0.55124990210E+02  0.00000000000E+00 0.  1.
<scales pt_clust_5="13000.00000" pt_clust_6="13000.00000" pt_clust_7="13000.00000" pt_clust_8="13000.00000" pt_clust_9="53.49490"></scales>
<clustering>
<clus scale="   53.495">  1  9  2 -1</clus>
<clus scale="   91.495">  5  6 -1 -1</clus>
<clus scale="   92.131">  7  8 -1 -1</clus>
<clus scale="   97.017">  1  5  2 -1</clus>
<clus scale="   97.617">  2  5  1 -1</clus>
</clustering>
</event>
<event>
 9    1  0.1713970E-005  0.4577661E+03  0.7546771E-02  0.1025432E+00
         -1   -1    0    0    0  501 -0.00000000000E+00  0.00000000000E+00  0.88049204092E+02  0.88049204092E+02  0.00000000000E+00 0.  1.
          1   -1    0    0  502    0  0.00000000000E+00 -0.00000000000E+00 -0.26659674089E+04  0.26659674089E+04  0.00000000000E+00 0. -1.
         23    2    1    2    0    0  0.39971267600E+03 -0.18954131793E+03 -0.96377333047E+03  0.10643533429E+04  0.91065204573E+02 0.  0.
         23    2    1    2    0    0 -0.39722840413E+03  0.21785234606E+03 -0.15743408718E+04  0.16407547377E+04  0.90977354044E+02 0.  0.
        -11    1    4    4    0    0 -0.12330614781E+03  0.25791429250E+02 -0.37279212305E+03  0.39350167842E+03  0.00000000000E+00 0.  1.
         11    1    4    4    0    0 -0.27392225631E+03  0.19206091681E+03 -0.12015487488E+04  0.12472530593E+04  0.00000000000E+00 0. -1.
        -13    1    3    3    0    0  0.14605379021E+03 -0.72391197180E+02 -0.25677831087E+03  0.30415012082E+03  0.00000000000E+00 0. -1.
         13    1    3    3    0    0  0.25365888579E+03 -0.11715012075E+03 -0.70699501960E+03  0.76020322209E+03  0.00000000000E+00 0.  1.
         21    1    1    2  502  501 -0.24842718706E+01 -0.28311028130E+02 -0.39804002496E+02  0.48908532336E+02  0.00000000000E+00 0. -1.
<scales pt_clust_5="13000.00000" pt_clust_6="13000.00000" pt_clust_7="13000.00000" pt_clust_8="13000.00000" pt_clust_9="28.41982"></scales>
<clustering>
<clus scale="   28.420">  1  9  2 -1</clus>
<clus scale="   90.977">  5  6 -1 -1</clus>
<clus scale="   91.065">  7  8 -1 -1</clus>
<clus scale="  457.749">  2  5  1 -1</clus>
<clus scale="  457.749">  2  5  1 -1</clus>
</clustering>
</event>
<event>
 9    1  0.1713970E-005  0.1075105E+03  0.7546771E-02  0.1266851E+00
          1   -1    0    0  502    0  0.00000000000E+00  0.00000000000E+00  0.66776767522E+03  0.66776767522E+03  0.00000000000E+00 0. -1.
         -1   -1    0    0    0  501 -0.00000000000E+00 -0.00000000000E+00 -0.31422772957E+02  0.31422772957E+02  0.00000000000E+00 0.  1.
         23    2    1    2    0    0 -0.14117477219E+02  0.57494515585E+02  0.98864890032E+02  0.14702421039E+03  0.91306787667E+02 0.  0.
         23    2    1    2    0    0  0.28926666104E+02 -0.40772113782E+02  0.48108552118E+03  0.49150909131E+03  0.87400176669E+02 0.  0.
        -11    1    4    4    0    0 -0.26275666186E+01 -0.62001603790E+02  0.32359101966E+03  0.32948786166E+03  0.00000000000E+00 0. -1.
         11    1    4    4    0    0  0.31554232722E+02  0.21229490008E+02  0.15749450152E+03  0.16202122965E+03  0.00000000000E+00 0.  1.
        -13    1    3    3    0    0  0.37280726020E+00  0.40834247734E+02 -0.47239681284E+01  0.41108279557E+02  0.00000000000E+00 0.  1.
         13    1    3    3    0    0 -0.14490284479E+02  0.16660267852E+02  0.10358885816E+03  0.10591593083E+03  0.00000000000E+00 0. -1.
         21    1    1    2  502  501 -0.14809188885E+02 -0.16722401803E+02  0.56394491053E+02  0.60657146476E+02  0.00000000000E+00 0. -1.
<scales pt_clust_5="13000.00000" pt_clust_6="13000.00000" pt_clust_7="13000.00000" pt_clust_8="13000.00000" pt_clust_9="22.33721"></scales>
<clustering>
<clus scale="   22.337">  1  9  2 -1</clus>
<clus scale="   87.400">  5  6 -1 -1</clus>
<clus scale="   91.307">  7  8 -1 -1</clus>
<clus scale="  104.213">  1  5  2 -1</clus>
<clus scale="   22.337">  1  5  2 -1</clus>
</clustering>
</event>
<event>
 9    1  0.1713970E-005  0.9501438E+02  0.7546771E-02  0.1291304E+00
         -2   -1    0    0    0  501 -0.00000000000E+00  0.00000000000E+00  0.81862139153E+02  0.81862139153E+02  0.00000000000E+00 0.  1.
          2   -1    0    0  502    0  0.00000000000E+00 -0.00000000000E+00 -0.31100372357E+03  0.31100372357E+03  0.00000000000E+00 0. -1.
         23    2    1    2    0    0 -0.10252692955E+02  0.56840485173E+01 -0.63321527713E+02  0.11135457528E+03  0.90844919746E+02 0.  0.
         23    2    1    2    0    0  0.35400014667E+02 -0.23479565264E+01 -0.20951578935E+03  0.23098570629E+03  0.90547537714E+02 0.  0.
        -11    1    4    4    0    0  0.42272914033E+02  0.18198246773E+02 -0.20330290123E+03  0.20844722377E+03  0.00000000000E+00 0.  1.
         11    1    4    4    0    0 -0.68728993658E+01 -0.20546203299E+02 -0.62128881142E+01  0.22538482523E+02  0.00000000000E+00 0. -1.
        -13    1    3    3    0    0  0.56614662124E+01  0.39977131643E+02 -0.34201676588E+01  0.40520621921E+02  0.00000000000E+00 0.  1.
         13    1    3    3    0    0 -0.15914159167E+02 -0.34293083125E+02 -0.59901360054E+02  0.70833953360E+02  0.00000000000E+00 0. -1.
         21    1    1    2  502  501 -0.25147321713E+02 -0.33360919910E+01  0.43695732645E+02  0.50525581150E+02  0.00000000000E+00 0.  1.
<scales pt_clust_5="13000.00000" pt_clust_6="13000.00000" pt_clust_7="13000.00000" pt_clust_8="13000.00000" pt_clust_9="25.36764"></scales>
<clustering>
<clus scale="   25.368">  1  9  2 -1</clus>
<clus scale="   90.548">  5  6 -1 -1</clus>
<clus scale="   90.845">  7  8 -1 -1</clus>
<clus scale="   94.730">  2  5  1 -1</clus>
<clus scale="   94.730">  2  5  1 -1</clus>
</clustering>
</event>
<event>
 9    1  0.1713970E-005  0.1509891E+03  0.7546771E-02  0.1199727E+00
          3   -1    0    0  502    0  0.00000000000E+00  0.00000000000E+00  0.13939475804E+03  0.13939475804E+03  0.00000000000E+00 0. -1.
         -3   -1    0    0    0  501 -0.00000000000E+00 -0.00000000000E+00 -0.40460623397E+03  0.40460623397E+03  0.00000000000E+00 0.  1.
         23    2    1    2    0    0 -0.34262722486E+02  0.85109522892E+02 -0.14476192666E+03  0.19257998859E+03  0.87826371657E+02 0.  0.
         23    2    1    2    0    0  0.48808212569E+02 -0.12111174993E+03  0.57795963752E+02  0.16899514300E+03  0.90380790806E+02 0.  0.
        -11    1    3    3    0    0 -0.36667213211E+02 -0.38785755851E-01 -0.20751738621E+02  0.42132181106E+02  0.00000000000E+00 0.  1.
         11    1    3    3    0    0  0.24044907245E+01  0.85148308648E+02 -0.12401018804E+03  0.15044780749E+03  0.00000000000E+00 0. -1.
        -11    1    4    4    0    0  0.68923041333E+02 -0.10490124519E+03  0.26271298598E+02  0.12823742823E+03  0.00000000000E+00 0.  1.
         11    1    4    4    0    0 -0.20114828765E+02 -0.16210504738E+02  0.31524665154E+02  0.40757714769E+02  0.00000000000E+00 0. -1.
         21    1    1    2  502  501 -0.14545490082E+02  0.36002227040E+02 -0.17824551303E+03  0.18242586041E+03  0.00000000000E+00 0.  1.
<scales pt_clust_5="13000.00000" pt_clust_6="13000.00000" pt_clust_7="13000.00000" pt_clust_8="13000.00000" pt_clust_9="38.82952"></scales>
<clustering>
<clus scale="   38.830">  2  9  1 -1</clus>
<clus scale="   87.826">  5  6 -1 -1</clus>
<clus scale="   90.381">  7  8 -1 -1</clus>
<clus scale="  149.474">  2  5  1 -1</clus>
<clus scale="  150.989">  1  5  2 -1</clus>
</clustering>
</event>
<event>
 9    1  0.1713970E-005  0.9829549E+02  0.7546771E-02  0.1284555E+00
          1   -1    0    0  502    0  0.00000000000E+00  0.00000000000E+00  0.71857979985E+02  0.71857979985E+02  0.00000000000E+00 0. -1.
         -1   -1    0    0    0  501 -0.00000000000E+00 -0.00000000000E+00 -0.26026040641E+03  0.26026040641E+03  0.00000000000E+00 0.  1.
         23    2    1    2    0    0  0.68236130421E+01 -0.35487303713E+02 -0.18310284499E+03  0.20860454100E+03  0.93184184635E+02 0.  0.
         23    2    1    2    0    0 -0.56354455575E+01  0.10432020880E+02  0.11356557702E+02  0.93403948165E+02  0.91949664620E+02 0.  0.
        -11    1    4    4    0    0  0.30188028338E+02  0.37255930045E+02  0.53170600632E+01  0.48245129352E+02  0.00000000000E+00 0. -1.
         11    1    4    4    0    0 -0.35823473895E+02 -0.26823909166E+02  0.60394976384E+01  0.45158818813E+02  0.00000000000E+00 0.  1.
        -13    1    3    3    0    0  0.31312115620E+02  0.16675980557E+02 -0.10964305382E+03  0.11523947312E+03  0.00000000000E+00 0. -1.
         13    1    3    3    0    0 -0.24488502578E+02 -0.52163284270E+02 -0.73459791163E+02  0.93365067890E+02  0.00000000000E+00 0.  1.
         21    1    1    2  502  501 -0.11881674847E+01  0.25055282833E+02 -0.16656139140E+02  0.30109897225E+02  0.00000000000E+00 0.  1.
<scales pt_clust_5="13000.00000" pt_clust_6="13000.00000" pt_clust_7="13000.00000" pt_clust_8="13000.00000" pt_clust_9="25.08344"></scales>
<clustering>
<clus scale="   25.083">  1  9  2 -1</clus>
<clus scale="   91.950">  5  6 -1 -1</clus>
<clus scale="   93.184">  7  8 -1 -1</clus>
<clus scale="   97.126">  1  5  2 -1</clus>
<clus scale="   25.083">  1  5  2 -1</clus>
</clustering>
</event>
<event>
 9    1  0.1713970E-005  0.1119849E+03  0.7546771E-02  0.1257796E+00
         -3   -1    0    0    0  501 -0.00000000000E+00  0.00000000000E+00  0.42399948926E+03  0.42399948926E+03  0.00000000000E+00 0.  1.
          3   -1    0    0  502    0  0.00000000000E+00 -0.00000000000E+00 -0.10612816309E+03  0.10612816309E+03  0.00000000000E+00 0. -1.
         23    2    1    2    0    0  0.12992632396E+02  0.38201390449E+02  0.53806910501E+02  0.11422704642E+03  0.92328109413E+02 0.  0.
         23    2    1    2    0    0 -0.65728499076E+02 -0.46545608766E+02 -0.23801003469E+02  0.12312561187E+03  0.90037210342E+02 0.  0.
        -11    1    4    4    0    0 -0.60883116648E+02 -0.73889405486E+01  0.19681618238E+02  0.64410530441E+02  0.00000000000E+00 0. -1.
         11    1    4    4    0    0 -0.48453824271E+01 -0.39156668218E+02 -0.43482621707E+02  0.58715081429E+02  0.00000000000E+00 0.  1.
        -13    1    3    3    0    0  0.75218105286E+01 -0.22405132502E+02 -0.10349905461E+02  0.25800932911E+02  0.00000000000E+00 0. -1.
         13    1    3    3    0    0  0.54708218677E+01  0.60606522951E+02  0.64156815962E+02  0.88426113510E+02  0.00000000000E+00 0.  1.
         21    1    1    2  502  501  0.52735866679E+02  0.83442183170E+01  0.28786541914E+03  0.29277499406E+03  0.00000000000E+00 0.  1.
<scales pt_clust_5="13000.00000" pt_clust_6="13000.00000" pt_clust_7="13000.00000" pt_clust_8="13000.00000" pt_clust_9="53.39192"></scales>
<clustering>
<clus scale="   53.392">  1  9  2 -1</clus>
<clus scale="   90.037">  5  6 -1 -1</clus>
<clus scale="   92.328">  7  8 -1 -1</clus>
<clus scale="  110.104">  2  5  1 -1</clus>
<clus scale="  110.104">  2  5  1 -1</clus>
</clustering>
</event>
<event>
 9    1  0.1713970E-005  0.1071596E+03  0.7546771E-02  0.1266260E+00
         -3   -1    0    0    0  501 -0.00000000000E+00  0.00000000000E+00  0.20115884379E+03  0.20115884379E+03  0.00000000000E+00 0.  1.
          3   -1    0    0  502    0  0.00000000000E+00 -0.00000000000E+00 -0.10976286150E+03  0.10976286150E+03  0.00000000000E+00 0. -1.
         23    2    1    2    0    0  0.18048893017E+02 -0.35626062310E+02  0.11301541866E+03  0.14967659496E+03  0.89641616269E+02 0.  0.
         23    2    1    2    0    0 -0.39477054511E+02  0.48132009448E+02 -0.52423847232E+02  0.12169164592E+03  0.90473580459E+02 0.  0.
        -11    1    4    4    0    0 -0.21137743060E+02  0.74479725108E+02 -0.32921251775E+02  0.84129914134E+02  0.00000000000E+00 0. -1.
         11    1    4    4    0    0 -0.18339311451E+02 -0.26347715659E+02 -0.19502595457E+02  0.37561731783E+02  0.00000000000E+00 0.  1.
        -11    1    3    3    0    0  0.27699283248E+02  0.50879786428E+01 -0.10465770769E+01  0.28182142266E+02  0.00000000000E+00 0. -1.
         11    1    3    3    0    0 -0.96503902313E+01 -0.40714040953E+02  0.11406199574E+03  0.12149445269E+03  0.00000000000E+00 0.  1.
         21    1    1    2  502  501  0.21428161494E+02 -0.12505947138E+02  0.30804410860E+02  0.39553464415E+02  0.00000000000E+00 0. -1.
<scales pt_clust_5="13000.00000" pt_clust_6="13000.00000" pt_clust_7="13000.00000" pt_clust_8="13000.00000" pt_clust_9="24.81058"></scales>
<clustering>
<clus scale="   24.811">  1  9  2 -1</clus>
<clus scale="   89.642">  7  8 -1 -1</clus>
<clus scale="   90.474">  5  6 -1 -1</clus>
<clus scale="  106.458">  1  7  2 -1</clus>
<clus scale="  107.160">  2  5  1 -1</clus>
</clustering>
</event>
<event>
 9    1  0.1713970E-005  0.9441543E+02  0.7546771E-02  0.1295478E+00
          1   -1    0    0  502    0  0.00000000000E+00  0.00000000000E+00  0.28247858253E+03  0.28247858253E+03  0.00000000000E+00 0. -1.
         -1   -1    0    0    0  501 -0.00000000000E+00 -0.00000000000E+00 -0.49397788012E+02  0.49397788012E+02  0.00000000000E+00 0.  1.
         23    2    1    2    0    0 -0.29801262980E+02 -0.64552641227E+01  0.59956445887E+02  0.10961002726E+03  0.86543613068E+02 0.  0.
         23    2    1    2    0    0  0.77861002667E+01  0.20997619558E+02  0.17153352993E+03  0.19583382173E+03  0.91791124089E+02 0.  0.
        -11    1    4    4    0    0  0.43241779181E+02  0.22424420706E+02  0.52468501226E+02  0.71593643096E+02  0.00000000000E+00 0.  1.
         11    1    4    4    0    0 -0.35455678915E+02 -0.14268011483E+01  0.11906502870E+03  0.12424017864E+03  0.00000000000E+00 0. -1.
        -13    1    3    3    0    0 -0.46722009237E+01 -0.44852903360E+02  0.36820338667E+02  0.58218122100E+02  0.00000000000E+00 0. -1.
         13    1    3    3    0    0 -0.25129062057E+02  0.38397639238E+02  0.23136107221E+02  0.51391905162E+02  0.00000000000E+00 0.  1.
         21    1    1    2  502  501  0.22015162714E+02 -0.14542355435E+02  0.15908187006E+01  0.26432521542E+02  0.00000000000E+00 0. -1.
<scales pt_clust_5="13000.00000" pt_clust_6="13000.00000" pt_clust_7="13000.00000" pt_clust_8="13000.00000" pt_clust_9="26.38461"></scales>
<clustering>
<clus scale="   26.385">  2  9  1 -1</clus>
<clus scale="   86.544">  7  8 -1 -1</clus>
<clus scale="   89.322">  2  7  1 -1</clus>
<clus scale="   91.791">  5  6 -1 -1</clus>
<clus scale="   94.415">  1  5  2 -1</clus>
</clustering>
</event>
<event>
 9    1  0.1713970E-005  0.1486047E+03  0.7546771E-02  0.1202648E+00
          4   -1    0    0  502    0  0.00000000000E+00  0.00000000000E+00  0.94448028818E+02  0.94448028818E+02  0.00000000000E+00 0. -1.
         -4   -1    0    0    0  501 -0.00000000000E+00 -0.00000000000E+00 -0.32079129474E+03  0.32079129474E+03  0.00000000000E+00 0.  1.
         23    2    1    2    0    0 -0.11558712200E+03 -0.60959722177E+02 -0.73964106172E+02  0.17542963293E+03  0.90710509912E+02 0.  0.
         23    2    1    2    0    0  0.85792803269E+02  0.55588837157E+02 -0.76193601384E+02  0.15782928359E+03  0.93027382842E+02 0.  0.
        -11    1    4    4    0    0  0.40996234673E+02 -0.15379303640E+02 -0.56757495907E+02  0.71684221273E+02  0.00000000000E+00 0.  1.
         11    1    4    4    0    0  0.44796568596E+02  0.70968140797E+02 -0.19436105478E+02  0.86145062321E+02  0.00000000000E+00 0. -1.
        -13    1    3    3    0    0 -0.11074280302E+03 -0.20694754303E+02 -0.32101754909E+02  0.11714420149E+03  0.00000000000E+00 0.  1.
         13    1    3    3    0    0 -0.48443189803E+01 -0.40264967874E+02 -0.41862351262E+02  0.58285431434E+02  0.00000000000E+00 0. -1.
         21    1    1    2  502  501  0.29794318727E+02  0.53708850193E+01 -0.76185558366E+02  0.81980407036E+02  0.00000000000E+00 0. -1.
<scales pt_clust_5="13000.00000" pt_clust_6="13000.00000" pt_clust_7="13000.00000" pt_clust_8="13000.00000" pt_clust_9="30.27454"></scales>
<clustering>
<clus scale="   30.275">  2  9  1 -1</clus>
<clus scale="   90.711">  7  8 -1 -1</clus>
<clus scale="   93.027">  5  6 -1 -1</clus>
<clus scale="  147.165">  2  7  1 -1</clus>
<clus scale="  148.605">  1  5  2 -1</clus>
</clustering>
</event>
<event>
 9    1  0.1713970E-005  0.1262663E+03  0.7546771E-02  0.1233797E+00
         -2   -1    0    0    0  501 -0.00000000000E+00  0.00000000000E+00  0.16859058607E+03  0.16859058607E+03  0.00000000000E+00 0.  1.
          2   -1    0    0  502    0  0.00000000000E+00 -0.00000000000E+00 -0.15100830043E+03  0.15100830043E+03  0.00000000000E+00 0. -1.
         23    2    1    2    0    0 -0.32326669330E+02  0.73507551792E+02  0.64203202095E+02  0.13964624291E+03  0.94502107276E+02 0.  0.
         23    2    1    2    0    0 -0.23765090504E+01 -0.87319024147E+02 -0.59835818560E+02  0.14033319135E+03  0.92102223849E+02 0.  0.
        -13    1    3    3    0    0 -0.60026647498E+02  0.30986102354E+02  0.57004212173E+02  0.88390141727E+02  0.00000000000E+00 0. -1.
         13    1    3    3    0    0  0.27699978168E+02  0.42521449438E+02  0.71989899216E+01  0.51256101185E+02  0.00000000000E+00 0.  1.
        -13    1    4    4    0    0 -0.42580517586E+02 -0.31464993073E+02 -0.46001441756E+02  0.70137571320E+02  0.00000000000E+00 0. -1.
         13    1    4    4    0    0  0.40204008536E+02 -0.55854031074E+02 -0.13834376803E+02  0.70195620028E+02  0.00000000000E+00 0.  1.
         21    1    1    2  502  501  0.34703178381E+02  0.13811472355E+02  0.13214902108E+02  0.39619452243E+02  0.00000000000E+00 0.  1.
<scales pt_clust_5="13000.00000" pt_clust_6="13000.00000" pt_clust_7="13000.00000" pt_clust_8="13000.00000" pt_clust_9="37.35060"></scales>
<clustering>
<clus scale="   37.351">  1  9  2 -1</clus>
<clus scale="   92.102">  7  8 -1 -1</clus>
<clus scale="   94.502">  5  6 -1 -1</clus>
<clus scale="  124.480">  2  7  1 -1</clus>
<clus scale="  124.480">  2  5  1 -1</clus>
</clustering>
</event>
<event>
 9    1  0.1713970E-005  0.9029298E+02  0.7546771E-02  0.1303548E+00
          1   -1    0    0  502    0  0.00000000000E+00  0.00000000000E+00  0.83965177733E+02  0.83965177733E+02  0.00000000000E+00 0. -1.
         -1   -1    0    0    0  501 -0.00000000000E+00 -0.00000000000E+00 -0.14100596383E+03  0.14100596383E+03  0.00000000000E+00 0.  1.
         23    2    1    2    0    0  0.23041442640E+00 -0.23009868345E+02 -0.39634262982E+02  0.10098799787E+03  0.89989964887E+02 0.  0.
         23    2    1    2    0    0  0.66406305513E+01 -0.37758867292E+01  0.53368139586E+01  0.88178851833E+02  0.87685078735E+02 0.  0.
        -13    1    4    4    0    0  0.37814329639E+02 -0.25605678655E+02 -0.10661150368E+02  0.46895995913E+02  0.00000000000E+00 0.  1.
         13    1    4    4    0    0 -0.31173699088E+02  0.21829791926E+02  0.15997964327E+02  0.41282855921E+02  0.00000000000E+00 0. -1.
        -13    1    3    3    0    0  0.44680486483E+02 -0.59613144271E+01 -0.22602320509E+02  0.50425668409E+02  0.00000000000E+00 0.  1.
         13    1    3    3    0    0 -0.44450072057E+02 -0.17048553918E+02 -0.17031942472E+02  0.50562329465E+02  0.00000000000E+00 0. -1.
         21    1    1    2  502  501 -0.68710449777E+01  0.26785755074E+02 -0.22743337071E+02  0.35804291853E+02  0.00000000000E+00 0.  1.
<scales pt_clust_5="13000.00000" pt_clust_6="13000.00000" pt_clust_7="13000.00000" pt_clust_8="13000.00000" pt_clust_9="27.65299"></scales>
<clustering>
<clus scale="   27.653">  2  9  1 -1</clus>
<clus scale="   87.685">  5  6 -1 -1</clus>
<clus scale="   87.996">  1  5  2 -1</clus>
<clus scale="   89.990">  7  8 -1 -1</clus>
<clus scale="   87.996">  1  5  2 -1</clus>
</clustering>
</event>
<event>
 9    1  0.1713970E-005  0.1255153E+03  0.7546771E-02  0.1236117E+00
          1   -1    0    0  502    0  0.00000000000E+00  0.00000000000E+00  0.50756423084E+03  0.50756423084E+03  0.00000000000E+00 0. -1.
         -1   -1    0    0    0  501 -0.00000000000E+00 -0.00000000000E+00 -0.45049263883E+02  0.45049263883E+02  0.00000000000E+00 0.  1.
         23    2    1    2    0    0  0.76742772814E+02  0.51906353082E+02  0.15742736285E+03  0.20195822946E+03  0.86139591375E+02 0.  0.
         23    2    1    2    0    0 -0.84006757681E+02 -0.62267677421E+01  0.24172082713E+03  0.27220312433E+03  0.92572537257E+02 0.  0.
        -11    1    4    4    0    0 -0.10225665391E+03  0.68697056763E+01  0.19191070440E+03  0.21756225451E+03  0.00000000000E+00 0. -1.
         11    1    4    4    0    0  0.18249896227E+02 -0.13096473418E+02  0.49810122726E+02  0.54640869816E+02  0.00000000000E+00 0.  1.
        -13    1    3    3    0    0  0.87555311877E+02  0.30652370989E+02  0.15107113044E+03  0.17727940359E+03  0.00000000000E+00 0.  1.
         13    1    3    3    0    0 -0.10812539062E+02  0.21253982093E+02  0.63562324130E+01  0.24678825869E+02  0.00000000000E+00 0. -1.
         21    1    1    2  502  501  0.72639848668E+01 -0.45679585340E+02  0.63366776980E+02  0.78452140938E+02  0.00000000000E+00 0.  1.
<scales pt_clust_5="13000.00000" pt_clust_6="13000.00000" pt_clust_7="13000.00000" pt_clust_8="13000.00000" pt_clust_9="46.25354"></scales>
<clustering>
<clus scale="   46.254">  2  9  1 -1</clus>
<clus scale="   86.140">  7  8 -1 -1</clus>
<clus scale="   92.573">  5  6 -1 -1</clus>
<clus scale="  120.849">  2  7  1 -1</clus>
<clus scale="  125.515">  1  5  2 -1</clus>
</clustering>
</event>
<event>
 9    1  0.1713970E-005  0.2140296E+03  0.7546771E-02  0.1138877E+00
          1   -1    0    0  502    0  0.00000000000E+00  0.00000000000E+00  0.14838418378E+04  0.14838418378E+04  0.00000000000E+00 0. -1.
         -1   -1    0    0    0  501 -0.00000000000E+00 -0.00000000000E+00 -0.49686691498E+02  0.49686691498E+02  0.00000000000E+00 0.  1.
         23    2    1    2    0    0  0.12453493789E+02 -0.15580877356E+03  0.44392399595E+03  0.47942647002E+03  0.91377035117E+02 0.  0.
         23    2    1    2    0    0 -0.76513265732E+01  0.22025726664E+03  0.94511836870E+03  0.97528688220E+03  0.96767584686E+02 0.  0.
        -11    1    4    4    0    0 -0.44353875910E+02  0.17081978288E+03  0.63237482269E+03  0.65653985477E+03  0.00000000000E+00 0. -1.
         11    1    4    4    0    0  0.36702549337E+02  0.49437483762E+02  0.31274354601E+03  0.31874702744E+03  0.00000000000E+00 0.  1.
        -13    1    3    3    0    0  0.34765873328E+02 -0.27061445382E+02  0.64310392303E+02  0.77953924421E+02  0.00000000000E+00 0. -1.
         13    1    3    3    0    0 -0.22312379539E+02 -0.12874732818E+03  0.37961360364E+03  0.40147254560E+03  0.00000000000E+00 0.  1.
         21    1    1    2  502  501 -0.48021672156E+01 -0.64448493079E+02  0.45112781681E+02  0.78815177099E+02  0.00000000000E+00 0.  1.
<scales pt_clust_5="13000.00000" pt_clust_6="13000.00000" pt_clust_7="13000.00000" pt_clust_8="13000.00000" pt_clust_9="64.62715"></scales>
<clustering>
<clus scale="   64.627">  2  9  1 -1</clus>
<clus scale="   91.377">  7  8 -1 -1</clus>
<clus scale="   96.768">  5  6 -1 -1</clus>
<clus scale="  211.647">  2  7  1 -1</clus>
<clus scale="  214.030">  1  5  2 -1</clus>
</clustering>
</event>
<event>
 9    1  0.1713970E-005  0.1005356E+03  0.7546771E-02  0.1279603E+00
          1   -1    0    0  502    0  0.00000000000E+00  0.00000000000E+00  0.13102652708E+03  0.13102652708E+03  0.00000000000E+00 0. -1.
         -1   -1    0    0    0  501 -0.00000000000E+00 -0.00000000000E+00 -0.12857840524E+03  0.12857840524E+03  0.00000000000E+00 0.  1.
         23    2    1    2    0    0  0.14461136143E+01  0.24070759631E+02 -0.50642615773E+02  0.10837089598E+03  0.92725853190E+02 0.  0.
         23    2    1    2    0    0  0.31190268868E+02 -0.35094751232E+02  0.54696226823E+02  0.11674868513E+03  0.91837377005E+02 0.  0.
        -13    1    3    3    0    0  0.49647898219E+01 -0.25397639823E+02 -0.52725416604E+02  0.58733796085E+02  0.00000000000E+00 0. -1.
         13    1    3    3    0    0 -0.35186762076E+01  0.49468399454E+02  0.20828008311E+01  0.49637099896E+02  0.00000000000E+00 0.  1.
        -13    1    4    4    0    0  0.57274701815E+02 -0.21801922072E+02  0.61361403934E+02  0.86723336922E+02  0.00000000000E+00 0. -1.
         13    1    4    4    0    0 -0.26084432947E+02 -0.13292829160E+02 -0.66651771108E+01  0.30025348210E+02  0.00000000000E+00 0.  1.
         21    1    1    2  502  501 -0.32636382483E+02  0.11023991601E+02 -0.16054892084E+01  0.34485351208E+02  0.00000000000E+00 0.  1.
<scales pt_clust_5="13000.00000" pt_clust_6="13000.00000" pt_clust_7="13000.00000" pt_clust_8="13000.00000" pt_clust_9="34.44796"></scales>
<clustering>
<clus scale="   34.448">  2  9  1 -1</clus>
<clus scale="   91.837">  7  8 -1 -1</clus>
<clus scale="   92.726">  5  6 -1 -1</clus>
<clus scale="   99.717">  1  7  2 -1</clus>
<clus scale="   99.717">  1  5  2 -1</clus>
</clustering>
</event>
<event>
 9    1  0.1713970E-005  0.1521048E+03  0.7546771E-02  0.1199059E+00
          1   -1    0    0  502    0  0.00000000000E+00  0.00000000000E+00  0.60260204877E+03  0.60260204877E+03  0.00000000000E+00 0. -1.
         -1   -1    0    0    0  501 -0.00000000000E+00 -0.00000000000E+00 -0.86873395302E+02  0.86873395302E+02  0.00000000000E+00 0.  1.
         23    2    1    2    0    0 -0.82968642778E+02 -0.11897049581E+03  0.20603785955E+03  0.26994761465E+03  0.96862482554E+02 0.  0.
         23    2    1    2    0    0  0.19188917651E+02  0.10655747528E+03  0.32356467147E+03  0.35308672096E+03  0.90848367028E+02 0.  0.
        -11    1    3    3    0    0 -0.19006212928E+01 -0.39954366931E+02  0.12358641369E+03  0.12989828885E+03  0.00000000000E+00 0.  1.
         11    1    3    3    0    0 -0.81068021485E+02 -0.79016128879E+02  0.82451445864E+02  0.14004932579E+03  0.00000000000E+00 0. -1.
        -13    1    4    4    0    0  0.24634087439E+02  0.26359673655E+02  0.21498260197E+03  0.21798896717E+03  0.00000000000E+00 0. -1.
         13    1    4    4    0    0 -0.54451697885E+01  0.80197801629E+02  0.10858206950E+03  0.13509775378E+03  0.00000000000E+00 0.  1.
         21    1    1    2  502  501  0.63779725127E+02  0.12413020526E+02 -0.13873877557E+02  0.66441108468E+02  0.00000000000E+00 0.  1.
<scales pt_clust_5="13000.00000" pt_clust_6="13000.00000" pt_clust_7="13000.00000" pt_clust_8="13000.00000" pt_clust_9="64.97643"></scales>
<clustering>
<clus scale="   64.976">  2  9  1 -1</clus>
<clus scale="   90.848">  7  8 -1 -1</clus>
<clus scale="   96.862">  5  6 -1 -1</clus>
<clus scale="  148.347">  1  7  2 -1</clus>
<clus scale="  148.347">  1  5  2 -1</clus>
</clustering>
</event>
<event>
 9    1  0.1713970E-005  0.1244714E+03  0.7546771E-02  0.1249894E+00
         -1   -1    0    0    0  501 -0.00000000000E+00  0.00000000000E+00  0.10613505125E+03  0.10613505125E+03  0.00000000000E+00 0.  1.
          1   -1    0    0  502    0  0.00000000000E+00 -0.00000000000E+00 -0.27767447605E+03  0.27767447605E+03  0.00000000000E+00 0. -1.
         23    2    1    2    0    0 -0.34399928125E+02 -0.11634479126E+02 -0.44054275847E+02  0.10774696615E+03  0.91377860203E+02 0.  0.
         23    2    1    2    0    0  0.13138736302E+02 -0.83395317097E+01 -0.17859334568E+03  0.21721490054E+03  0.12265625022E+03 0.  0.
        -13    1    4    4    0    0 -0.64927519351E+01  0.42847252695E+02 -0.14846235819E+03  0.15465805731E+03  0.00000000000E+00 0. -1.
         13    1    4    4    0    0  0.19631488237E+02 -0.51186784405E+02 -0.30130987482E+02  0.62556843229E+02  0.00000000000E+00 0.  1.
        -13    1    3    3    0    0 -0.36833396137E+02 -0.32782169913E+02 -0.62479575087E+02  0.79593134366E+02  0.00000000000E+00 0.  1.
         13    1    3    3    0    0  0.24334680119E+01  0.21147690787E+02  0.18425299240E+02  0.28153831787E+02  0.00000000000E+00 0. -1.
         21    1    1    2  502  501  0.21261191823E+02  0.19974010835E+02  0.51108196722E+02  0.58847660606E+02  0.00000000000E+00 0.  1.
<scales pt_clust_5="13000.00000" pt_clust_6="13000.00000" pt_clust_7="13000.00000" pt_clust_8="13000.00000" pt_clust_9="29.17189"></scales>
<clustering>
<clus scale="   29.172">  1  9  2 -1</clus>
<clus scale="   91.378">  7  8 -1 -1</clus>
<clus scale="   93.800">  1  7  2 -1</clus>
<clus scale="  122.656">  5  6 -1 -1</clus>
<clus scale="  124.471">  2  5  1 -1</clus>
</clustering>
</event>
<event>
 9    1  0.1713970E-005  0.1330065E+03  0.7546771E-02  0.1224562E+00
         -1   -1    0    0    0  501 -0.00000000000E+00  0.00000000000E+00  0.23256179080E+03  0.23256179080E+03  0.00000000000E+00 0.  1.
          1   -1    0    0  502    0  0.00000000000E+00 -0.00000000000E+00 -0.31669992884E+03  0.31669992884E+03  0.00000000000E+00 0. -1.
         23    2    1    2    0    0 -0.27804857836E+02  0.43231372523E+02  0.14921079282E+03  0.18003670028E+03  0.86644625119E+02 0.  0.
         23    2    1    2    0    0  0.86181612273E+02 -0.51393016183E+02 -0.26804438115E+03  0.30082741592E+03  0.92632777679E+02 0.  0.
        -11    1    3    3    0    0 -0.45428543230E+02  0.15079497296E+00  0.37119540851E+02  0.58665454844E+02  0.00000000000E+00 0. -1.
         11    1    3    3    0    0  0.17623685394E+02  0.43080577550E+02  0.11209125197E+03  0.12137124543E+03  0.00000000000E+00 0.  1.
        -11    1    4    4    0    0  0.37877683383E+02 -0.48880593295E+02 -0.23308105297E+03  0.24114478753E+03  0.00000000000E+00 0. -1.
         11    1    4    4    0    0  0.48303928890E+02 -0.25124228881E+01 -0.34963328183E+02  0.59682628399E+02  0.00000000000E+00 0.  1.
         21    1    1    2  502  501 -0.58376754437E+02  0.81616436597E+01  0.34695450279E+02  0.68397603437E+02  0.00000000000E+00 0.  1.
<scales pt_clust_5="13000.00000" pt_clust_6="13000.00000" pt_clust_7="13000.00000" pt_clust_8="13000.00000" pt_clust_9="58.94453"></scales>
<clustering>
<clus scale="   58.945">  1  9  2 -1</clus>
<clus scale="   86.645">  5  6 -1 -1</clus>
<clus scale="   92.633">  7  8 -1 -1</clus>
<clus scale="  128.908">  1  5  2 -1</clus>
<clus scale="  133.006">  2  5  1 -1</clus>
</clustering>
</event>
<event>
 9    1  0.1713970E-005  0.9335499E+02  0.7546771E-02  0.1297480E+00
          1   -1    0    0  502    0  0.00000000000E+00  0.00000000000E+00  0.44681461605E+03  0.44681461605E+03  0.00000000000E+00 0. -1.
         -1   -1    0    0    0  501 -0.00000000000E+00 -0.00000000000E+00 -0.26118298696E+02  0.26118298696E+02  0.00000000000E+00 0.  1.
         23    2    1    2    0    0  0.54964028518E+01 -0.15395260437E+02  0.17023910849E+03  0.19472121977E+03  0.93100885502E+02 0.  0.
         23    2    1    2    0    0  0.15097155132E+02 -0.55246152481E+01  0.16806190837E+03  0.19074329284E+03  0.88767974241E+02 0.  0.
        -11    1    3    3    0    0  0.20468710743E+02  0.31269568398E+02  0.11477962358E+03  0.12071087779E+03  0.00000000000E+00 0.  1.
         11    1    3    3    0    0 -0.14972307892E+02 -0.46664828835E+02  0.55459484913E+02  0.74010341984E+02  0.00000000000E+00 0. -1.
        -13    1    4    4    0    0 -0.16007997452E+02  0.35374682621E+02  0.72166706248E+02  0.81949116185E+02  0.00000000000E+00 0.  1.
         13    1    4    4    0    0  0.31105152583E+02 -0.40899297869E+02  0.95895202123E+02  0.10879417665E+03  0.00000000000E+00 0. -1.
         21    1    1    2  502  501 -0.20593557984E+02  0.20919875685E+02  0.82395300489E+02  0.87468402134E+02  0.00000000000E+00 0.  1.
<scales pt_clust_5="13000.00000" pt_clust_6="13000.00000" pt_clust_7="13000.00000" pt_clust_8="13000.00000" pt_clust_9="29.35534"></scales>
<clustering>
<clus scale="   29.355">  1  9  2 -1</clus>
<clus scale="   88.768">  7  8 -1 -1</clus>
<clus scale="   89.034">  1  7  2 -1</clus>
<clus scale="   93.101">  5  6 -1 -1</clus>
<clus scale="   29.355">  1  5  2 -1</clus>
</clustering>
</event>
<event>
 9    1  0.1713970E-005  0.1907539E+03  0.7546771E-02  0.1157879E+00
          2   -1    0    0  502    0  0.00000000000E+00  0.00000000000E+00  0.30220444449E+03  0.30220444449E+03  0.00000000000E+00 0. -1.
         -2   -1    0    0    0  501 -0.00000000000E+00 -0.00000000000E+00 -0.38141188875E+03  0.38141188875E+03  0.00000000000E+00 0.  1.
         23    2    1    2    0    0  0.13116539749E+03 -0.82848847127E+02 -0.22837893368E+03  0.29144728249E+03  0.93361063364E+02 0.  0.
         23    2    1    2    0    0 -0.15307166859E+03  0.67928906298E+02  0.23429491126E+03  0.30301476709E+03  0.94226172556E+02 0.  0.
        -11    1    4    4    0    0 -0.86495401019E+02 -0.12463008250E+02  0.11637931365E+03  0.14553668135E+03  0.00000000000E+00 0.  1.
         11    1    4    4    0    0 -0.66576267573E+02  0.80391914548E+02  0.11791559762E+03  0.15747808574E+03  0.00000000000E+00 0. -1.
        -13    1    3    3    0    0  0.42238616770E+02 -0.41006370768E+01 -0.13146616218E+03  0.13814582067E+03  0.00000000000E+00 0.  1.
         13    1    3    3    0    0  0.88926780724E+02 -0.78748210050E+02 -0.96912771505E+02  0.15330146182E+03  0.00000000000E+00 0. -1.
         21    1    1    2  502  501  0.21906271097E+02  0.14919940828E+02 -0.85123421847E+02  0.89154283659E+02  0.00000000000E+00 0.  1.
<scales pt_clust_5="13000.00000" pt_clust_6="13000.00000" pt_clust_7="13000.00000" pt_clust_8="13000.00000" pt_clust_9="26.50452"></scales>
<clustering>
<clus scale="   26.505">  2  9  1 -1</clus>
<clus scale="   93.361">  7  8 -1 -1</clus>
<clus scale="   94.226">  5  6 -1 -1</clus>
<clus scale="  190.328">  2  7  1 -1</clus>
<clus scale="  190.754">  1  5  2 -1</clus>
</clustering>
</event>
<event>
 9    1  0.1713970E-005  0.9719889E+02  0.7546771E-02  0.1287101E+00
         -1   -1    0    0    0  501 -0.00000000000E+00  0.00000000000E+00  0.12581281606E+03  0.12581281606E+03  0.00000000000E+00 0.  1.
          1   -1    0    0  502    0  0.00000000000E+00 -0.00000000000E+00 -0.31037878306E+03  0.31037878306E+03  0.00000000000E+00 0. -1.
         23    2    1    2    0    0  0.24712343638E+01  0.14417203916E+02  0.42571699822E+02  0.10408038467E+03  0.93842496130E+02 0.  0.
         23    2    1    2    0    0 -0.27954661370E+02  0.97966248211E+00 -0.26611478359E+03  0.28306343999E+03  0.92333147784E+02 0.  0.
        -11    1    3    3    0    0 -0.25578136826E+01 -0.29498161538E+02  0.51104180962E+02  0.59062011961E+02  0.00000000000E+00 0.  1.
         11    1    3    3    0    0  0.50290480464E+01  0.43915365455E+02 -0.85324811408E+01  0.45018372713E+02  0.00000000000E+00 0. -1.
        -13    1    4    4    0    0  0.34183496202E+02 -0.63545762925E-02 -0.87060817373E+02  0.93531264156E+02  0.00000000000E+00 0.  1.
         13    1    4    4    0    0 -0.62138157572E+02  0.98601705840E+00 -0.17905396622E+03  0.18953217583E+03  0.00000000000E+00 0. -1.
         21    1    1    2  502  501  0.25483427006E+02 -0.15396866398E+02  0.38977116773E+02  0.49047774453E+02  0.00000000000E+00 0.  1.
<scales pt_clust_5="13000.00000" pt_clust_6="13000.00000" pt_clust_7="13000.00000" pt_clust_8="13000.00000" pt_clust_9="29.77362"></scales>
<clustering>
<clus scale="   29.774">  1  9  2 -1</clus>
<clus scale="   92.333">  7  8 -1 -1</clus>
<clus scale="   93.842">  5  6 -1 -1</clus>
<clus scale="   95.742">  2  7  1 -1</clus>
<clus scale="   95.742">  2  5  1 -1</clus>
</clustering>
</event>
<event>
 9    1  0.1713970E-005  0.1084520E+03  0.7546771E-02  0.1263652E+00
          1   -1    0    0  502    0  0.00000000000E+00  0.00000000000E+00  0.51931521434E+03  0.51931521434E+03  0.00000000000E+00 0. -1.
         -1   -1    0    0    0  501 -0.00000000000E+00 -0.00000000000E+00 -0.33600644265E+02  0.33600644265E+02  0.00000000000E+00 0.  1.
         23    2    1    2    0    0 -0.33704463129E+02 -0.54554979575E+02  0.13676115503E+03  0.17604929480E+03  0.90429552924E+02 0.  0.
         23    2    1    2    0    0  0.49678571192E+02  0.33159492698E+02  0.31880794549E+03  0.33659637233E+03  0.89950538436E+02 0.  0.
        -11    1    4    4    0    0  0.36978454628E+02 -0.26402164299E+02  0.16582222138E+03  0.17193455002E+03  0.00000000000E+00 0. -1.
         11    1    4    4    0    0  0.12700116564E+02  0.59561656997E+02  0.15298572411E+03  0.16466182231E+03  0.00000000000E+00 0.  1.
        -13    1    3    3    0    0 -0.49699256219E+02 -0.11042962243E+02  0.28652744705E+02  0.58420397662E+02  0.00000000000E+00 0.  1.
         13    1    3    3    0    0  0.15994793090E+02 -0.43512017332E+02  0.10810841032E+03  0.11762889714E+03  0.00000000000E+00 0. -1.
         21    1    1    2  502  501 -0.15974108063E+02  0.21395486877E+02  0.30145469546E+02  0.40270191473E+02  0.00000000000E+00 0.  1.
<scales pt_clust_5="13000.00000" pt_clust_6="13000.00000" pt_clust_7="13000.00000" pt_clust_8="13000.00000" pt_clust_9="26.70092"></scales>
<clustering>
<clus scale="   26.701">  2  9  1 -1</clus>
<clus scale="   89.951">  5  6 -1 -1</clus>
<clus scale="   90.430">  7  8 -1 -1</clus>
<clus scale="  108.053">  1  5  2 -1</clus>
<clus scale="  108.053">  1  5  2 -1</clus>
</clustering>
</event>
<event>
 9    1  0.1713970E-005  0.1133189E+03  0.7546771E-02  0.1254913E+00
          1   -1    0    0  502    0  0.00000000000E+00  0.00000000000E+00  0.16594857716E+03  0.16594857716E+03  0.00000000000E+00 0. -1.
         -1   -1    0    0    0  501 -0.00000000000E+00 -0.00000000000E+00 -0.10593471719E+03  0.10593471719E+03  0.00000000000E+00 0.  1.
         23    2    1    2    0    0 -0.48098370881E+02 -0.34775951790E+02  0.10582375239E+02  0.10938130815E+03  0.91265896160E+02 0.  0.
         23    2    1    2    0    0  0.66249551649E+02  0.25428448304E+02  0.68074147721E+02  0.13485438109E+03  0.92282205406E+02 0.  0.
        -11    1    3    3    0    0 -0.61149677814E+02 -0.52988438919E+02 -0.65460023148E+01  0.81178247715E+02  0.00000000000E+00 0.  1.
         11    1    3    3    0    0  0.13051306933E+02  0.18212487129E+02  0.17128377554E+02  0.28203060431E+02  0.00000000000E+00 0. -1.
        -11    1    4    4    0    0 -0.16927989043E+02  0.20320444108E+02 -0.12176606879E+01  0.26475648422E+02  0.00000000000E+00 0.  1.
         11    1    4    4    0    0  0.83177540692E+02  0.51080041958E+01  0.69291808409E+02  0.10837873267E+03  0.00000000000E+00 0. -1.
         21    1    1    2  502  501 -0.18151180768E+02  0.93475034859E+01 -0.18642662998E+02  0.27647605111E+02  0.00000000000E+00 0.  1.
<scales pt_clust_5="13000.00000" pt_clust_6="13000.00000" pt_clust_7="13000.00000" pt_clust_8="13000.00000" pt_clust_9="20.41669"></scales>
<clustering>
<clus scale="   20.417">  2  9  1 -1</clus>
<clus scale="   91.266">  5  6 -1 -1</clus>
<clus scale="   92.282">  7  8 -1 -1</clus>
<clus scale="  112.493">  2  5  1 -1</clus>
<clus scale="  113.319">  1  5  2 -1</clus>
</clustering>
</event>
<event>
 9    1  0.1713970E-005  0.3203398E+03  0.7546771E-02  0.1075681E+00
          3   -1    0    0  502    0  0.00000000000E+00  0.00000000000E+00  0.29487456538E+03  0.29487456538E+03  0.00000000000E+00 0. -1.
         -3   -1    0    0    0  501 -0.00000000000E+00 -0.00000000000E+00 -0.93869971215E+03  0.93869971215E+03  0.00000000000E+00 0.  1.
         23    2    1    2    0    0  0.25143464199E+03 -0.15315011166E+03 -0.52843106236E+03  0.61114122152E+03  0.87062443583E+02 0.  0.
         23    2    1    2    0    0 -0.22767001476E+03  0.20997727679E+03  0.14535326121E+03  0.35450906969E+03  0.92870972634E+02 0.  0.
        -11    1    4    4    0    0 -0.61567421813E+02  0.69679752068E+02  0.91632237528E+02  0.13054609236E+03  0.00000000000E+00 0.  1.
         11    1    4    4    0    0 -0.16610259294E+03  0.14029752472E+03  0.53721023680E+02  0.22396297732E+03  0.00000000000E+00 0. -1.
        -11    1    3    3    0    0  0.81672738336E+02 -0.77403704387E+02 -0.13314232688E+03  0.17432340304E+03  0.00000000000E+00 0.  1.
         11    1    3    3    0    0  0.16976190365E+03 -0.75746407273E+02 -0.39528873548E+03  0.43681781848E+03  0.00000000000E+00 0. -1.
         21    1    1    2  502  501 -0.23764627231E+02 -0.56827165133E+02 -0.26074734561E+03  0.26792398633E+03  0.00000000000E+00 0.  1.
<scales pt_clust_5="13000.00000" pt_clust_6="13000.00000" pt_clust_7="13000.00000" pt_clust_8="13000.00000" pt_clust_9="61.59614"></scales>
<clustering>
<clus scale="   61.596">  2  9  1 -1</clus>
<clus scale="   87.062">  7  8 -1 -1</clus>
<clus scale="   92.871">  5  6 -1 -1</clus>
<clus scale="  318.704">  2  7  1 -1</clus>
<clus scale="  320.340">  1  5  2 -1</clus>
</clustering>
</event>
<event>
 9    1  0.1713970E-005  0.1172986E+03  0.7546771E-02  0.1248394E+00
         -1   -1    0    0    0  501 -0.00000000000E+00  0.00000000000E+00  0.31040475738E+03  0.31040475738E+03  0.00000000000E+00 0.  1.
          1   -1    0    0  502    0  0.00000000000E+00 -0.00000000000E+00 -0.90087602142E+02  0.90087602142E+02  0.00000000000E+00 0. -1.
         23    2    1    2    0    0 -0.52406933947E+02  0.12849922131E+02  0.75596385516E+02  0.12898056776E+03  0.89496179431E+02 0.  0.
         23    2    1    2    0    0  0.53024258193E+02 -0.80390263023E+02  0.26963505753E+02  0.13575888404E+03  0.91811097408E+02 0.  0.
        -11    1    4    4    0    0  0.74908903821E+02 -0.81523300754E+02  0.26498113933E+02  0.11383998629E+03  0.00000000000E+00 0. -1.
         11    1    4    4    0    0 -0.21884645629E+02  0.11330377310E+01  0.46539182087E+00  0.21918897745E+02  0.00000000000E+00 0.  1.
        -13    1    3    3    0    0 -0.26263918750E+02  0.40271032242E+02  0.43345860824E+01  0.48273575613E+02  0.00000000000E+00 0. -1.
         13    1    3    3    0    0 -0.26143015198E+02 -0.27421110111E+02  0.71261799434E+02  0.80706992150E+02  0.00000000000E+00 0.  1.
         21    1    1    2  502  501 -0.61732424520E+00  0.67540340892E+02  0.11775726397E+03  0.13575290772E+03  0.00000000000E+00 0.  1.
<scales pt_clust_5="13000.00000" pt_clust_6="13000.00000" pt_clust_7="13000.00000" pt_clust_8="13000.00000" pt_clust_9="67.54316"></scales>
<clustering>
<clus scale="   67.543">  1  9  2 -1</clus>
<clus scale="   89.496">  7  8 -1 -1</clus>
<clus scale="   91.811">  5  6 -1 -1</clus>
<clus scale="  115.496">  1  7  2 -1</clus>
<clus scale="  117.299">  2  5  1 -1</clus>
</clustering>
</event>
<event>
 9    1  0.1713970E-005  0.1122434E+03  0.7546771E-02  0.1256692E+00
         -1   -1    0    0    0  501 -0.00000000000E+00  0.00000000000E+00  0.31127386330E+02  0.31127386330E+02  0.00000000000E+00 0.  1.
          1   -1    0    0  502    0  0.00000000000E+00 -0.00000000000E+00 -0.53352887440E+03  0.53352887440E+03  0.00000000000E+00 0. -1.
         23    2    1    2    0    0  0.49215806255E+02  0.55424691776E+02 -0.15910474140E+03  0.19780319629E+03  0.91201390785E+02 0.  0.
         23    2    1    2    0    0 -0.33285269754E+02 -0.35952556791E+02 -0.28261078711E+03  0.30115883546E+03  0.91800281385E+02 0.  0.
        -11    1    3    3    0    0  0.18927360922E+01  0.54553870266E+02 -0.13296468178E+03  0.14373348187E+03  0.00000000000E+00 0.  1.
         11    1    3    3    0    0  0.47323070163E+02  0.87082151027E+00 -0.26140059623E+02  0.54069714414E+02  0.00000000000E+00 0. -1.
        -13    1    4    4    0    0 -0.27908093799E+02  0.20101558287E+02 -0.43224077150E+02  0.55238167878E+02  0.00000000000E+00 0.  1.
         13    1    4    4    0    0 -0.53771759546E+01 -0.56054115079E+02 -0.23938670996E+03  0.24592066758E+03  0.00000000000E+00 0. -1.
         21    1    1    2  502  501 -0.15930536501E+02 -0.19472134985E+02 -0.60685959569E+02  0.65694228992E+02  0.00000000000E+00 0.  1.
<scales pt_clust_5="13000.00000" pt_clust_6="13000.00000" pt_clust_7="13000.00000" pt_clust_8="13000.00000" pt_clust_9="25.15842"></scales>
<clustering>
<clus scale="   25.158">  2  9  1 -1</clus>
<clus scale="   91.201">  5  6 -1 -1</clus>
<clus scale="   91.800">  7  8 -1 -1</clus>
<clus scale="  111.754">  1  5  2 -1</clus>
<clus scale="   25.158">  2  5  1 -1</clus>
</clustering>
</event>
<event>
 9    1  0.1713970E-005  0.9455881E+02  0.7546771E-02  0.1296070E+00
         -2   -1    0    0    0  501 -0.00000000000E+00  0.00000000000E+00  0.10198916178E+03  0.10198916178E+03  0.00000000000E+00 0.  1.
          2   -1    0    0  502    0  0.00000000000E+00 -0.00000000000E+00 -0.18398478917E+03  0.18398478917E+03  0.00000000000E+00 0. -1.
         23    2    1    2    0    0  0.14717657992E+02 -0.11463071249E+02  0.36963047261E+02  0.96883085681E+02  0.87590261839E+02 0.  0.
         23    2    1    2    0    0  0.27471910992E+02 -0.91786327158E+01 -0.67827194797E+02  0.11966127572E+03  0.94230246528E+02 0.  0.
        -11    1    3    3    0    0  0.53844357528E+01 -0.47854072784E+02  0.66562612581E+01  0.48613889418E+02  0.00000000000E+00 0.  1.
         11    1    3    3    0    0  0.93332222388E+01  0.36391001535E+02  0.30306786003E+02  0.48269196263E+02  0.00000000000E+00 0. -1.
        -13    1    4    4    0    0 -0.28212476904E+02 -0.18309504508E+02 -0.30770236261E+01  0.33773508595E+02  0.00000000000E+00 0.  1.
         13    1    4    4    0    0  0.55684387896E+02  0.91308717920E+01 -0.64750171171E+02  0.85887767125E+02  0.00000000000E+00 0. -1.
         21    1    1    2  502  501 -0.42189568984E+02  0.20641703965E+02 -0.51131479847E+02  0.69429589549E+02  0.00000000000E+00 0.  1.
<scales pt_clust_5="13000.00000" pt_clust_6="13000.00000" pt_clust_7="13000.00000" pt_clust_8="13000.00000" pt_clust_9="46.96850"></scales>
<clustering>
<clus scale="   46.968">  2  9  1 -1</clus>
<clus scale="   87.590">  5  6 -1 -1</clus>
<clus scale="   87.944">  1  5  2 -1</clus>
<clus scale="   94.230">  7  8 -1 -1</clus>
<clus scale="   46.968">  2  5  1 -1</clus>
</clustering>
</event>
<event>
 9    1  0.1713970E-005  0.9326819E+02  0.7546771E-02  0.1297441E+00
         -2   -1    0    0    0  501 -0.00000000000E+00  0.00000000000E+00  0.39677884566E+02  0.39677884566E+02  0.00000000000E+00 0.  1.
          2   -1    0    0  502    0  0.00000000000E+00 -0.00000000000E+00 -0.44143396338E+03  0.44143396338E+03  0.00000000000E+00 0. -1.
         23    2    1    2    0    0 -0.24399139992E+02  0.48216041462E+01 -0.96194764227E+02  0.13240304957E+03  0.87513250268E+02 0.  0.
         23    2    1    2    0    0 -0.28882679818E+02 -0.39832026722E+02 -0.20030986421E+03  0.22565373014E+03  0.91513740396E+02 0.  0.
        -11    1    3    3    0    0 -0.23299261055E+02  0.41350129718E+02 -0.28195850714E+02  0.55205930759E+02  0.00000000000E+00 0.  1.
         11    1    3    3    0    0 -0.10998789369E+01 -0.36528525572E+02 -0.67998913512E+02  0.77197118813E+02  0.00000000000E+00 0. -1.
        -11    1    4    4    0    0 -0.28674351380E+02  0.85697750911E+01 -0.13782530517E+02  0.32948711957E+02  0.00000000000E+00 0.  1.
         11    1    4    4    0    0 -0.20832843784E+00 -0.48401801813E+02 -0.18652733369E+03  0.19270501818E+03  0.00000000000E+00 0. -1.
         21    1    1    2  502  501  0.53281819810E+02  0.35010422575E+02 -0.10525145038E+03  0.12305506823E+03  0.00000000000E+00 0.  1.
<scales pt_clust_5="13000.00000" pt_clust_6="13000.00000" pt_clust_7="13000.00000" pt_clust_8="13000.00000" pt_clust_9="63.75486"></scales>
<clustering>
<clus scale="   63.755">  2  9  1 -1</clus>
<clus scale="   87.513">  5  6 -1 -1</clus>
<clus scale="   89.346">  1  5  2 -1</clus>
<clus scale="   91.514">  7  8 -1 -1</clus>
<clus scale="   63.755">  2  5  1 -1</clus>
</clustering>
</event>
<event>
 9    1  0.1713970E-005  0.1744152E+03  0.7546771E-02  0.1173856E+00
          1   -1    0    0  502    0  0.00000000000E+00  0.00000000000E+00  0.53943910005E+03  0.53943910005E+03  0.00000000000E+00 0. -1.
         -1   -1    0    0    0  501 -0.00000000000E+00 -0.00000000000E+00 -0.10582321486E+03  0.10582321486E+03  0.00000000000E+00 0.  1.
         23    2    1    2    0    0 -0.12859907260E+03 -0.16158542134E+02  0.22578769668E+02  0.16056131902E+03  0.92039754280E+02 0.  0.
         23    2    1    2    0    0  0.14745165906E+03  0.26835891410E+02  0.42373834256E+03  0.45958631946E+03  0.95933546035E+02 0.  0.
        -11    1    4    4    0    0  0.61876413159E+02 -0.75639463986E+01  0.29319629450E+03  0.29974984721E+03  0.00000000000E+00 0. -1.
         11    1    4    4    0    0  0.85575245901E+02  0.34399837809E+02  0.13054204806E+03  0.15983647226E+03  0.00000000000E+00 0.  1.
        -13    1    3    3    0    0 -0.14161669944E+02 -0.30817188784E+02 -0.17830568040E+02  0.38316852387E+02  0.00000000000E+00 0. -1.
         13    1    3    3    0    0 -0.11443740265E+03  0.14658646650E+02  0.40409337709E+02  0.12224446663E+03  0.00000000000E+00 0.  1.
         21    1    1    2  502  501 -0.18852586461E+02 -0.10677349276E+02 -0.12701227042E+02  0.25114676431E+02  0.00000000000E+00 0.  1.
<scales pt_clust_5="13000.00000" pt_clust_6="13000.00000" pt_clust_7="13000.00000" pt_clust_8="13000.00000" pt_clust_9="21.66624"></scales>
<clustering>
<clus scale="   21.666">  2  9  1 -1</clus>
<clus scale="   92.040">  7  8 -1 -1</clus>
<clus scale="   95.934">  5  6 -1 -1</clus>
<clus scale="  172.304">  2  7  1 -1</clus>
<clus scale="  174.415">  1  5  2 -1</clus>
</clustering>
</event>
<event>
 9    1  0.1713970E-005  0.1835041E+03  0.7546771E-02  0.1193034E+00
         -2   -1    0    0    0  501 -0.00000000000E+00  0.00000000000E+00  0.25996983397E+03  0.25996983397E+03  0.00000000000E+00 0.  1.
          2   -1    0    0  502    0  0.00000000000E+00 -0.00000000000E+00 -0.52967258523E+03  0.52967258523E+03  0.00000000000E+00 0. -1.
         23    2    1    2    0    0  0.73392818942E+01  0.12344508899E+02  0.17362250148E+03  0.19858007877E+03  0.95304893399E+02 0.  0.
         23    2    1    2    0    0  0.15266198662E+03  0.36705793505E+02 -0.36262129653E+03  0.40526818917E+03  0.89972790453E+02 0.  0.
        -11    1    3    3    0    0 -0.15854267021E+02  0.40482838682E+02  0.14736604213E+03  0.15364559344E+03  0.00000000000E+00 0.  1.
         11    1    3    3    0    0  0.23193548915E+02 -0.28138329783E+02  0.26256459347E+02  0.44934485328E+02  0.00000000000E+00 0. -1.
        -13    1    4    4    0    0  0.38182223094E+02  0.10362147080E+01 -0.19774540196E+03  0.20140059558E+03  0.00000000000E+00 0.  1.
         13    1    4    4    0    0  0.11447976353E+03  0.35669578797E+02 -0.16487589457E+03  0.20386759360E+03  0.00000000000E+00 0. -1.
         21    1    1    2  502  501 -0.16000126852E+03 -0.49050302404E+02 -0.80703956208E+02  0.18579415126E+03  0.00000000000E+00 0.  1.
<scales pt_clust_5="13000.00000" pt_clust_6="13000.00000" pt_clust_7="13000.00000" pt_clust_8="13000.00000" pt_clust_9="159.93326"></scales>
<clustering>
<clus scale="   89.973">  7  8 -1 -1</clus>
<clus scale="   95.305">  5  6 -1 -1</clus>
<clus scale="   96.381">  1  5  2 -1</clus>
<clus scale="  159.933">  1  9  2 -1</clus>
<clus scale="  183.504">  2  5  1 -1</clus>
</clustering>
</event>
<event>
 9    1  0.1713970E-005  0.1013609E+03  0.7546771E-02  0.1277990E+00
         -3   -1    0    0    0  501 -0.00000000000E+00  0.00000000000E+00  0.81965627733E+02  0.81965627733E+02  0.00000000000E+00 0.  1.
          3   -1    0    0  502    0  0.00000000000E+00 -0.00000000000E+00 -0.16737037137E+03  0.16737037137E+03  0.00000000000E+00 0. -1.
         23    2    1    2    0    0 -0.55911574695E+02 -0.13838410080E+02 -0.43129089821E+02  0.11601109608E+03  0.90999177180E+02 0.  0.
         23    2    1    2    0    0  0.34635219954E+02 -0.34382783734E+01 -0.43848348673E+02  0.10587238758E+03  0.89860250113E+02 0.  0.
        -11    1    4    4    0    0 -0.30464302736E+02 -0.48558801604E+01 -0.18672691373E+02  0.36059987748E+02  0.00000000000E+00 0.  1.
         11    1    4    4    0    0  0.65099522690E+02  0.14176017870E+01 -0.25175657300E+02  0.69812399828E+02  0.00000000000E+00 0. -1.
        -13    1    3    3    0    0 -0.10238567559E+02  0.28437136116E+02 -0.44461144724E+02  0.53761439399E+02  0.00000000000E+00 0. -1.
         13    1    3    3    0    0 -0.45673007136E+02 -0.42275546196E+02  0.13320549027E+01  0.62249656684E+02  0.00000000000E+00 0.  1.
         21    1    1    2  502  501  0.21276354740E+02  0.17276688453E+02  0.15726948584E+01  0.27452515442E+02  0.00000000000E+00 0. -1.
<scales pt_clust_5="13000.00000" pt_clust_6="13000.00000" pt_clust_7="13000.00000" pt_clust_8="13000.00000" pt_clust_9="27.40743"></scales>
<clustering>
<clus scale="   27.407">  1  9  2 -1</clus>
<clus scale="   89.860">  5  6 -1 -1</clus>
<clus scale="   90.999">  7  8 -1 -1</clus>
<clus scale="  100.340">  2  5  1 -1</clus>
<clus scale="  100.340">  2  5  1 -1</clus>
</clustering>
</event>
<event>
 9    1  0.1713970E-005  0.1306091E+03  0.7546771E-02  0.1226599E+00
         -1   -1    0    0    0  501 -0.00000000000E+00  0.00000000000E+00  0.37857835503E+03  0.37857835503E+03  0.00000000000E+00 0.  1.
          1   -1    0    0  502    0  0.00000000000E+00 -0.00000000000E+00 -0.11530166553E+03  0.11530166553E+03  0.00000000000E+00 0. -1.
         23    2    1    2    0    0 -0.98990748517E+02  0.50624647204E+02  0.23763733463E+03  0.27765404270E+03  0.90874866813E+02 0.  0.
         23    2    1    2    0    0  0.92555265031E+02  0.11196179517E+02 -0.28964098650E+02  0.13349286962E+03  0.91047216912E+02 0.  0.
        -13    1    3    3    0    0 -0.33614309178E+02  0.25552746078E+02  0.15890427345E+02  0.45115078353E+02  0.00000000000E+00 0. -1.
         13    1    3    3    0    0 -0.65376439339E+02  0.25071901126E+02  0.22174690729E+03  0.23253896434E+03  0.00000000000E+00 0.  1.
        -13    1    4    4    0    0  0.34696023055E+02  0.44253248410E+02 -0.35555502375E+02  0.66530878243E+02  0.00000000000E+00 0.  1.
         13    1    4    4    0    0  0.57859241976E+02 -0.33057068893E+02  0.65914037249E+01  0.66961991374E+02  0.00000000000E+00 0. -1.
         21    1    1    2  502  501  0.64354834859E+01 -0.61820826720E+02  0.54603453518E+02  0.82733108247E+02  0.00000000000E+00 0. -1.
<scales pt_clust_5="13000.00000" pt_clust_6="13000.00000" pt_clust_7="13000.00000" pt_clust_8="13000.00000" pt_clust_9="62.15489"></scales>
<clustering>
<clus scale="   62.155">  1  9  2 -1</clus>
<clus scale="   90.875">  5  6 -1 -1</clus>
<clus scale="   91.047">  7  8 -1 -1</clus>
<clus scale="  130.489">  1  5  2 -1</clus>
<clus scale="  130.609">  2  5  1 -1</clus>
</clustering>
</event>
<event>
 9    1  0.1713970E-005  0.1156952E+03  0.7546771E-02  0.1250621E+00
          1   -1    0    0  502    0  0.00000000000E+00  0.00000000000E+00  0.18887729750E+03  0.18887729750E+03  0.00000000000E+00 0. -1.
         -1   -1    0    0    0  501 -0.00000000000E+00 -0.00000000000E+00 -0.12313712509E+03  0.12313712509E+03  0.00000000000E+00 0.  1.
         23    2    1    2    0    0  0.93096323203E+02  0.10739978139E+01 -0.24472779858E+02  0.13357535975E+03  0.92603352597E+02 0.  0.
         23    2    1    2    0    0 -0.61351495895E+02  0.77710325458E+01  0.93995566151E+02  0.14526864243E+03  0.91888067890E+02 0.  0.
        -11    1    4    4    0    0 -0.54196858789E+01  0.42789628132E+02  0.49622276653E+02  0.65747209909E+02  0.00000000000E+00 0. -1.
         11    1    4    4    0    0 -0.55931810016E+02 -0.35018595586E+02  0.44373289499E+02  0.79521432516E+02  0.00000000000E+00 0.  1.
        -13    1    3    3    0    0  0.95652972825E+02  0.30334116027E+02 -0.27501591701E+02  0.10404800503E+03  0.00000000000E+00 0. -1.
         13    1    3    3    0    0 -0.25566496217E+01 -0.29260118214E+02  0.30288118426E+01  0.29527354713E+02  0.00000000000E+00 0.  1.
         21    1    1    2  502  501 -0.31744827308E+02 -0.88450303597E+01 -0.37826138894E+01  0.33170420418E+02  0.00000000000E+00 0.  1.
<scales pt_clust_5="13000.00000" pt_clust_6="13000.00000" pt_clust_7="13000.00000" pt_clust_8="13000.00000" pt_clust_9="32.95404"></scales>
<clustering>
<clus scale="   32.954">  2  9  1 -1</clus>
<clus scale="   91.888">  5  6 -1 -1</clus>
<clus scale="   92.603">  7  8 -1 -1</clus>
<clus scale="  115.123">  1  5  2 -1</clus>
<clus scale="  115.123">  1  5  2 -1</clus>
</clustering>
</event>
<event>
 9    1  0.1713970E-005  0.1046657E+03  0.7546771E-02  0.1271699E+00
          1   -1    0    0  502    0  0.00000000000E+00  0.00000000000E+00  0.38796784970E+02  0.38796784970E+02  0.00000000000E+00 0. -1.
         -1   -1    0    0    0  501 -0.00000000000E+00 -0.00000000000E+00 -0.39180134758E+03  0.39180134758E+03  0.00000000000E+00 0.  1.
         23    2    1    2    0    0  0.40811833162E+02  0.55905941502E+01 -0.15169180217E+03  0.18148987438E+03  0.90726573761E+02 0.  0.
         23    2    1    2    0    0 -0.53690809436E+02  0.15321531940E+02 -0.10929700913E+03  0.15387127200E+03  0.92806679620E+02 0.  0.
        -11    1    4    4    0    0  0.32849379242E+01 -0.33208876745E+02 -0.30782670028E+02  0.45400364380E+02  0.00000000000E+00 0.  1.
         11    1    4    4    0    0 -0.56975747360E+02  0.48530408684E+02 -0.78514339105E+02  0.10847090762E+03  0.00000000000E+00 0. -1.
        -13    1    3    3    0    0  0.35585441800E+02 -0.36942678806E+02 -0.52310293107E+02  0.73262896137E+02  0.00000000000E+00 0.  1.
         13    1    3    3    0    0  0.52263913622E+01  0.42533272956E+02 -0.99381509067E+02  0.10822697824E+03  0.00000000000E+00 0. -1.
         21    1    1    2  502  501  0.12878976274E+02 -0.20912126090E+02 -0.92015751307E+02  0.95236986177E+02  0.00000000000E+00 0.  1.
<scales pt_clust_5="13000.00000" pt_clust_6="13000.00000" pt_clust_7="13000.00000" pt_clust_8="13000.00000" pt_clust_9="24.55983"></scales>
<clustering>
<clus scale="   24.560">  2  9  1 -1</clus>
<clus scale="   90.727">  7  8 -1 -1</clus>
<clus scale="   92.807">  5  6 -1 -1</clus>
<clus scale="  102.826">  2  7  1 -1</clus>
<clus scale="  104.666">  1  5  2 -1</clus>
</clustering>
</event>
<event>
 9    1  0.1713970E-005  0.1149211E+03  0.7546771E-02  0.1252743E+00
         -1   -1    0    0    0  501 -0.00000000000E+00  0.00000000000E+00  0.14118740239E+03  0.14118740239E+03  0.00000000000E+00 0.  1.
          1   -1    0    0  502    0  0.00000000000E+00 -0.00000000000E+00 -0.18091283344E+03  0.18091283344E+03  0.00000000000E+00 0. -1.
         23    2    1    2    0    0  0.55944223963E+02 -0.27775171291E+02 -0.33489291728E+02  0.11328037781E+03  0.88372478757E+02 0.  0.
         23    2    1    2    0    0 -0.59879812754E+02  0.47831461892E+02 -0.72466361380E+02  0.13950762270E+03  0.91310254290E+02 0.  0.
        -11    1    4    4    0    0 -0.45651791787E+02  0.75109339550E+02 -0.59388989643E+02  0.10607804236E+03  0.00000000000E+00 0. -1.
         11    1    4    4    0    0 -0.14228020967E+02 -0.27277877657E+02 -0.13077371736E+02  0.33429580339E+02  0.00000000000E+00 0.  1.
        -11    1    3    3    0    0  0.37262280239E+02  0.24014251316E+02 -0.37520396254E+02  0.58077034445E+02  0.00000000000E+00 0.  1.
         11    1    3    3    0    0  0.18681943724E+02 -0.51789422606E+02  0.40311045254E+01  0.55203343367E+02  0.00000000000E+00 0. -1.
         21    1    1    2  502  501  0.39355887903E+01 -0.20056290602E+02  0.66230222056E+02  0.69312235323E+02  0.00000000000E+00 0.  1.
<scales pt_clust_5="13000.00000" pt_clust_6="13000.00000" pt_clust_7="13000.00000" pt_clust_8="13000.00000" pt_clust_9="20.43878"></scales>
<clustering>
<clus scale="   20.439">  1  9  2 -1</clus>
<clus scale="   88.372">  7  8 -1 -1</clus>
<clus scale="   91.310">  5  6 -1 -1</clus>
<clus scale="  112.601">  1  7  2 -1</clus>
<clus scale="  114.921">  2  5  1 -1</clus>
</clustering>
</event>
<event>
 9    1  0.1713970E-005  0.2055833E+03  0.7546771E-02  0.1145313E+00
          1   -1    0    0  502    0  0.00000000000E+00  0.00000000000E+00  0.10003407934E+03  0.10003407934E+03  0.00000000000E+00 0. -1.
         -1   -1    0    0    0  501 -0.00000000000E+00 -0.00000000000E+00 -0.10449666837E+04  0.10449666837E+04  0.00000000000E+00 0.  1.
         23    2    1    2    0    0  0.19422205313E+03  0.39971267714E+02 -0.83548271923E+03  0.86359870909E+03  0.91931757621E+02 0.  0.
         23    2    1    2    0    0 -0.17958377247E+03 -0.19446362819E+02 -0.40064702779E+02  0.20757892403E+03  0.94102799789E+02 0.  0.
        -11    1    4    4    0    0 -0.15742206662E+03  0.63017253995E+01 -0.59536476493E+02  0.16842212098E+03  0.00000000000E+00 0. -1.
         11    1    4    4    0    0 -0.22161705854E+02 -0.25748088219E+02  0.19471773714E+02  0.39156803047E+02  0.00000000000E+00 0.  1.
        -13    1    3    3    0    0  0.11740419239E+03  0.75010943282E+01 -0.64526519546E+03  0.65590180918E+03  0.00000000000E+00 0.  1.
         13    1    3    3    0    0  0.76817860741E+02  0.32470173386E+02 -0.19021752377E+03  0.20769689992E+03  0.00000000000E+00 0. -1.
         21    1    1    2  502  501 -0.14638280659E+02 -0.20524904895E+02 -0.69385182337E+02  0.73823129909E+02  0.00000000000E+00 0. -1.
<scales pt_clust_5="13000.00000" pt_clust_6="13000.00000" pt_clust_7="13000.00000" pt_clust_8="13000.00000" pt_clust_9="25.21014"></scales>
<clustering>
<clus scale="   25.210">  2  9  1 -1</clus>
<clus scale="   91.932">  7  8 -1 -1</clus>
<clus scale="   94.103">  5  6 -1 -1</clus>
<clus scale="  204.599">  2  7  1 -1</clus>
<clus scale="  205.583">  1  5  2 -1</clus>
</clustering>
</event>
<event>
 9    1  0.1713970E-005  0.1043990E+03  0.7546771E-02  0.1273235E+00
         -3   -1    0    0    0  501 -0.00000000000E+00  0.00000000000E+00  0.78236187112E+02  0.78236187112E+02  0.00000000000E+00 0.  1.
          3   -1    0    0  502    0  0.00000000000E+00 -0.00000000000E+00 -0.36518407657E+03  0.36518407657E+03  0.00000000000E+00 0. -1.
         23    2    1    2    0    0  0.50806641218E+02  0.24667469997E+02 -0.14558420401E+03  0.17865280662E+03  0.86788628214E+02 0.  0.
         23    2    1    2    0    0 -0.31071100249E+02 -0.37137423232E+02 -0.18694585396E+03  0.21355490588E+03  0.91172057322E+02 0.  0.
        -13    1    4    4    0    0 -0.52695051387E+02 -0.49445841486E+02 -0.16594392222E+03  0.18099459938E+03  0.00000000000E+00 0. -1.
         13    1    4    4    0    0  0.21623951138E+02  0.12308418253E+02 -0.21001931740E+02  0.32560306503E+02  0.00000000000E+00 0.  1.
        -13    1    3    3    0    0  0.49709436655E+02 -0.10507203602E+02 -0.32726482177E+02  0.60435519819E+02  0.00000000000E+00 0.  1.
         13    1    3    3    0    0  0.10972045624E+01  0.35174673599E+02 -0.11285772184E+03  0.11821728680E+03  0.00000000000E+00 0. -1.
         21    1    1    2  502  501 -0.19735540969E+02  0.12469953236E+02  0.45582168521E+02  0.51212551178E+02  0.00000000000E+00 0. -1.
<scales pt_clust_5="13000.00000" pt_clust_6="13000.00000" pt_clust_7="13000.00000" pt_clust_8="13000.00000" pt_clust_9="23.34505"></scales>
<clustering>
<clus scale="   23.345">  1  9  2 -1</clus>
<clus scale="   86.789">  7  8 -1 -1</clus>
<clus scale="   91.172">  5  6 -1 -1</clus>
<clus scale="  100.594">  1  7  2 -1</clus>
<clus scale="  104.399">  2  5  1 -1</clus>
</clustering>
</event>
<event>
 9    1  0.2583713E-005  0.1102914E+03  0.7546771E-02  0.1265055E+00
          1   -1    0    0  502    0  0.00000000000E+00  0.00000000000E+00  0.28732308403E+03  0.28732308403E+03  0.00000000000E+00 0. -1.
         -1   -1    0    0    0  501 -0.00000000000E+00 -0.00000000000E+00 -0.81123560902E+02  0.81123560902E+02  0.00000000000E+00 0.  1.
         23    2    1    2    0    0 -0.89601971806E+01  0.20778248711E+02 -0.22696391747E+02  0.97726005267E+02  0.92321314733E+02 0.  0.
         23    2    1    2    0    0  0.24908489140E+02 -0.33667493888E+02  0.22304665454E+03  0.24939707279E+03  0.10341739139E+03 0.  0.
        -11    1    4    4    0    0  0.37743530127E+02 -0.64592938984E+02  0.12373805830E+03  0.14459574304E+03  0.00000000000E+00 0. -1.
         11    1    4    4    0    0 -0.12835040987E+02  0.30925445097E+02  0.99308596238E+02  0.10480132975E+03  0.00000000000E+00 0.  1.
        -13    1    3    3    0    0  0.38030859335E+02 -0.85025018111E+01 -0.15305991743E+02  0.41867794091E+02  0.00000000000E+00 0. -1.
         13    1    3    3    0    0 -0.46991056515E+02  0.29280750522E+02 -0.73904000042E+01  0.55858211176E+02  0.00000000000E+00 0.  1.
         21    1    1    2  502  501 -0.15948291959E+02  0.12889245177E+02  0.58492603387E+01  0.21323566873E+02  0.00000000000E+00 0. -1.
<scales pt_clust_5="13000.00000" pt_clust_6="13000.00000" pt_clust_7="13000.00000" pt_clust_8="13000.00000" pt_clust_9="20.50563"></scales>
<clustering>
<clus scale="   20.506">  2  9  1 -1</clus>
<clus scale="   92.321">  7  8 -1 -1</clus>
<clus scale="   99.961">  2  7  1 -1</clus>
<clus scale="  103.417">  5  6 -1 -1</clus>
<clus scale="  110.291">  1  5  2 -1</clus>
</clustering>
</event>
<event>
 9    1  0.1713970E-005  0.1447894E+03  0.7546771E-02  0.1207978E+00
          1   -1    0    0  502    0  0.00000000000E+00  0.00000000000E+00  0.49987607388E+03  0.49987607388E+03  0.00000000000E+00 0. -1.
         -1   -1    0    0    0  501 -0.00000000000E+00 -0.00000000000E+00 -0.29216767225E+03  0.29216767225E+03  0.00000000000E+00 0.  1.
         23    2    1    2    0    0 -0.16734381452E+03 -0.28901841870E+02 -0.14857524197E+03  0.24189305225E+03  0.87168672573E+02 0.  0.
         23    2    1    2    0    0  0.10548938637E+03  0.25602119496E+02  0.43056071991E+03  0.45343491174E+03  0.91854267715E+02 0.  0.
        -11    1    3    3    0    0 -0.10952007530E+03 -0.58237157150E+02 -0.80459765222E+02  0.14785123329E+03  0.00000000000E+00 0.  1.
         11    1    3    3    0    0 -0.57823739222E+02  0.29335315280E+02 -0.68115476747E+02  0.94041818957E+02  0.00000000000E+00 0. -1.
        -11    1    4    4    0    0  0.86163076343E+02 -0.14510586128E+02  0.35622275339E+03  0.36678233718E+03  0.00000000000E+00 0. -1.
         11    1    4    4    0    0  0.19326310026E+02  0.40112705623E+02  0.74337966512E+02  0.86652574553E+02  0.00000000000E+00 0.  1.
         21    1    1    2  502  501  0.61854428155E+02  0.32997223742E+01 -0.74277076310E+02  0.96715782142E+02  0.00000000000E+00 0. -1.
<scales pt_clust_5="13000.00000" pt_clust_6="13000.00000" pt_clust_7="13000.00000" pt_clust_8="13000.00000" pt_clust_9="61.94238"></scales>
<clustering>
<clus scale="   61.942">  2  9  1 -1</clus>
<clus scale="   87.169">  5  6 -1 -1</clus>
<clus scale="   91.854">  7  8 -1 -1</clus>
<clus scale="  141.863">  2  5  1 -1</clus>
<clus scale="  144.789">  1  5  2 -1</clus>
</clustering>
</event>
<event>
 9    1  0.1713970E-005  0.1405126E+03  0.7546771E-02  0.1213308E+00
          1   -1    0    0  502    0  0.00000000000E+00  0.00000000000E+00  0.63866969448E+03  0.63866969448E+03  0.00000000000E+00 0. -1.
         -1   -1    0    0    0  501 -0.00000000000E+00 -0.00000000000E+00 -0.45739067691E+02  0.45739067691E+02  0.00000000000E+00 0.  1.
         23    2    1    2    0    0 -0.32947035917E+02  0.83151226279E+02  0.13385010563E+03  0.18361920231E+03  0.88320592585E+02 0.  0.
         23    2    1    2    0    0  0.56547572495E+02 -0.10042926179E+03  0.44430477759E+03  0.46802008571E+03  0.91391469288E+02 0.  0.
        -11    1    4    4    0    0 -0.24326161611E+02 -0.34727201394E+02  0.11174592109E+03  0.11951941907E+03  0.00000000000E+00 0. -1.
         11    1    4    4    0    0  0.80873734106E+02 -0.65702060398E+02  0.33255885651E+03  0.34850066664E+03  0.00000000000E+00 0.  1.
        -13    1    3    3    0    0 -0.43388754838E+02  0.24647265533E+02  0.10768643516E+03  0.11868630950E+03  0.00000000000E+00 0. -1.
         13    1    3    3    0    0  0.10441718921E+02  0.58503960746E+02  0.26163670464E+02  0.64932892813E+02  0.00000000000E+00 0.  1.
         21    1    1    2  502  501 -0.23600536578E+02  0.17278035513E+02  0.14775743573E+02  0.32769474150E+02  0.00000000000E+00 0. -1.
<scales pt_clust_5="13000.00000" pt_clust_6="13000.00000" pt_clust_7="13000.00000" pt_clust_8="13000.00000" pt_clust_9="29.24920"></scales>
<clustering>
<clus scale="   29.249">  2  9  1 -1</clus>
<clus scale="   88.321">  7  8 -1 -1</clus>
<clus scale="   91.391">  5  6 -1 -1</clus>
<clus scale="  138.535">  2  7  1 -1</clus>
<clus scale="  140.513">  1  5  2 -1</clus>
</clustering>
</event>
<event>
 9    1  0.1713970E-005  0.1695750E+03  0.7546771E-02  0.1178837E+00
         -1   -1    0    0    0  501 -0.00000000000E+00  0.00000000000E+00  0.91392634733E+02  0.91392634733E+02  0.00000000000E+00 0.  1.
          1   -1    0    0  502    0  0.00000000000E+00 -0.00000000000E+00 -0.49416407929E+03  0.49416407929E+03  0.00000000000E+00 0. -1.
         23    2    1    2    0    0 -0.11568967971E+03 -0.91396390694E+02 -0.12447532790E+03  0.21396325409E+03  0.92459529638E+02 0.  0.
         23    2    1    2    0    0  0.12191719302E+03  0.61982403692E+02 -0.29359293792E+03  0.33785983734E+03  0.96160470936E+02 0.  0.
        -11    1    4    4    0    0  0.88624990709E+02  0.85647127776E+02 -0.18964591114E+03  0.22617557580E+03  0.00000000000E+00 0. -1.
         11    1    4    4    0    0  0.33292202311E+02 -0.23664724084E+02 -0.10394702677E+03  0.11168426154E+03  0.00000000000E+00 0.  1.
        -13    1    3    3    0    0 -0.58391380263E+02 -0.74025276093E+02 -0.12180292460E+03  0.15403002055E+03  0.00000000000E+00 0. -1.
         13    1    3    3    0    0 -0.57298299451E+02 -0.17371114601E+02 -0.26724032908E+01  0.59933233533E+02  0.00000000000E+00 0.  1.
         21    1    1    2  502  501 -0.62275133069E+01  0.29413987003E+02  0.15296821251E+02  0.33733622600E+02  0.00000000000E+00 0.  1.
<scales pt_clust_5="13000.00000" pt_clust_6="13000.00000" pt_clust_7="13000.00000" pt_clust_8="13000.00000" pt_clust_9="30.06600"></scales>
<clustering>
<clus scale="   30.066">  1  9  2 -1</clus>
<clus scale="   92.460">  7  8 -1 -1</clus>
<clus scale="   96.160">  5  6 -1 -1</clus>
<clus scale="  167.504">  1  7  2 -1</clus>
<clus scale="  169.575">  2  5  1 -1</clus>
</clustering>
</event>
<event>
 9    1  0.1713970E-005  0.1091320E+03  0.7546771E-02  0.1262573E+00
          2   -1    0    0  502    0  0.00000000000E+00  0.00000000000E+00  0.27443385810E+03  0.27443385810E+03  0.00000000000E+00 0. -1.
         -2   -1    0    0    0  501 -0.00000000000E+00 -0.00000000000E+00 -0.71804991320E+02  0.71804991320E+02  0.00000000000E+00 0.  1.
         23    2    1    2    0    0  0.27938400394E+02  0.55814003492E+02  0.90321094310E+02  0.14241557386E+03  0.90711291461E+02 0.  0.
         23    2    1    2    0    0 -0.53918369577E+02 -0.29716672132E+02  0.12316550996E+03  0.16543161024E+03  0.91692985784E+02 0.  0.
        -11    1    4    4    0    0 -0.50111250636E+02 -0.28825077975E+01  0.12836929622E+03  0.13783367696E+03  0.00000000000E+00 0. -1.
         11    1    4    4    0    0 -0.38071189411E+01 -0.26834164334E+02 -0.52037862567E+01  0.27597933284E+02  0.00000000000E+00 0.  1.
        -13    1    3    3    0    0  0.19765780595E+02 -0.23209500453E+02  0.28757344859E+02  0.41908852014E+02  0.00000000000E+00 0.  1.
         13    1    3    3    0    0  0.81726197991E+01  0.79023503944E+02  0.61563749451E+02  0.10050672185E+03  0.00000000000E+00 0. -1.
         21    1    1    2  502  501  0.25979969183E+02 -0.26097331360E+02 -0.10857737489E+02  0.38391665322E+02  0.00000000000E+00 0. -1.
<scales pt_clust_5="13000.00000" pt_clust_6="13000.00000" pt_clust_7="13000.00000" pt_clust_8="13000.00000" pt_clust_9="36.82431"></scales>
<clustering>
<clus scale="   36.824">  2  9  1 -1</clus>
<clus scale="   90.711">  7  8 -1 -1</clus>
<clus scale="   91.693">  5  6 -1 -1</clus>
<clus scale="  108.308">  2  7  1 -1</clus>
<clus scale="  109.132">  1  5  2 -1</clus>
</clustering>
</event>
<event>
 9    1  0.1713970E-005  0.1155525E+03  0.7546771E-02  0.1251373E+00
         -1   -1    0    0    0  501 -0.00000000000E+00  0.00000000000E+00  0.14943148808E+03  0.14943148808E+03  0.00000000000E+00 0.  1.
          1   -1    0    0  502    0  0.00000000000E+00 -0.00000000000E+00 -0.50901214663E+03  0.50901214663E+03  0.00000000000E+00 0. -1.
         23    2    1    2    0    0  0.20312644554E+02  0.31674025944E+02  0.30617665117E+02  0.10443087206E+03  0.92479825767E+02 0.  0.
         23    2    1    2    0    0  0.53227911507E+02 -0.54412671541E+02 -0.44442591580E+03  0.45985390148E+03  0.90317587915E+02 0.  0.
        -11    1    3    3    0    0  0.28162286265E+02 -0.20728538456E+02 -0.11428169606E+02  0.36788445669E+02  0.00000000000E+00 0. -1.
         11    1    3    3    0    0 -0.78496417106E+01  0.52402564400E+02  0.42045834723E+02  0.67642426392E+02  0.00000000000E+00 0.  1.
        -11    1    4    4    0    0  0.58041092895E+02 -0.80543114879E+01 -0.34628860069E+03  0.35121138274E+03  0.00000000000E+00 0. -1.
         11    1    4    4    0    0 -0.48131813880E+01 -0.46358360053E+02 -0.98137315106E+02  0.10864251874E+03  0.00000000000E+00 0.  1.
         21    1    1    2  502  501 -0.73540556061E+02  0.22738645596E+02  0.54227592126E+02  0.94158861171E+02  0.00000000000E+00 0.  1.
<scales pt_clust_5="13000.00000" pt_clust_6="13000.00000" pt_clust_7="13000.00000" pt_clust_8="13000.00000" pt_clust_9="76.97571"></scales>
<clustering>
<clus scale="   76.976">  1  9  2 -1</clus>
<clus scale="   90.318">  7  8 -1 -1</clus>
<clus scale="   92.480">  5  6 -1 -1</clus>
<clus scale="  113.829">  2  7  1 -1</clus>
<clus scale="  113.829">  2  5  1 -1</clus>
</clustering>
</event>
<event>
 9    1  0.1713970E-005  0.9305048E+02  0.7546771E-02  0.1296936E+00
         -3   -1    0    0    0  501 -0.00000000000E+00  0.00000000000E+00  0.48193814852E+02  0.48193814852E+02  0.00000000000E+00 0.  1.
          3   -1    0    0  502    0  0.00000000000E+00 -0.00000000000E+00 -0.38209990017E+03  0.38209990017E+03  0.00000000000E+00 0. -1.
         23    2    1    2    0    0 -0.10414107704E+01 -0.24328626196E+00 -0.13253376234E+03  0.15996705493E+03  0.89571852599E+02 0.  0.
         23    2    1    2    0    0 -0.24180242696E+02 -0.11470700471E+02 -0.21790491122E+03  0.23797429136E+03  0.91831105347E+02 0.  0.
        -13    1    4    4    0    0  0.18106832583E+02 -0.30289220536E+02 -0.36547572019E+02  0.50803733006E+02  0.00000000000E+00 0.  1.
         13    1    4    4    0    0 -0.42287075280E+02  0.18818520065E+02 -0.18135733920E+03  0.18717055836E+03  0.00000000000E+00 0. -1.
        -13    1    3    3    0    0  0.36457323853E+02 -0.25080075614E+02 -0.58675074669E+02  0.73490890883E+02  0.00000000000E+00 0.  1.
         13    1    3    3    0    0 -0.37498734624E+02  0.24836789352E+02 -0.73858687667E+02  0.86476164043E+02  0.00000000000E+00 0. -1.
         21    1    1    2  502  501  0.25221653467E+02  0.11713986733E+02  0.16532588239E+02  0.32352368733E+02  0.00000000000E+00 0.  1.
<scales pt_clust_5="13000.00000" pt_clust_6="13000.00000" pt_clust_7="13000.00000" pt_clust_8="13000.00000" pt_clust_9="27.80916"></scales>
<clustering>
<clus scale="   27.809">  1  9  2 -1</clus>
<clus scale="   89.572">  7  8 -1 -1</clus>
<clus scale="   90.822">  1  7  2 -1</clus>
<clus scale="   91.831">  5  6 -1 -1</clus>
<clus scale="   93.050">  2  5  1 -1</clus>
</clustering>
</event>
<event>
 9    1  0.1713970E-005  0.9562802E+02  0.7546771E-02  0.1295261E+00
          2   -1    0    0  502    0  0.00000000000E+00  0.00000000000E+00  0.49034837197E+03  0.49034837197E+03  0.00000000000E+00 0. -1.
         -2   -1    0    0    0  501 -0.00000000000E+00 -0.00000000000E+00 -0.13160314640E+03  0.13160314640E+03  0.00000000000E+00 0.  1.
         23    2    1    2    0    0  0.29308805562E+02 -0.34089922303E+02  0.22443024990E+03  0.24769176854E+03  0.94663331051E+02 0.  0.
         23    2    1    2    0    0  0.10293191917E+02 -0.12429052199E+01  0.24059750689E+03  0.25546285026E+03  0.85244430473E+02 0.  0.
        -13    1    4    4    0    0  0.48061222914E+02 -0.11605972769E+01  0.13142247664E+03  0.13993961377E+03  0.00000000000E+00 0.  1.
         13    1    4    4    0    0 -0.37768030997E+02 -0.82307942954E-01  0.10917503025E+03  0.11552323649E+03  0.00000000000E+00 0. -1.
        -13    1    3    3    0    0  0.52949139126E+02 -0.18901374814E+02  0.20728675348E+03  0.21477586333E+03  0.00000000000E+00 0. -1.
         13    1    3    3    0    0 -0.23640333564E+02 -0.15188547489E+02  0.17143496423E+02  0.32915905205E+02  0.00000000000E+00 0.  1.
         21    1    1    2  502  501 -0.39601997480E+02  0.35332827523E+02 -0.10628253123E+03  0.11879689958E+03  0.00000000000E+00 0.  1.
<scales pt_clust_5="13000.00000" pt_clust_6="13000.00000" pt_clust_7="13000.00000" pt_clust_8="13000.00000" pt_clust_9="53.07285"></scales>
<clustering>
<clus scale="   53.073">  2  9  1 -1</clus>
<clus scale="   85.244">  5  6 -1 -1</clus>
<clus scale="   86.314">  1  5  2 -1</clus>
<clus scale="   94.663">  7  8 -1 -1</clus>
<clus scale="   86.314">  1  5  2 -1</clus>
</clustering>
</event>
<event>
 9    1  0.1713970E-005  0.9427260E+02  0.7546771E-02  0.1293761E+00
         -2   -1    0    0    0  501 -0.00000000000E+00  0.00000000000E+00  0.16600588280E+03  0.16600588280E+03  0.00000000000E+00 0.  1.
          2   -1    0    0  502    0  0.00000000000E+00 -0.00000000000E+00 -0.11988924658E+03  0.11988924658E+03  0.00000000000E+00 0. -1.
         23    2    1    2    0    0  0.77263511861E+01  0.20634143189E+02  0.85269841049E+02  0.12696179491E+03  0.91448822885E+02 0.  0.
         23    2    1    2    0    0  0.19577259633E+02 -0.16915671316E+02 -0.70619169621E+02  0.11710725244E+03  0.89764315991E+02 0.  0.
        -11    1    4    4    0    0 -0.19379752310E+01 -0.46396422685E+02 -0.11845826903E+02  0.47923975221E+02  0.00000000000E+00 0.  1.
         11    1    4    4    0    0  0.21515234864E+02  0.29480751370E+02 -0.58773342718E+02  0.69183277219E+02  0.00000000000E+00 0. -1.
        -13    1    3    3    0    0  0.72166574891E+01 -0.36093588051E+02  0.27093745843E+02  0.45704467041E+02  0.00000000000E+00 0.  1.
         13    1    3    3    0    0  0.50969369703E+00  0.56727731240E+02  0.58176095206E+02  0.81257327871E+02  0.00000000000E+00 0. -1.
         21    1    1    2  502  501 -0.27303610819E+02 -0.37184718737E+01  0.31465964796E+02  0.41826082023E+02  0.00000000000E+00 0.  1.
<scales pt_clust_5="13000.00000" pt_clust_6="13000.00000" pt_clust_7="13000.00000" pt_clust_8="13000.00000" pt_clust_9="27.55566"></scales>
<clustering>
<clus scale="   27.556">  1  9  2 -1</clus>
<clus scale="   89.764">  5  6 -1 -1</clus>
<clus scale="   91.449">  7  8 -1 -1</clus>
<clus scale="   92.639">  2  5  1 -1</clus>
<clus scale="   92.639">  2  5  1 -1</clus>
</clustering>
</event>
<event>
 9    1  0.1713970E-005  0.9270264E+02  0.7546771E-02  0.1297077E+00
         -2   -1    0    0    0  501 -0.00000000000E+00  0.00000000000E+00  0.32126335609E+02  0.32126335609E+02  0.00000000000E+00 0. -1.
          2   -1    0    0  502    0  0.00000000000E+00 -0.00000000000E+00 -0.55665752453E+03  0.55665752453E+03  0.00000000000E+00 0.  1.
         23    2    1    2    0    0  0.87639326153E+01 -0.25347347793E+02 -0.13708078261E+03  0.16678656323E+03  0.91144512490E+02 0.  0.
         23    2    1    2    0    0  0.85113976419E+01  0.20337085647E+01 -0.38122016581E+03  0.39231938077E+03  0.92244793071E+02 0.  0.
        -11    1    3    3    0    0  0.40577510091E+02 -0.38655846457E+02 -0.10800639492E+03  0.12168068924E+03  0.00000000000E+00 0.  1.
         11    1    3    3    0    0 -0.31813577476E+02  0.13308498664E+02 -0.29074387693E+02  0.45105873988E+02  0.00000000000E+00 0. -1.
        -13    1    4    4    0    0 -0.35073284694E+02  0.24546769266E+02 -0.15231405325E+03  0.15821583359E+03  0.00000000000E+00 0. -1.
         13    1    4    4    0    0  0.43584682336E+02 -0.22513060702E+02 -0.22890611256E+03  0.23410354718E+03  0.00000000000E+00 0.  1.
         21    1    1    2  502  501 -0.17275330257E+02  0.23313639229E+02 -0.62302404973E+01  0.29677916137E+02  0.00000000000E+00 0.  1.
<scales pt_clust_5="13000.00000" pt_clust_6="13000.00000" pt_clust_7="13000.00000" pt_clust_8="13000.00000" pt_clust_9="29.01660"></scales>
<clustering>
<clus scale="   29.017">  1  9  2 -1</clus>
<clus scale="   91.145">  5  6 -1 -1</clus>
<clus scale="   91.608">  1  5  2 -1</clus>
<clus scale="   92.245">  7  8 -1 -1</clus>
<clus scale="   92.703">  2  5  1 -1</clus>
</clustering>
</event>
<event>
 9    1  0.1713970E-005  0.1567280E+03  0.7546771E-02  0.1193772E+00
         -2   -1    0    0    0  501 -0.00000000000E+00  0.00000000000E+00  0.97580315865E+02  0.97580315865E+02  0.00000000000E+00 0.  1.
          2   -1    0    0  502    0  0.00000000000E+00 -0.00000000000E+00 -0.10658776812E+04  0.10658776812E+04  0.00000000000E+00 0. -1.
         23    2    1    2    0    0 -0.96060973837E+02  0.38041042913E+02 -0.16044607095E+03  0.20899806981E+03  0.85219832548E+02 0.  0.
         23    2    1    2    0    0  0.12180923531E+03 -0.53894249590E+02 -0.87016114594E+03  0.88520088651E+03  0.93048963583E+02 0.  0.
        -11    1    3    3    0    0 -0.59975637621E+02  0.49279647289E+02 -0.15139379295E+03  0.17013418612E+03  0.00000000000E+00 0. -1.
         11    1    3    3    0    0 -0.36085336216E+02 -0.11238604376E+02 -0.90522780073E+01  0.38863883688E+02  0.00000000000E+00 0.  1.
        -13    1    4    4    0    0  0.62260447496E+02 -0.75203252785E+02 -0.58686503631E+03  0.59493063746E+03  0.00000000000E+00 0.  1.
         13    1    4    4    0    0  0.59548787814E+02  0.21309003195E+02 -0.28329610963E+03  0.29027024904E+03  0.00000000000E+00 0. -1.
         21    1    1    2  502  501 -0.25748261472E+02  0.15853206677E+02  0.62309851533E+02  0.69259040773E+02  0.00000000000E+00 0.  1.
<scales pt_clust_5="13000.00000" pt_clust_6="13000.00000" pt_clust_7="13000.00000" pt_clust_8="13000.00000" pt_clust_9="30.23735"></scales>
<clustering>
<clus scale="   30.237">  1  9  2 -1</clus>
<clus scale="   85.220">  5  6 -1 -1</clus>
<clus scale="   93.049">  7  8 -1 -1</clus>
<clus scale="  152.210">  1  5  2 -1</clus>
<clus scale="  156.728">  2  5  1 -1</clus>
</clustering>
</event>
<event>
 9    1  0.1713970E-005  0.1735911E+03  0.7546771E-02  0.1174219E+00
         -1   -1    0    0    0  501 -0.00000000000E+00  0.00000000000E+00  0.97879777897E+02  0.97879777897E+02  0.00000000000E+00 0.  1.
          1   -1    0    0  502    0  0.00000000000E+00 -0.00000000000E+00 -0.72507199085E+03  0.72507199085E+03  0.00000000000E+00 0. -1.
         23    2    1    2    0    0  0.13545982685E+03 -0.24339887996E+01 -0.15497392453E+02  0.16445459798E+03  0.91923101735E+02 0.  0.
         23    2    1    2    0    0 -0.14545959885E+03 -0.36678880394E+02 -0.58318833393E+03  0.60907620606E+03  0.91440454861E+02 0.  0.
        -11    1    3    3    0    0  0.69708231510E+02 -0.27649411306E+02  0.29830417488E+02  0.80706761137E+02  0.00000000000E+00 0.  1.
         11    1    3    3    0    0  0.65751595336E+02  0.25215422507E+02 -0.45327809941E+02  0.83747836841E+02  0.00000000000E+00 0. -1.
        -13    1    4    4    0    0 -0.12768153543E+03  0.75407432302E+01 -0.43475543496E+03  0.45317957315E+03  0.00000000000E+00 0. -1.
         13    1    4    4    0    0 -0.17778063416E+02 -0.44219623624E+02 -0.14843289898E+03  0.15589663291E+03  0.00000000000E+00 0.  1.
         21    1    1    2  502  501  0.99997720012E+01  0.39112869193E+02 -0.28506486566E+02  0.49420964711E+02  0.00000000000E+00 0.  1.
<scales pt_clust_5="13000.00000" pt_clust_6="13000.00000" pt_clust_7="13000.00000" pt_clust_8="13000.00000" pt_clust_9="40.37093"></scales>
<clustering>
<clus scale="   40.371">  1  9  2 -1</clus>
<clus scale="   91.440">  7  8 -1 -1</clus>
<clus scale="   91.923">  5  6 -1 -1</clus>
<clus scale="  173.336">  2  7  1 -1</clus>
<clus scale="  173.336">  2  5  1 -1</clus>
</clustering>
</event>
<event>
 9    1  0.1713970E-005  0.1273925E+03  0.7546771E-02  0.1232380E+00
          1   -1    0    0  502    0  0.00000000000E+00  0.00000000000E+00  0.20080818661E+03  0.20080818661E+03  0.00000000000E+00 0. -1.
         -1   -1    0    0    0  501 -0.00000000000E+00 -0.00000000000E+00 -0.21776677679E+03  0.21776677679E+03  0.00000000000E+00 0.  1.
         23    2    1    2    0    0 -0.56069656130E+02 -0.35239446309E+02 -0.11558804333E+03  0.16169803207E+03  0.91651693378E+02 0.  0.
         23    2    1    2    0    0  0.76585698858E+02  0.43105070946E+02  0.15167389345E+03  0.19946187488E+03  0.95166449805E+02 0.  0.
        -11    1    3    3    0    0 -0.20119843646E+02 -0.55144940661E+02 -0.10328927823E+03  0.11880424061E+03  0.00000000000E+00 0. -1.
         11    1    3    3    0    0 -0.35949812484E+02  0.19905494352E+02 -0.12298765103E+02  0.42893791464E+02  0.00000000000E+00 0.  1.
        -13    1    4    4    0    0  0.50097990547E+02 -0.10604945851E+02  0.12265442936E+03  0.13291494489E+03  0.00000000000E+00 0. -1.
         13    1    4    4    0    0  0.26487708311E+02  0.53710016797E+02  0.29019464085E+02  0.66546929994E+02  0.00000000000E+00 0.  1.
         21    1    1    2  502  501 -0.20516042728E+02 -0.78656246371E+01 -0.53044440300E+02  0.57415056448E+02  0.00000000000E+00 0.  1.
<scales pt_clust_5="13000.00000" pt_clust_6="13000.00000" pt_clust_7="13000.00000" pt_clust_8="13000.00000" pt_clust_9="21.97217"></scales>
<clustering>
<clus scale="   21.972">  2  9  1 -1</clus>
<clus scale="   91.652">  5  6 -1 -1</clus>
<clus scale="   95.166">  7  8 -1 -1</clus>
<clus scale="  124.789">  2  5  1 -1</clus>
<clus scale="  127.393">  1  5  2 -1</clus>
</clustering>
</event>
<event>
 9    1  0.1713970E-005  0.1806291E+03  0.7546771E-02  0.1167413E+00
          4   -1    0    0  502    0  0.00000000000E+00  0.00000000000E+00  0.65891561808E+03  0.65891561808E+03  0.00000000000E+00 0. -1.
         -4   -1    0    0    0  501 -0.00000000000E+00 -0.00000000000E+00 -0.25040437208E+03  0.25040437208E+03  0.00000000000E+00 0.  1.
         23    2    1    2    0    0  0.12472952811E+03 -0.41747408888E+02  0.56902557790E+02  0.16822859672E+03  0.88105949513E+02 0.  0.
         23    2    1    2    0    0 -0.13469282762E+03  0.95985161253E+02  0.52574292227E+03  0.55843397479E+03  0.89930945115E+02 0.  0.
        -11    1    3    3    0    0  0.11658548111E+03 -0.65098377684E+02  0.49586154273E+02  0.14243861793E+03  0.00000000000E+00 0.  1.
         11    1    3    3    0    0  0.81440469948E+01  0.23350968797E+02  0.73164035175E+01  0.25789978783E+02  0.00000000000E+00 0. -1.
        -11    1    4    4    0    0 -0.14981361628E+02 -0.14838908203E+02  0.10655622678E+03  0.10862257528E+03  0.00000000000E+00 0. -1.
         11    1    4    4    0    0 -0.11971146599E+03  0.11082406946E+03  0.41918669548E+03  0.44981139951E+03  0.00000000000E+00 0.  1.
         21    1    1    2  502  501  0.99632995158E+01 -0.54237752365E+02 -0.17413423406E+03  0.18265741866E+03  0.00000000000E+00 0.  1.
<scales pt_clust_5="13000.00000" pt_clust_6="13000.00000" pt_clust_7="13000.00000" pt_clust_8="13000.00000" pt_clust_9="55.14527"></scales>
<clustering>
<clus scale="   55.145">  2  9  1 -1</clus>
<clus scale="   88.106">  5  6 -1 -1</clus>
<clus scale="   89.931">  7  8 -1 -1</clus>
<clus scale="  179.727">  2  5  1 -1</clus>
<clus scale="  180.629">  1  5  2 -1</clus>
</clustering>
</event>
<event>
 9    1  0.1713970E-005  0.1166161E+03  0.7546771E-02  0.1249391E+00
          1   -1    0    0  502    0  0.00000000000E+00  0.00000000000E+00  0.52357579041E+02  0.52357579041E+02  0.00000000000E+00 0. -1.
         -1   -1    0    0    0  501 -0.00000000000E+00 -0.00000000000E+00 -0.51179882293E+03  0.51179882293E+03  0.00000000000E+00 0.  1.
         23    2    1    2    0    0 -0.30064678795E+02  0.79897015575E+02 -0.21358813888E+03  0.24730044116E+03  0.90830595716E+02 0.  0.
         23    2    1    2    0    0 -0.47084287546E+02 -0.65602168260E+02 -0.13124090791E+03  0.17795937557E+03  0.89021283022E+02 0.  0.
        -11    1    3    3    0    0 -0.12816957261E+02 -0.18919182734E+02 -0.56147769118E+02  0.60619978932E+02  0.00000000000E+00 0. -1.
         11    1    3    3    0    0 -0.17247721535E+02  0.98816198310E+02 -0.15744036977E+03  0.18668046223E+03  0.00000000000E+00 0.  1.
        -11    1    4    4    0    0  0.24080165090E+02 -0.27497915119E+02 -0.23976313204E+02  0.43713307831E+02  0.00000000000E+00 0. -1.
         11    1    4    4    0    0 -0.71164452637E+02 -0.38104253142E+02 -0.10726459471E+03  0.13424606774E+03  0.00000000000E+00 0.  1.
         21    1    1    2  502  501  0.77148966341E+02 -0.14294847315E+02 -0.11461219709E+03  0.13889658523E+03  0.00000000000E+00 0. -1.
<scales pt_clust_5="13000.00000" pt_clust_6="13000.00000" pt_clust_7="13000.00000" pt_clust_8="13000.00000" pt_clust_9="78.46213"></scales>
<clustering>
<clus scale="   78.462">  2  9  1 -1</clus>
<clus scale="   89.021">  7  8 -1 -1</clus>
<clus scale="   90.831">  5  6 -1 -1</clus>
<clus scale="  115.212">  1  7  2 -1</clus>
<clus scale="  115.212">  1  5  2 -1</clus>
</clustering>
</event>
<event>
 9    1  0.1713970E-005  0.1108602E+03  0.7546771E-02  0.1259050E+00
         -2   -1    0    0    0  501 -0.00000000000E+00  0.00000000000E+00  0.19743936508E+03  0.19743936508E+03  0.00000000000E+00 0.  1.
          2   -1    0    0  502    0  0.00000000000E+00 -0.00000000000E+00 -0.26510052122E+03  0.26510052122E+03  0.00000000000E+00 0. -1.
         23    2    1    2    0    0 -0.57348905849E+01  0.83264289451E+01  0.56146534482E+02  0.10751829671E+03  0.91134693744E+02 0.  0.
         23    2    1    2    0    0  0.69923475797E+02 -0.20586307450E+02 -0.21389779198E+03  0.24372601261E+03  0.91307257592E+02 0.  0.
        -11    1    3    3    0    0  0.82366198597E+01 -0.35818943751E+02  0.48077724239E+02  0.60516991053E+02  0.00000000000E+00 0.  1.
         11    1    3    3    0    0 -0.13971510445E+02  0.44145372696E+02  0.80688102431E+01  0.47001305655E+02  0.00000000000E+00 0. -1.
        -13    1    4    4    0    0 -0.21612831779E+01  0.26475121412E+02 -0.26602995773E+02  0.37594182832E+02  0.00000000000E+00 0.  1.
         13    1    4    4    0    0  0.72084758975E+02 -0.47061428862E+02 -0.18729479620E+03  0.20613182978E+03  0.00000000000E+00 0. -1.
         21    1    1    2  502  501 -0.64188585212E+02  0.12259878505E+02  0.90090101357E+02  0.11129557698E+03  0.00000000000E+00 0. -1.
<scales pt_clust_5="13000.00000" pt_clust_6="13000.00000" pt_clust_7="13000.00000" pt_clust_8="13000.00000" pt_clust_9="65.34890"></scales>
<clustering>
<clus scale="   65.349">  1  9  2 -1</clus>
<clus scale="   91.135">  5  6 -1 -1</clus>
<clus scale="   91.307">  7  8 -1 -1</clus>
<clus scale="  110.718">  1  5  2 -1</clus>
<clus scale="  110.860">  2  5  1 -1</clus>
</clustering>
</event>
<event>
 9    1  0.1713970E-005  0.1814570E+03  0.7546771E-02  0.1166403E+00
         -1   -1    0    0    0  501 -0.00000000000E+00  0.00000000000E+00  0.66765790582E+02  0.66765790582E+02  0.00000000000E+00 0.  1.
          1   -1    0    0  502    0  0.00000000000E+00 -0.00000000000E+00 -0.63548896276E+03  0.63548896276E+03  0.00000000000E+00 0. -1.
         23    2    1    2    0    0  0.14984080220E+03 -0.29233493598E+02 -0.17683695035E+03  0.25050831940E+03  0.90422607391E+02 0.  0.
         23    2    1    2    0    0 -0.16098189025E+03  0.17844203662E+01 -0.37412647642E+03  0.41720683317E+03  0.90402257416E+02 0.  0.
        -11    1    3    3    0    0  0.92820486014E+02  0.23490725691E+02 -0.70829544091E+02  0.11909777972E+03  0.00000000000E+00 0. -1.
         11    1    3    3    0    0  0.57020316182E+02 -0.52724219289E+02 -0.10600740626E+03  0.13141053968E+03  0.00000000000E+00 0.  1.
        -11    1    4    4    0    0 -0.16001312841E+02 -0.30799310405E+02 -0.92199746490E+02  0.98516154954E+02  0.00000000000E+00 0.  1.
         11    1    4    4    0    0 -0.14498057741E+03  0.32583730771E+02 -0.28192672993E+03  0.31869067822E+03  0.00000000000E+00 0. -1.
         21    1    1    2  502  501  0.11141088053E+02  0.27449073232E+02 -0.17759745407E+02  0.34539600768E+02  0.00000000000E+00 0. -1.
<scales pt_clust_5="13000.00000" pt_clust_6="13000.00000" pt_clust_7="13000.00000" pt_clust_8="13000.00000" pt_clust_9="29.62390"></scales>
<clustering>
<clus scale="   29.624">  1  9  2 -1</clus>
<clus scale="   90.402">  7  8 -1 -1</clus>
<clus scale="   90.423">  5  6 -1 -1</clus>
<clus scale="  181.447">  2  7  1 -1</clus>
<clus scale="  181.447">  2  5  1 -1</clus>
</clustering>
</event>
<event>
 9    1  0.1713970E-005  0.1119290E+03  0.7546771E-02  0.1258169E+00
         -1   -1    0    0    0  501 -0.00000000000E+00  0.00000000000E+00  0.40784409627E+02  0.40784409627E+02  0.00000000000E+00 0.  1.
          1   -1    0    0  502    0  0.00000000000E+00 -0.00000000000E+00 -0.42910377790E+03  0.42910377790E+03  0.00000000000E+00 0. -1.
         23    2    1    2    0    0 -0.22598749968E+01 -0.51931352005E+02 -0.85796558263E+02  0.13449676891E+03  0.89589949672E+02 0.  0.
         23    2    1    2    0    0  0.26107362012E+02  0.64283065085E+02 -0.26585325976E+03  0.28993898888E+03  0.92589171835E+02 0.  0.
        -11    1    4    4    0    0  0.56038209577E+02  0.40913801909E+02 -0.21843341047E+03  0.22918851395E+03  0.00000000000E+00 0. -1.
         11    1    4    4    0    0 -0.29930847565E+02  0.23369263176E+02 -0.47419849295E+02  0.60750474932E+02  0.00000000000E+00 0.  1.
        -11    1    3    3    0    0  0.28201289945E+02  0.12668175562E+02 -0.16772793809E+02  0.35172745681E+02  0.00000000000E+00 0. -1.
         11    1    3    3    0    0 -0.30461164942E+02 -0.64599527567E+02 -0.69023764454E+02  0.99324023231E+02  0.00000000000E+00 0.  1.
         21    1    1    2  502  501 -0.23847487015E+02 -0.12351713080E+02 -0.36669550247E+02  0.45452429729E+02  0.00000000000E+00 0. -1.
<scales pt_clust_5="13000.00000" pt_clust_6="13000.00000" pt_clust_7="13000.00000" pt_clust_8="13000.00000" pt_clust_9="26.85642"></scales>
<clustering>
<clus scale="   26.856">  1  9  2 -1</clus>
<clus scale="   89.590">  7  8 -1 -1</clus>
<clus scale="   92.589">  5  6 -1 -1</clus>
<clus scale="  109.461">  1  7  2 -1</clus>
<clus scale="  111.929">  2  5  1 -1</clus>
</clustering>
</event>
<event>
 9    1  0.1713970E-005  0.1683711E+03  0.7546771E-02  0.1180254E+00
         -1   -1    0    0    0  501 -0.00000000000E+00  0.00000000000E+00  0.69442605666E+02  0.69442605666E+02  0.00000000000E+00 0.  1.
          1   -1    0    0  502    0  0.00000000000E+00 -0.00000000000E+00 -0.11629052567E+04  0.11629052567E+04  0.00000000000E+00 0. -1.
         23    2    1    2    0    0  0.89492559155E+02 -0.16499980128E+03 -0.23272433174E+03  0.31292835130E+03  0.92356298651E+02 0.  0.
         23    2    1    2    0    0 -0.11366798964E+03  0.65880259681E+02 -0.75510989054E+03  0.77256414027E+03  0.96973107401E+02 0.  0.
        -11    1    3    3    0    0  0.60209882874E+02 -0.52716652116E+02 -0.43840913082E+02  0.91248567473E+02  0.00000000000E+00 0.  1.
         11    1    3    3    0    0  0.29282676282E+02 -0.11228314916E+03 -0.18888341865E+03  0.22167978383E+03  0.00000000000E+00 0. -1.
        -13    1    4    4    0    0 -0.29936974986E+01  0.50928324211E+02 -0.20718013922E+03  0.21336885087E+03  0.00000000000E+00 0.  1.
         13    1    4    4    0    0 -0.11067429214E+03  0.14951935470E+02 -0.54792975131E+03  0.55919528940E+03  0.00000000000E+00 0. -1.
         21    1    1    2  502  501  0.24175430486E+02  0.99119541595E+02 -0.10562842871E+03  0.14685537075E+03  0.00000000000E+00 0.  1.
<scales pt_clust_5="13000.00000" pt_clust_6="13000.00000" pt_clust_7="13000.00000" pt_clust_8="13000.00000" pt_clust_9="102.02517"></scales>
<clustering>
<clus scale="   92.356">  5  6 -1 -1</clus>
<clus scale="   96.973">  7  8 -1 -1</clus>
<clus scale="  102.025">  1  9  2 -1</clus>
<clus scale="  165.755">  1  5  2 -1</clus>
<clus scale="  168.371">  2  5  1 -1</clus>
</clustering>
</event>
<event>
 9    1  0.1713970E-005  0.9379375E+02  0.7546771E-02  0.1295415E+00
          2   -1    0    0  502    0  0.00000000000E+00  0.00000000000E+00  0.18436198605E+03  0.18436198605E+03  0.00000000000E+00 0. -1.
         -2   -1    0    0    0  501 -0.00000000000E+00 -0.00000000000E+00 -0.15865326480E+03  0.15865326480E+03  0.00000000000E+00 0.  1.
         23    2    1    2    0    0 -0.16396573010E+02  0.21234077305E+02  0.27392355206E+02  0.10109658872E+03  0.93543815838E+02 0.  0.
         23    2    1    2    0    0  0.13414168521E+01  0.59273463230E+01  0.10016624157E+03  0.13543956650E+03  0.90959702005E+02 0.  0.
        -13    1    3    3    0    0 -0.30310921763E+02 -0.18399641431E+02 -0.17563959025E+02  0.39570082632E+02  0.00000000000E+00 0.  1.
         13    1    3    3    0    0  0.13914348753E+02  0.39633718736E+02  0.44956314231E+02  0.61526506088E+02  0.00000000000E+00 0. -1.
        -13    1    4    4    0    0 -0.35828301366E+02 -0.21003308770E+02  0.66934914802E+02  0.78772387152E+02  0.00000000000E+00 0.  1.
         13    1    4    4    0    0  0.37169718218E+02  0.26930655093E+02  0.33231326772E+02  0.56667179348E+02  0.00000000000E+00 0. -1.
         21    1    1    2  502  501  0.15055156158E+02 -0.27161423628E+02 -0.10184987553E+03  0.10647909563E+03  0.00000000000E+00 0.  1.
<scales pt_clust_5="13000.00000" pt_clust_6="13000.00000" pt_clust_7="13000.00000" pt_clust_8="13000.00000" pt_clust_9="31.05480"></scales>
<clustering>
<clus scale="   31.055">  2  9  1 -1</clus>
<clus scale="   90.960">  7  8 -1 -1</clus>
<clus scale="   91.217">  1  7  2 -1</clus>
<clus scale="   93.544">  5  6 -1 -1</clus>
<clus scale="   91.217">  1  5  2 -1</clus>
</clustering>
</event>
<event>
 9    1  0.1713970E-005  0.9463921E+02  0.7546771E-02  0.1292808E+00
         -2   -1    0    0    0  501 -0.00000000000E+00  0.00000000000E+00  0.19036942611E+02  0.19036942611E+02  0.00000000000E+00 0.  1.
          2   -1    0    0  502    0  0.00000000000E+00 -0.00000000000E+00 -0.12086180198E+04  0.12086180198E+04  0.00000000000E+00 0. -1.
         23    2    1    2    0    0  0.12558854996E+02  0.66740998491E+02 -0.38165642449E+03  0.39826714517E+03  0.91340061595E+02 0.  0.
         23    2    1    2    0    0 -0.27666967498E+02  0.20432114262E+02 -0.49143500951E+03  0.50076477956E+03  0.89855792723E+02 0.  0.
        -11    1    3    3    0    0 -0.18170053191E+02  0.78470498552E+02 -0.28526670190E+03  0.29642007555E+03  0.00000000000E+00 0.  1.
         11    1    3    3    0    0  0.30728908187E+02 -0.11729500061E+02 -0.96389722587E+02  0.10184706962E+03  0.00000000000E+00 0. -1.
        -11    1    4    4    0    0  0.21996543549E+02 -0.21436616271E+02 -0.13396685754E+03  0.13744269848E+03  0.00000000000E+00 0. -1.
         11    1    4    4    0    0 -0.49663511047E+02  0.41868730533E+02 -0.35746815197E+03  0.36332208108E+03  0.00000000000E+00 0.  1.
         21    1    1    2  502  501  0.15108112502E+02 -0.87173112753E+02 -0.31648964321E+03  0.32862303770E+03  0.00000000000E+00 0. -1.
<scales pt_clust_5="13000.00000" pt_clust_6="13000.00000" pt_clust_7="13000.00000" pt_clust_8="13000.00000" pt_clust_9="88.47263"></scales>
<clustering>
<clus scale="   88.473">  1  9  2 -1</clus>
<clus scale="   89.856">  7  8 -1 -1</clus>
<clus scale="   91.340">  5  6 -1 -1</clus>
<clus scale="   93.207">  2  7  1 -1</clus>
<clus scale="   93.207">  2  5  1 -1</clus>
</clustering>
</event>
<event>
 9    1  0.1713970E-005  0.1032454E+03  0.7546771E-02  0.1273997E+00
         -1   -1    0    0    0  501 -0.00000000000E+00  0.00000000000E+00  0.59024543031E+02  0.59024543031E+02  0.00000000000E+00 0.  1.
          1   -1    0    0  502    0  0.00000000000E+00 -0.00000000000E+00 -0.52105013152E+03  0.52105013152E+03  0.00000000000E+00 0. -1.
         23    2    1    2    0    0 -0.23251713961E+02  0.35287918468E+02 -0.10621356270E+03  0.14659175894E+03  0.91771147396E+02 0.  0.
         23    2    1    2    0    0 -0.66924867191E+02 -0.24536717693E+02 -0.31095903298E+03  0.33219523092E+03  0.92612973679E+02 0.  0.
        -11    1    3    3    0    0  0.32028899928E+02 -0.50765677970E+01 -0.38009716212E+02  0.49963591722E+02  0.00000000000E+00 0.  1.
         11    1    3    3    0    0 -0.55280613889E+02  0.40364486265E+02 -0.68203846490E+02  0.96628167216E+02  0.00000000000E+00 0. -1.
        -11    1    4    4    0    0 -0.23863797829E+02 -0.57374480109E+02 -0.14962864627E+03  0.16201865201E+03  0.00000000000E+00 0.  1.
         11    1    4    4    0    0 -0.43061069363E+02  0.32837762416E+02 -0.16133038671E+03  0.17017657891E+03  0.00000000000E+00 0. -1.
         21    1    1    2  502  501  0.90176581153E+02 -0.10751200775E+02 -0.44852992812E+02  0.10128768469E+03  0.00000000000E+00 0.  1.
<scales pt_clust_5="13000.00000" pt_clust_6="13000.00000" pt_clust_7="13000.00000" pt_clust_8="13000.00000" pt_clust_9="90.81522"></scales>
<clustering>
<clus scale="   90.815">  1  9  2 -1</clus>
<clus scale="   91.771">  5  6 -1 -1</clus>
<clus scale="   92.613">  7  8 -1 -1</clus>
<clus scale="  102.491">  1  5  2 -1</clus>
<clus scale="  103.245">  2  5  1 -1</clus>
</clustering>
</event>
<event>
 9    1  0.2946780E-005  0.1075455E+03  0.7546771E-02  0.1265199E+00
          1   -1    0    0  502    0  0.00000000000E+00  0.00000000000E+00  0.23400767181E+03  0.23400767181E+03  0.00000000000E+00 0. -1.
         -1   -1    0    0    0  501 -0.00000000000E+00 -0.00000000000E+00 -0.22281085627E+03  0.22281085627E+03  0.00000000000E+00 0.  1.
         23    2    1    2    0    0 -0.73631054868E+02 -0.25514862034E+02 -0.16536729414E+03  0.20532810304E+03  0.93491964896E+02 0.  0.
         23    2    1    2    0    0  0.43504329728E+02  0.27294070875E+02  0.19042406516E+03  0.21828073492E+03  0.93528400153E+02 0.  0.
        -13    1    3    3    0    0 -0.21017009353E+02  0.35421374343E+02 -0.54445135726E+02  0.68269035783E+02  0.00000000000E+00 0.  1.
         13    1    3    3    0    0 -0.52614045515E+02 -0.60936236378E+02 -0.11092215842E+03  0.13705906726E+03  0.00000000000E+00 0. -1.
        -13    1    4    4    0    0  0.17445140627E+02 -0.21285771505E+02  0.94531619184E+01  0.29099471994E+02  0.00000000000E+00 0.  1.
         13    1    4    4    0    0  0.26059189101E+02  0.48579842380E+02  0.18097090324E+03  0.18918126292E+03  0.00000000000E+00 0. -1.
         21    1    1    2  502  501  0.30126725140E+02 -0.17792088408E+01 -0.13859955474E+02  0.33209690114E+02  0.00000000000E+00 0.  1.
<scales pt_clust_5="13000.00000" pt_clust_6="13000.00000" pt_clust_7="13000.00000" pt_clust_8="13000.00000" pt_clust_9="30.17922"></scales>
<clustering>
<clus scale="   30.179">  2  9  1 -1</clus>
<clus scale="   93.492">  5  6 -1 -1</clus>
<clus scale="   93.528">  7  8 -1 -1</clus>
<clus scale="  107.514">  2  5  1 -1</clus>
<clus scale="  107.545">  1  5  2 -1</clus>
</clustering>
</event>
<event>
 9    1  0.1713970E-005  0.1243569E+03  0.7546771E-02  0.1236256E+00
         -2   -1    0    0    0  501 -0.00000000000E+00  0.00000000000E+00  0.64895502876E+02  0.64895502876E+02  0.00000000000E+00 0.  1.
          2   -1    0    0  502    0  0.00000000000E+00 -0.00000000000E+00 -0.49336872810E+03  0.49336872810E+03  0.00000000000E+00 0. -1.
         23    2    1    2    0    0 -0.45408811168E+02 -0.79478307214E+02 -0.36078231926E+02  0.13423159175E+03  0.91311116276E+02 0.  0.
         23    2    1    2    0    0  0.23639006220E+02  0.79131526721E+02 -0.37860210947E+03  0.39825884811E+03  0.91923618659E+02 0.  0.
        -11    1    3    3    0    0  0.23939110320E+02 -0.14848103873E+01 -0.13239540330E+02  0.27396552574E+02  0.00000000000E+00 0. -1.
         11    1    3    3    0    0 -0.69347921487E+02 -0.77993496827E+02 -0.22838691595E+02  0.10683503918E+03  0.00000000000E+00 0.  1.
        -13    1    4    4    0    0  0.28242001720E+01  0.95576961114E+02 -0.26889227343E+03  0.28538743195E+03  0.00000000000E+00 0. -1.
         13    1    4    4    0    0  0.20814806048E+02 -0.16445434393E+02 -0.10970983604E+03  0.11287141616E+03  0.00000000000E+00 0.  1.
         21    1    1    2  502  501  0.21769804948E+02  0.34678049284E+00 -0.13792883831E+02  0.25773791117E+02  0.00000000000E+00 0.  1.
<scales pt_clust_5="13000.00000" pt_clust_6="13000.00000" pt_clust_7="13000.00000" pt_clust_8="13000.00000" pt_clust_9="21.77257"></scales>
<clustering>
<clus scale="   21.773">  1  9  2 -1</clus>
<clus scale="   91.311">  5  6 -1 -1</clus>
<clus scale="   91.924">  7  8 -1 -1</clus>
<clus scale="  123.905">  1  5  2 -1</clus>
<clus scale="  124.357">  2  5  1 -1</clus>
</clustering>
</event>
<event>
 9    1  0.1713970E-005  0.9678079E+02  0.7546771E-02  0.1287424E+00
         -1   -1    0    0    0  501 -0.00000000000E+00  0.00000000000E+00  0.16422702092E+03  0.16422702092E+03  0.00000000000E+00 0.  1.
          1   -1    0    0  502    0  0.00000000000E+00 -0.00000000000E+00 -0.16176229856E+03  0.16176229856E+03  0.00000000000E+00 0. -1.
         23    2    1    2    0    0  0.33631733310E+02  0.48279294642E+01  0.11817930085E+03  0.15256959279E+03  0.90314622879E+02 0.  0.
         23    2    1    2    0    0 -0.34089191831E+02  0.23809597866E+02 -0.97243182040E+02  0.13933879761E+03  0.90719866164E+02 0.  0.
        -11    1    3    3    0    0 -0.15205412386E+01 -0.36299696830E+02  0.75041770488E+02  0.83374140797E+02  0.00000000000E+00 0.  1.
         11    1    3    3    0    0  0.35152274549E+02  0.41127626294E+02  0.43137530360E+02  0.69195451990E+02  0.00000000000E+00 0. -1.
        -13    1    4    4    0    0 -0.28859887431E+02  0.43325612570E+02 -0.14322364843E+02  0.53991961825E+02  0.00000000000E+00 0. -1.
         13    1    4    4    0    0 -0.52293044000E+01 -0.19516014703E+02 -0.82920817197E+02  0.85346835788E+02  0.00000000000E+00 0.  1.
         21    1    1    2  502  501  0.45745852064E+00 -0.28637527330E+02 -0.18471396455E+02  0.34080929079E+02  0.00000000000E+00 0. -1.
<scales pt_clust_5="13000.00000" pt_clust_6="13000.00000" pt_clust_7="13000.00000" pt_clust_8="13000.00000" pt_clust_9="28.64118"></scales>
<clustering>
<clus scale="   28.641">  2  9  1 -1</clus>
<clus scale="   90.315">  5  6 -1 -1</clus>
<clus scale="   90.720">  7  8 -1 -1</clus>
<clus scale="   96.401">  1  5  2 -1</clus>
<clus scale="   28.641">  2  5  1 -1</clus>
</clustering>
</event>
<event>
 9    1  0.1713970E-005  0.1198959E+03  0.7546771E-02  0.1244684E+00
         -1   -1    0    0    0  501 -0.00000000000E+00  0.00000000000E+00  0.15765935429E+03  0.15765935429E+03  0.00000000000E+00 0.  1.
          1   -1    0    0  502    0  0.00000000000E+00 -0.00000000000E+00 -0.30161881308E+03  0.30161881308E+03  0.00000000000E+00 0. -1.
         23    2    1    2    0    0  0.36376348067E+02 -0.90508605514E+01  0.27472816475E+01  0.97008567080E+02  0.89431301875E+02 0.  0.
         23    2    1    2    0    0 -0.86514801008E+02  0.10288196758E+02 -0.23105022340E+03  0.26414101841E+03  0.93784935316E+02 0.  0.
        -11    1    3    3    0    0  0.59882204724E+02 -0.28146041530E+02 -0.27726590252E+01  0.66225114077E+02  0.00000000000E+00 0.  1.
         11    1    3    3    0    0 -0.23505856657E+02  0.19095180979E+02  0.55199406727E+01  0.30783453003E+02  0.00000000000E+00 0. -1.
        -11    1    4    4    0    0 -0.21244772005E+01 -0.32950747037E+02 -0.53914507657E+02  0.63222142241E+02  0.00000000000E+00 0.  1.
         11    1    4    4    0    0 -0.84390323808E+02  0.43238943795E+02 -0.17713571574E+03  0.20091887617E+03  0.00000000000E+00 0. -1.
         21    1    1    2  502  501  0.50138452941E+02 -0.12373362065E+01  0.84343482953E+02  0.98128581875E+02  0.00000000000E+00 0.  1.
<scales pt_clust_5="13000.00000" pt_clust_6="13000.00000" pt_clust_7="13000.00000" pt_clust_8="13000.00000" pt_clust_9="50.15372"></scales>
<clustering>
<clus scale="   50.154">  1  9  2 -1</clus>
<clus scale="   89.431">  5  6 -1 -1</clus>
<clus scale="   93.785">  7  8 -1 -1</clus>
<clus scale="  116.522">  1  5  2 -1</clus>
<clus scale="  119.896">  2  5  1 -1</clus>
</clustering>
</event>
<event>
 9    1  0.1713970E-005  0.1423739E+03  0.7546771E-02  0.1210908E+00
          2   -1    0    0  502    0  0.00000000000E+00  0.00000000000E+00  0.77395827467E+03  0.77395827467E+03  0.00000000000E+00 0. -1.
         -2   -1    0    0    0  501 -0.00000000000E+00 -0.00000000000E+00 -0.68381711570E+02  0.68381711570E+02  0.00000000000E+00 0.  1.
         23    2    1    2    0    0  0.79975767474E+02 -0.39463440798E+02  0.21906628845E+02  0.12965360519E+03  0.91524152058E+02 0.  0.
         23    2    1    2    0    0 -0.10734090194E+03  0.32021595794E+02  0.66156409135E+03  0.67672946333E+03  0.88024245201E+02 0.  0.
        -11    1    4    4    0    0  0.47123812447E+01  0.22240231959E+02  0.50246918286E+02  0.55150587049E+02  0.00000000000E+00 0.  1.
         11    1    4    4    0    0 -0.11205328318E+03  0.97813638351E+01  0.61131717307E+03  0.62157887628E+03  0.00000000000E+00 0. -1.
        -13    1    3    3    0    0  0.47241884682E+02 -0.21629521559E+02  0.57928483969E+02  0.77816072416E+02  0.00000000000E+00 0. -1.
         13    1    3    3    0    0  0.32733882792E+02 -0.17833919238E+02 -0.36021855124E+02  0.51837532779E+02  0.00000000000E+00 0.  1.
         21    1    1    2  502  501  0.27365134464E+02  0.74418450032E+01  0.22105842902E+02  0.35956917717E+02  0.00000000000E+00 0.  1.
<scales pt_clust_5="13000.00000" pt_clust_6="13000.00000" pt_clust_7="13000.00000" pt_clust_8="13000.00000" pt_clust_9="28.35898"></scales>
<clustering>
<clus scale="   28.359">  2  9  1 -1</clus>
<clus scale="   88.024">  5  6 -1 -1</clus>
<clus scale="   91.524">  7  8 -1 -1</clus>
<clus scale="  140.150">  1  5  2 -1</clus>
<clus scale="  140.150">  1  5  2 -1</clus>
</clustering>
</event>
<event>
 9    1  0.1713970E-005  0.9286827E+02  0.7546771E-02  0.1296263E+00
         -4   -1    0    0    0  501 -0.00000000000E+00  0.00000000000E+00  0.36208816274E+03  0.36208816274E+03  0.00000000000E+00 0.  1.
          4   -1    0    0  502    0  0.00000000000E+00 -0.00000000000E+00 -0.60377250310E+02  0.60377250310E+02  0.00000000000E+00 0. -1.
         23    2    1    2    0    0 -0.28983033146E+01 -0.35388870188E+02  0.99683679015E+02  0.13960023474E+03  0.91052827429E+02 0.  0.
         23    2    1    2    0    0  0.16727835794E+02  0.33752008823E+01  0.16064863509E+02  0.93661230115E+02  0.90681495994E+02 0.  0.
        -11    1    3    3    0    0  0.58101788798E+01  0.29235993892E+02  0.47516226012E+02  0.56091828744E+02  0.00000000000E+00 0.  1.
         11    1    3    3    0    0 -0.87084821944E+01 -0.64624864080E+02  0.52167453003E+02  0.83508405998E+02  0.00000000000E+00 0. -1.
        -11    1    4    4    0    0  0.45402260842E+02  0.28860185865E+02  0.11647705241E+02  0.55044933056E+02  0.00000000000E+00 0.  1.
         11    1    4    4    0    0 -0.28674425048E+02 -0.25484984982E+02  0.44171582678E+01  0.38616297059E+02  0.00000000000E+00 0. -1.
         21    1    1    2  502  501 -0.13829532479E+02  0.32013669306E+02  0.18596236991E+03  0.18920394820E+03  0.00000000000E+00 0.  1.
<scales pt_clust_5="13000.00000" pt_clust_6="13000.00000" pt_clust_7="13000.00000" pt_clust_8="13000.00000" pt_clust_9="34.87307"></scales>
<clustering>
<clus scale="   34.873">  1  9  2 -1</clus>
<clus scale="   90.681">  7  8 -1 -1</clus>
<clus scale="   91.053">  5  6 -1 -1</clus>
<clus scale="   92.504">  2  7  1 -1</clus>
<clus scale="   92.504">  2  5  1 -1</clus>
</clustering>
</event>
<event>
 9    1  0.1713970E-005  0.1085098E+03  0.7546771E-02  0.1263762E+00
         -4   -1    0    0    0  501 -0.00000000000E+00  0.00000000000E+00  0.29247337568E+03  0.29247337568E+03  0.00000000000E+00 0.  1.
          4   -1    0    0  502    0  0.00000000000E+00 -0.00000000000E+00 -0.51841151001E+02  0.51841151001E+02  0.00000000000E+00 0. -1.
         23    2    1    2    0    0  0.52419040561E+02  0.34886222050E+02  0.16178166598E+03  0.19675248441E+03  0.92592809512E+02 0.  0.
         23    2    1    2    0    0 -0.38113869830E+02 -0.18082879982E+02  0.64908269511E+02  0.12145883093E+03  0.93592235460E+02 0.  0.
        -11    1    3    3    0    0  0.62457989547E+02  0.36728841943E+00  0.52120159956E+02  0.81348917834E+02  0.00000000000E+00 0. -1.
         11    1    3    3    0    0 -0.10038948986E+02  0.34518933631E+02  0.10966150602E+03  0.11540356658E+03  0.00000000000E+00 0.  1.
        -13    1    4    4    0    0  0.65829970745E+01  0.30984088546E+02  0.38916339295E+02  0.50177993759E+02  0.00000000000E+00 0.  1.
         13    1    4    4    0    0 -0.44696866904E+02 -0.49066968529E+02  0.25991930216E+02  0.71280837173E+02  0.00000000000E+00 0. -1.
         21    1    1    2  502  501 -0.14305170731E+02 -0.16803342068E+02  0.13942289192E+02  0.26103211339E+02  0.00000000000E+00 0. -1.
<scales pt_clust_5="13000.00000" pt_clust_6="13000.00000" pt_clust_7="13000.00000" pt_clust_8="13000.00000" pt_clust_9="22.06785"></scales>
<clustering>
<clus scale="   22.068">  2  9  1 -1</clus>
<clus scale="   92.593">  5  6 -1 -1</clus>
<clus scale="   93.592">  7  8 -1 -1</clus>
<clus scale="  107.649">  1  5  2 -1</clus>
<clus scale="   22.068">  2  5  1 -1</clus>
</clustering>
</event>
<event>
 9    1  0.1713970E-005  0.1062545E+03  0.7546771E-02  0.1268504E+00
         -1   -1    0    0    0  501 -0.00000000000E+00  0.00000000000E+00  0.10234067567E+03  0.10234067567E+03  0.00000000000E+00 0.  1.
          1   -1    0    0  502    0  0.00000000000E+00 -0.00000000000E+00 -0.18663257492E+03  0.18663257492E+03  0.00000000000E+00 0. -1.
         23    2    1    2    0    0 -0.64874846865E+02 -0.11904764396E+02 -0.56568026882E+02  0.12438858328E+03  0.89006229077E+02 0.  0.
         23    2    1    2    0    0  0.46332092945E+02 -0.52243311101E+01 -0.63818280791E+02  0.12053871455E+03  0.91010176737E+02 0.  0.
        -11    1    3    3    0    0 -0.33379744954E+02  0.28317030946E+02  0.53702929593E+01  0.44101039231E+02  0.00000000000E+00 0.  1.
         11    1    3    3    0    0 -0.31495101911E+02 -0.40221795343E+02 -0.61938319841E+02  0.80287544051E+02  0.00000000000E+00 0. -1.
        -11    1    4    4    0    0  0.39898437434E+02  0.30956878399E+02 -0.44215207188E+01  0.50692834556E+02  0.00000000000E+00 0.  1.
         11    1    4    4    0    0  0.64336555110E+01 -0.36181209509E+02 -0.59396760073E+02  0.69845879992E+02  0.00000000000E+00 0. -1.
         21    1    1    2  502  501  0.18542753920E+02  0.17129095506E+02  0.36094408420E+02  0.44045952765E+02  0.00000000000E+00 0.  1.
<scales pt_clust_5="13000.00000" pt_clust_6="13000.00000" pt_clust_7="13000.00000" pt_clust_8="13000.00000" pt_clust_9="25.24361"></scales>
<clustering>
<clus scale="   25.244">  1  9  2 -1</clus>
<clus scale="   89.006">  5  6 -1 -1</clus>
<clus scale="   91.010">  7  8 -1 -1</clus>
<clus scale="  104.543">  1  5  2 -1</clus>
<clus scale="  106.255">  2  5  1 -1</clus>
</clustering>
</event>
<event>
 9    1  0.1713970E-005  0.1158526E+03  0.7546771E-02  0.1253691E+00
          3   -1    0    0  502    0  0.00000000000E+00  0.00000000000E+00  0.44917458813E+03  0.44917458813E+03  0.00000000000E+00 0. -1.
         -3   -1    0    0    0  501 -0.00000000000E+00 -0.00000000000E+00 -0.14214706531E+03  0.14214706531E+03  0.00000000000E+00 0.  1.
         23    2    1    2    0    0  0.57779461902E+02  0.55846698071E+02 -0.84569546099E+02  0.14250002732E+03  0.81834771068E+02 0.  0.
         23    2    1    2    0    0  0.48613867179E+02 -0.31150089927E+02  0.16273705954E+03  0.19523462563E+03  0.91101988529E+02 0.  0.
        -11    1    4    4    0    0  0.48722488807E+02  0.17150292525E+02  0.47049424229E+02  0.69868889855E+02  0.00000000000E+00 0.  1.
         11    1    4    4    0    0 -0.10862162794E+00 -0.48300382452E+02  0.11568763531E+03  0.12536573577E+03  0.00000000000E+00 0. -1.
        -13    1    3    3    0    0  0.59939870133E+02  0.19202166372E+02 -0.16347029191E+02  0.65028736635E+02  0.00000000000E+00 0. -1.
         13    1    3    3    0    0 -0.21604082307E+01  0.36644531699E+02 -0.68222516908E+02  0.77471290685E+02  0.00000000000E+00 0.  1.
         21    1    1    2  502  501 -0.10639332908E+03 -0.24696608144E+02  0.22886000938E+03  0.25358700050E+03  0.00000000000E+00 0. -1.
<scales pt_clust_5="13000.00000" pt_clust_6="13000.00000" pt_clust_7="13000.00000" pt_clust_8="13000.00000" pt_clust_9="82.00541"></scales>
<clustering>
<clus scale="   81.835">  7  8 -1 -1</clus>
<clus scale="   91.102">  5  6 -1 -1</clus>
<clus scale="  107.857">  1  5  2 -1</clus>
<clus scale="   82.005">  1  9  2 -1</clus>
<clus scale="  107.857">  1  5  2 -1</clus>
</clustering>
</event>
<event>
 9    1  0.1713970E-005  0.9796203E+02  0.7546771E-02  0.1287307E+00
          1   -1    0    0  502    0  0.00000000000E+00  0.00000000000E+00  0.44663642859E+03  0.44663642859E+03  0.00000000000E+00 0. -1.
         -1   -1    0    0    0  501 -0.00000000000E+00 -0.00000000000E+00 -0.13745728384E+03  0.13745728384E+03  0.00000000000E+00 0.  1.
         23    2    1    2    0    0  0.46576933673E+02  0.36554391053E+02  0.19992869905E+03  0.22871730325E+03  0.93991945650E+02 0.  0.
         23    2    1    2    0    0  0.69221347429E+00 -0.12082201668E+02  0.21719286352E+03  0.23502348694E+03  0.88976630034E+02 0.  0.
        -11    1    4    4    0    0  0.42373592615E+02 -0.20599487062E+02  0.12061682333E+03  0.12949238699E+03  0.00000000000E+00 0. -1.
         11    1    4    4    0    0 -0.41681379141E+02  0.85172853940E+01  0.96576040193E+02  0.10553109995E+03  0.00000000000E+00 0.  1.
        -11    1    3    3    0    0  0.33488807508E+02  0.55069897707E+02  0.19518596658E+03  0.20555231794E+03  0.00000000000E+00 0. -1.
         11    1    3    3    0    0  0.13088126165E+02 -0.18515506654E+02  0.47427324732E+01  0.23164985312E+02  0.00000000000E+00 0.  1.
         21    1    1    2  502  501 -0.47269147147E+02 -0.24472189385E+02 -0.10794241782E+03  0.12035292224E+03  0.00000000000E+00 0.  1.
<scales pt_clust_5="13000.00000" pt_clust_6="13000.00000" pt_clust_7="13000.00000" pt_clust_8="13000.00000" pt_clust_9="53.22838"></scales>
<clustering>
<clus scale="   53.228">  2  9  1 -1</clus>
<clus scale="   88.977">  5  6 -1 -1</clus>
<clus scale="   93.161">  1  5  2 -1</clus>
<clus scale="   93.992">  7  8 -1 -1</clus>
<clus scale="   93.161">  1  5  2 -1</clus>
</clustering>
</event>
<event>
 9    1  0.1713970E-005  0.9400090E+02  0.7546771E-02  0.1299250E+00
         -1   -1    0    0    0  501 -0.00000000000E+00  0.00000000000E+00  0.15988648608E+03  0.15988648608E+03  0.00000000000E+00 0.  1.
          1   -1    0    0  502    0  0.00000000000E+00 -0.00000000000E+00 -0.13895373799E+03  0.13895373799E+03  0.00000000000E+00 0. -1.
         23    2    1    2    0    0 -0.44954944822E+02 -0.12423478906E+02  0.91292813659E+02  0.13066140380E+03  0.81010707465E+02 0.  0.
         23    2    1    2    0    0  0.89732239680E+01  0.19851411517E+02 -0.87093668063E+02  0.12780714864E+03  0.90965723980E+02 0.  0.
        -11    1    3    3    0    0 -0.27740345995E+02 -0.44624878065E+02  0.72659667435E+02  0.89667908473E+02  0.00000000000E+00 0.  1.
         11    1    3    3    0    0 -0.17214598827E+02  0.32201399158E+02  0.18633146224E+02  0.40993495322E+02  0.00000000000E+00 0. -1.
        -13    1    4    4    0    0 -0.17848367224E+02  0.48982571168E+02 -0.61656138584E+02  0.80742404694E+02  0.00000000000E+00 0.  1.
         13    1    4    4    0    0  0.26821591191E+02 -0.29131159651E+02 -0.25437529480E+02  0.47064743946E+02  0.00000000000E+00 0. -1.
         21    1    1    2  502  501  0.35981720854E+02 -0.74279326110E+01  0.16733602494E+02  0.40371671639E+02  0.00000000000E+00 0. -1.
<scales pt_clust_5="13000.00000" pt_clust_6="13000.00000" pt_clust_7="13000.00000" pt_clust_8="13000.00000" pt_clust_9="36.74042"></scales>
<clustering>
<clus scale="   36.740">  1  9  2 -1</clus>
<clus scale="   81.011">  5  6 -1 -1</clus>
<clus scale="   84.405">  1  5  2 -1</clus>
<clus scale="   90.966">  7  8 -1 -1</clus>
<clus scale="   94.001">  2  5  1 -1</clus>
</clustering>
</event>
<event>
 9    1  0.1713970E-005  0.1182534E+03  0.7546771E-02  0.1253185E+00
         -2   -1    0    0    0  501 -0.00000000000E+00  0.00000000000E+00  0.81519780768E+02  0.81519780768E+02  0.00000000000E+00 0. -1.
          2   -1    0    0  502    0  0.00000000000E+00 -0.00000000000E+00 -0.32762978791E+03  0.32762978791E+03  0.00000000000E+00 0.  1.
         23    2    1    2    0    0 -0.27937953026E+02 -0.92393334490E+01  0.14708966954E+02  0.11399542138E+03  0.10914535210E+03 0.  0.
         23    2    1    2    0    0  0.37178943986E+02  0.31041347144E+02 -0.24656784981E+03  0.26751688516E+03  0.91780935799E+02 0.  0.
        -11    1    3    3    0    0  0.37457972885E+02  0.18042422644E+02  0.11158231456E+02  0.43048053113E+02  0.00000000000E+00 0.  1.
         11    1    3    3    0    0 -0.65395925911E+02 -0.27281756093E+02  0.35507354984E+01  0.70947368266E+02  0.00000000000E+00 0. -1.
        -13    1    4    4    0    0  0.62395547846E+02  0.41110822440E+02 -0.20141609099E+03  0.21482957390E+03  0.00000000000E+00 0.  1.
         13    1    4    4    0    0 -0.25216603860E+02 -0.10069475296E+02 -0.45151758825E+02  0.52687311262E+02  0.00000000000E+00 0. -1.
         21    1    1    2  502  501 -0.92409909601E+01 -0.21802013695E+02 -0.14251124280E+02  0.27637262135E+02  0.00000000000E+00 0. -1.
<scales pt_clust_5="13000.00000" pt_clust_6="13000.00000" pt_clust_7="13000.00000" pt_clust_8="13000.00000" pt_clust_9="23.67961"></scales>
<clustering>
<clus scale="   23.680">  1  9  2 -1</clus>
<clus scale="   91.781">  7  8 -1 -1</clus>
<clus scale="  102.445">  2  7  1 -1</clus>
<clus scale="  109.145">  5  6 -1 -1</clus>
<clus scale="  102.445">  2  5  1 -1</clus>
</clustering>
</event>
<event>
 9    1  0.1713970E-005  0.1340210E+03  0.7546771E-02  0.1222462E+00
          2   -1    0    0  502    0  0.00000000000E+00  0.00000000000E+00  0.18992264146E+03  0.18992264146E+03  0.00000000000E+00 0. -1.
         -2   -1    0    0    0  501 -0.00000000000E+00 -0.00000000000E+00 -0.21173029548E+03  0.21173029548E+03  0.00000000000E+00 0.  1.
         23    2    1    2    0    0  0.57746740002E+02  0.42139455628E+02 -0.14229730942E+03  0.18342396562E+03  0.91024212129E+02 0.  0.
         23    2    1    2    0    0 -0.87967306627E+02 -0.46667586985E+02  0.12700892386E+03  0.18698337192E+03  0.94421416660E+02 0.  0.
        -11    1    3    3    0    0  0.76232403279E+02  0.54298619728E+02 -0.11644291297E+03  0.14939434861E+03  0.00000000000E+00 0.  1.
         11    1    3    3    0    0 -0.18485663276E+02 -0.12159164100E+02 -0.25854396447E+02  0.34029617013E+02  0.00000000000E+00 0. -1.
        -13    1    4    4    0    0 -0.59633242479E+02 -0.73258440392E+02  0.10875942349E+03  0.14405393051E+03  0.00000000000E+00 0. -1.
         13    1    4    4    0    0 -0.28334064148E+02  0.26590853408E+02  0.18249500373E+02  0.42929441412E+02  0.00000000000E+00 0.  1.
         21    1    1    2  502  501  0.30220566625E+02  0.45281313561E+01 -0.65192684562E+01  0.31245599401E+02  0.00000000000E+00 0.  1.
<scales pt_clust_5="13000.00000" pt_clust_6="13000.00000" pt_clust_7="13000.00000" pt_clust_8="13000.00000" pt_clust_9="30.55792"></scales>
<clustering>
<clus scale="   30.558">  2  9  1 -1</clus>
<clus scale="   91.024">  5  6 -1 -1</clus>
<clus scale="   94.421">  7  8 -1 -1</clus>
<clus scale="  131.650">  2  5  1 -1</clus>
<clus scale="  134.021">  1  5  2 -1</clus>
</clustering>
</event>
<event>
 9    1  0.1713970E-005  0.1738018E+03  0.7546771E-02  0.1174949E+00
         -2   -1    0    0    0  501 -0.00000000000E+00  0.00000000000E+00  0.45412986760E+03  0.45412986760E+03  0.00000000000E+00 0.  1.
          2   -1    0    0  502    0  0.00000000000E+00 -0.00000000000E+00 -0.76569847830E+02  0.76569847830E+02  0.00000000000E+00 0. -1.
         23    2    1    2    0    0  0.59128736974E+02  0.13287137347E+03  0.19274436682E+03  0.26088930564E+03  0.98801970792E+02 0.  0.
         23    2    1    2    0    0 -0.80709737802E+02 -0.11691785986E+03  0.15155709260E+03  0.22707417190E+03  0.91702123711E+02 0.  0.
        -13    1    3    3    0    0  0.38259662190E+02  0.64104046647E+02  0.25549908321E+02  0.78904552230E+02  0.00000000000E+00 0. -1.
         13    1    3    3    0    0  0.20869074784E+02  0.68767326820E+02  0.16719445850E+03  0.18198475341E+03  0.00000000000E+00 0.  1.
        -13    1    4    4    0    0 -0.11322831204E+02 -0.92824209867E+02  0.66810816324E+02  0.11492704478E+03  0.00000000000E+00 0. -1.
         13    1    4    4    0    0 -0.69386906598E+02 -0.24093649996E+02  0.84746276279E+02  0.11214712712E+03  0.00000000000E+00 0.  1.
         21    1    1    2  502  501  0.21581000828E+02 -0.15953513605E+02  0.33258560347E+02  0.42736237895E+02  0.00000000000E+00 0. -1.
<scales pt_clust_5="13000.00000" pt_clust_6="13000.00000" pt_clust_7="13000.00000" pt_clust_8="13000.00000" pt_clust_9="26.83755"></scales>
<clustering>
<clus scale="   26.838">  1  9  2 -1</clus>
<clus scale="   91.702">  7  8 -1 -1</clus>
<clus scale="   98.802">  5  6 -1 -1</clus>
<clus scale="  169.866">  2  7  1 -1</clus>
<clus scale="  169.866">  2  5  1 -1</clus>
</clustering>
</event>
<event>
 9    1  0.1713970E-005  0.1116564E+03  0.7546771E-02  0.1258377E+00
         -1   -1    0    0    0  501 -0.00000000000E+00  0.00000000000E+00  0.70475408025E+02  0.70475408025E+02  0.00000000000E+00 0.  1.
          1   -1    0    0  502    0  0.00000000000E+00 -0.00000000000E+00 -0.49228393738E+03  0.49228393738E+03  0.00000000000E+00 0. -1.
         23    2    1    2    0    0  0.32681197106E+02 -0.36887217932E+02 -0.14799234179E+03  0.18203603387E+03  0.93843789939E+02 0.  0.
         23    2    1    2    0    0 -0.61363958289E+02  0.20239399856E+02 -0.31044621789E+03  0.33131066379E+03  0.95993401107E+02 0.  0.
        -13    1    4    4    0    0 -0.12173811536E+02  0.49279404530E+02 -0.20708186247E+03  0.21321247422E+03  0.00000000000E+00 0. -1.
         13    1    4    4    0    0 -0.49190146753E+02 -0.29040004675E+02 -0.10336435542E+03  0.11809818958E+03  0.00000000000E+00 0.  1.
        -13    1    3    3    0    0  0.19045886166E+02 -0.64353747879E+02 -0.64468417559E+02  0.93060880656E+02  0.00000000000E+00 0.  1.
         13    1    3    3    0    0  0.13635310940E+02  0.27466529947E+02 -0.83523924228E+02  0.88975153218E+02  0.00000000000E+00 0. -1.
         21    1    1    2  502  501  0.28682761183E+02  0.16647818076E+02  0.36630030319E+02  0.49412647743E+02  0.00000000000E+00 0.  1.
<scales pt_clust_5="13000.00000" pt_clust_6="13000.00000" pt_clust_7="13000.00000" pt_clust_8="13000.00000" pt_clust_9="33.16400"></scales>
<clustering>
<clus scale="   33.164">  1  9  2 -1</clus>
<clus scale="   93.844">  7  8 -1 -1</clus>
<clus scale="   95.993">  5  6 -1 -1</clus>
<clus scale="  109.814">  1  7  2 -1</clus>
<clus scale="  111.656">  2  5  1 -1</clus>
</clustering>
</event>
<event>
 9    1  0.1713970E-005  0.9784054E+02  0.7546771E-02  0.1298243E+00
         -2   -1    0    0    0  501 -0.00000000000E+00  0.00000000000E+00  0.75947217028E+02  0.75947217028E+02  0.00000000000E+00 0.  1.
          2   -1    0    0  502    0  0.00000000000E+00 -0.00000000000E+00 -0.26031286674E+03  0.26031286674E+03  0.00000000000E+00 0. -1.
         23    2    1    2    0    0 -0.51007128240E+02  0.95395516774E+01 -0.39532657809E+02  0.94615008135E+02  0.68530566563E+02 0.  0.
         23    2    1    2    0    0  0.11690478748E+01 -0.37647116721E+02 -0.15442460488E+03  0.18362897005E+03  0.91945461984E+02 0.  0.
        -11    1    3    3    0    0 -0.32961895665E+02 -0.11927720953E+02 -0.52969582635E+02  0.63517979955E+02  0.00000000000E+00 0. -1.
         11    1    3    3    0    0 -0.18045232575E+02  0.21467272630E+02  0.13436924826E+02  0.31097028180E+02  0.00000000000E+00 0.  1.
        -13    1    4    4    0    0 -0.38443262986E+02 -0.41747542809E+01 -0.10537793805E+03  0.11224893260E+03  0.00000000000E+00 0. -1.
         13    1    4    4    0    0  0.39612310861E+02 -0.33472362440E+02 -0.49046666822E+02  0.71380037443E+02  0.00000000000E+00 0.  1.
         21    1    1    2  502  501  0.49838080365E+02  0.28107565043E+02  0.95916129780E+01  0.58016105580E+02  0.00000000000E+00 0.  1.
<scales pt_clust_5="13000.00000" pt_clust_6="13000.00000" pt_clust_7="13000.00000" pt_clust_8="13000.00000" pt_clust_9="57.21774"></scales>
<clustering>
<clus scale="   57.218">  1  9  2 -1</clus>
<clus scale="   68.531">  5  6 -1 -1</clus>
<clus scale="   76.258">  1  5  2 -1</clus>
<clus scale="   91.945">  7  8 -1 -1</clus>
<clus scale="   97.841">  2  5  1 -1</clus>
</clustering>
</event>
<event>
 9    1  0.1713970E-005  0.1237779E+03  0.7546771E-02  0.1237286E+00
         -1   -1    0    0    0  501 -0.00000000000E+00  0.00000000000E+00  0.11693573393E+03  0.11693573393E+03  0.00000000000E+00 0.  1.
          1   -1    0    0  502    0  0.00000000000E+00 -0.00000000000E+00 -0.25088300826E+03  0.25088300826E+03  0.00000000000E+00 0. -1.
         23    2    1    2    0    0 -0.83426073034E+02 -0.56858768519E+02 -0.72408040456E+02  0.15385568562E+03  0.90751410205E+02 0.  0.
         23    2    1    2    0    0  0.60622356704E+02  0.42094247411E+02 -0.10897693468E+03  0.15929738161E+03  0.89736768930E+02 0.  0.
        -13    1    4    4    0    0  0.61579391715E+01  0.55138215632E+02 -0.76683059383E+02  0.94649007571E+02  0.00000000000E+00 0. -1.
         13    1    4    4    0    0  0.54464417533E+02 -0.13043968221E+02 -0.32293875298E+02  0.64648374039E+02  0.00000000000E+00 0.  1.
        -13    1    3    3    0    0 -0.62945327311E+02 -0.34476875509E+02  0.37607285106E+01  0.71867323966E+02  0.00000000000E+00 0.  1.
         13    1    3    3    0    0 -0.20480745724E+02 -0.22381893010E+02 -0.76168768967E+02  0.81988361650E+02  0.00000000000E+00 0. -1.
         21    1    1    2  502  501  0.22803716330E+02  0.14764521109E+02  0.47437700804E+02  0.54665674967E+02  0.00000000000E+00 0.  1.
<scales pt_clust_5="13000.00000" pt_clust_6="13000.00000" pt_clust_7="13000.00000" pt_clust_8="13000.00000" pt_clust_9="27.16617"></scales>
<clustering>
<clus scale="   27.166">  1  9  2 -1</clus>
<clus scale="   89.737">  5  6 -1 -1</clus>
<clus scale="   90.751">  7  8 -1 -1</clus>
<clus scale="  123.036">  2  5  1 -1</clus>
<clus scale="  123.036">  2  5  1 -1</clus>
</clustering>
</event>
<event>
 9    1  0.1713970E-005  0.1418367E+03  0.7546771E-02  0.1211715E+00
          1   -1    0    0  502    0  0.00000000000E+00  0.00000000000E+00  0.41148852947E+03  0.41148852947E+03  0.00000000000E+00 0. -1.
         -1   -1    0    0    0  501 -0.00000000000E+00 -0.00000000000E+00 -0.58548936551E+02  0.58548936551E+02  0.00000000000E+00 0.  1.
         23    2    1    2    0    0  0.93130791368E+02  0.57185826863E+02  0.14047779579E+03  0.19993198280E+03  0.91078117783E+02 0.  0.
         23    2    1    2    0    0 -0.76361405640E+02 -0.69767875850E+02  0.20373275175E+03  0.24739609117E+03  0.94863960592E+02 0.  0.
        -11    1    3    3    0    0  0.79537379777E+02  0.24858273312E+02  0.37937962651E+02  0.91561004494E+02  0.00000000000E+00 0.  1.
         11    1    3    3    0    0  0.13593411591E+02  0.32327553550E+02  0.10253983314E+03  0.10837097830E+03  0.00000000000E+00 0. -1.
        -11    1    4    4    0    0 -0.34615243821E+02  0.20327485334E+02  0.71957133125E+02  0.82396909969E+02  0.00000000000E+00 0.  1.
         11    1    4    4    0    0 -0.41746161818E+02 -0.90095361184E+02  0.13177561862E+03  0.16499918120E+03  0.00000000000E+00 0. -1.
         21    1    1    2  502  501 -0.16769385728E+02  0.12582048988E+02  0.87290453822E+01  0.22709392060E+02  0.00000000000E+00 0.  1.
<scales pt_clust_5="13000.00000" pt_clust_6="13000.00000" pt_clust_7="13000.00000" pt_clust_8="13000.00000" pt_clust_9="20.96474"></scales>
<clustering>
<clus scale="   20.965">  2  9  1 -1</clus>
<clus scale="   91.078">  5  6 -1 -1</clus>
<clus scale="   94.864">  7  8 -1 -1</clus>
<clus scale="  139.333">  2  5  1 -1</clus>
<clus scale="  141.837">  1  5  2 -1</clus>
</clustering>
</event>
<event>
 9    1  0.1713970E-005  0.9899047E+02  0.7546771E-02  0.1283641E+00
         -1   -1    0    0    0  501 -0.00000000000E+00  0.00000000000E+00  0.14997760993E+03  0.14997760993E+03  0.00000000000E+00 0.  1.
          1   -1    0    0  502    0  0.00000000000E+00 -0.00000000000E+00 -0.12621919125E+03  0.12621919125E+03  0.00000000000E+00 0. -1.
         23    2    1    2    0    0 -0.43379273641E+01 -0.29917858808E+02  0.85869239188E+02  0.12884832001E+03  0.91183701619E+02 0.  0.
         23    2    1    2    0    0 -0.18435886335E+02  0.42681331896E+02 -0.61511298185E+02  0.12123503133E+03  0.93555945941E+02 0.  0.
        -11    1    3    3    0    0 -0.31616086553E+02  0.20485019446E+02  0.24822338318E+02  0.45114980109E+02  0.00000000000E+00 0. -1.
         11    1    3    3    0    0  0.27278159189E+02 -0.50402878254E+02  0.61046900870E+02  0.83733339900E+02  0.00000000000E+00 0.  1.
        -11    1    4    4    0    0 -0.34584504409E+02 -0.38565310979E+01 -0.62978533900E+02  0.71953154966E+02  0.00000000000E+00 0. -1.
         11    1    4    4    0    0  0.16148618075E+02  0.46537862994E+02  0.14672357148E+01  0.49281876369E+02  0.00000000000E+00 0.  1.
         21    1    1    2  502  501  0.22773813699E+02 -0.12763473088E+02 -0.59952232699E+00  0.26113449842E+02  0.00000000000E+00 0.  1.
<scales pt_clust_5="13000.00000" pt_clust_6="13000.00000" pt_clust_7="13000.00000" pt_clust_8="13000.00000" pt_clust_9="26.10657"></scales>
<clustering>
<clus scale="   26.107">  2  9  1 -1</clus>
<clus scale="   91.184">  5  6 -1 -1</clus>
<clus scale="   93.556">  7  8 -1 -1</clus>
<clus scale="   96.752">  1  5  2 -1</clus>
<clus scale="   26.107">  2  5  1 -1</clus>
</clustering>
</event>
<event>
 9    1  0.1713970E-005  0.2389327E+03  0.7546771E-02  0.1120550E+00
         -1   -1    0    0    0  501 -0.00000000000E+00  0.00000000000E+00  0.13207296551E+04  0.13207296551E+04  0.00000000000E+00 0.  1.
          1   -1    0    0  502    0  0.00000000000E+00 -0.00000000000E+00 -0.18853716747E+03  0.18853716747E+03  0.00000000000E+00 0. -1.
         23    2    1    2    0    0  0.10750813993E+03 -0.11332967559E+03  0.83352872211E+03  0.85287849396E+03  0.90719233639E+02 0.  0.
         23    2    1    2    0    0 -0.21873131146E+03  0.69735178210E+02 -0.79678239921E+02  0.25963431519E+03  0.91405546953E+02 0.  0.
        -11    1    4    4    0    0 -0.35787241665E+02 -0.22434117494E+02 -0.12448215670E+02  0.44033786654E+02  0.00000000000E+00 0.  1.
         11    1    4    4    0    0 -0.18294406980E+03  0.92169295704E+02 -0.67230024251E+02  0.21560052854E+03  0.00000000000E+00 0. -1.
        -11    1    3    3    0    0  0.99959068545E+02 -0.60817754742E+02  0.69017732196E+03  0.70002524985E+03  0.00000000000E+00 0.  1.
         11    1    3    3    0    0  0.75490713833E+01 -0.52511920847E+02  0.14335140015E+03  0.15285324411E+03  0.00000000000E+00 0. -1.
         21    1    1    2  502  501  0.11122317153E+03  0.43594497380E+02  0.37834200542E+03  0.39675401340E+03  0.00000000000E+00 0.  1.
<scales pt_clust_5="13000.00000" pt_clust_6="13000.00000" pt_clust_7="13000.00000" pt_clust_8="13000.00000" pt_clust_9="119.46160"></scales>
<clustering>
<clus scale="   90.719">  7  8 -1 -1</clus>
<clus scale="   91.406">  5  6 -1 -1</clus>
<clus scale="  119.462">  1  9  2 -1</clus>
<clus scale="  238.671">  1  7  2 -1</clus>
<clus scale="  238.933">  2  5  1 -1</clus>
</clustering>
</event>
<event>
 9    1  0.1713970E-005  0.4597666E+03  0.7546771E-02  0.1024871E+00
         -1   -1    0    0    0  501 -0.00000000000E+00  0.00000000000E+00  0.18662397051E+03  0.18662397051E+03  0.00000000000E+00 0.  1.
          1   -1    0    0  502    0  0.00000000000E+00 -0.00000000000E+00 -0.12025589099E+04  0.12025589099E+04  0.00000000000E+00 0. -1.
         23    2    1    2    0    0 -0.13510358336E+03  0.41972691680E+03 -0.41706307545E+03  0.61358804912E+03  0.90138905034E+02 0.  0.
         23    2    1    2    0    0  0.12943944654E+03 -0.43989376231E+03 -0.59001204710E+03  0.75285103085E+03  0.91702598074E+02 0.  0.
        -11    1    3    3    0    0  0.47813116059E+01  0.94997154959E+02 -0.10863939956E+03  0.14439473511E+03  0.00000000000E+00 0. -1.
         11    1    3    3    0    0 -0.13988489497E+03  0.32472976184E+03 -0.30842367589E+03  0.46919331401E+03  0.00000000000E+00 0.  1.
        -11    1    4    4    0    0  0.55395059290E+02 -0.93240192291E+02 -0.96113283277E+02  0.14491414449E+03  0.00000000000E+00 0.  1.
         11    1    4    4    0    0  0.74044387251E+02 -0.34665357002E+03 -0.49389876382E+03  0.60793688636E+03  0.00000000000E+00 0. -1.
         21    1    1    2  502  501  0.56641368204E+01  0.20166845518E+02 -0.88598168493E+01  0.22743800445E+02  0.00000000000E+00 0. -1.
<scales pt_clust_5="13000.00000" pt_clust_6="13000.00000" pt_clust_7="13000.00000" pt_clust_8="13000.00000" pt_clust_9="20.94717"></scales>
<clustering>
<clus scale="   20.947">  1  9  2 -1</clus>
<clus scale="   90.139">  5  6 -1 -1</clus>
<clus scale="   91.703">  7  8 -1 -1</clus>
<clus scale="  459.457">  1  5  2 -1</clus>
<clus scale="  459.767">  2  5  1 -1</clus>
</clustering>
</event>
<event>
 9    1  0.1713970E-005  0.1269847E+03  0.7546771E-02  0.1233146E+00
          1   -1    0    0  502    0  0.00000000000E+00  0.00000000000E+00  0.49541971312E+03  0.49541971312E+03  0.00000000000E+00 0. -1.
         -1   -1    0    0    0  501 -0.00000000000E+00 -0.00000000000E+00 -0.22741436979E+03  0.22741436979E+03  0.00000000000E+00 0.  1.
         23    2    1    2    0    0 -0.95143358808E+02  0.92413852929E+01 -0.16652211918E+03  0.21256866867E+03  0.91203951651E+02 0.  0.
         23    2    1    2    0    0  0.28258509594E+02 -0.91924424421E+02  0.11445260229E+03  0.17298513888E+03  0.87039168952E+02 0.  0.
        -11    1    4    4    0    0  0.55981411858E+02 -0.57175242029E+02  0.95682097869E+02  0.12473167452E+03  0.00000000000E+00 0.  1.
         11    1    4    4    0    0 -0.27722902264E+02 -0.34749182391E+02  0.18770504424E+02  0.48253464364E+02  0.00000000000E+00 0. -1.
        -13    1    3    3    0    0 -0.40325157302E+02  0.48772190842E+02 -0.65988316382E+02  0.91429222954E+02  0.00000000000E+00 0. -1.
         13    1    3    3    0    0 -0.54818201506E+02 -0.39530805549E+02 -0.10053380279E+03  0.12113944571E+03  0.00000000000E+00 0.  1.
         21    1    1    2  502  501  0.66884849214E+02  0.82683039128E+02  0.32007486021E+03  0.33728027537E+03  0.00000000000E+00 0. -1.
<scales pt_clust_5="13000.00000" pt_clust_6="13000.00000" pt_clust_7="13000.00000" pt_clust_8="13000.00000" pt_clust_9="106.34880"></scales>
<clustering>
<clus scale="   87.039">  5  6 -1 -1</clus>
<clus scale="   91.204">  7  8 -1 -1</clus>
<clus scale="  106.349">  1  9  2 -1</clus>
<clus scale="  124.027">  1  5  2 -1</clus>
<clus scale="  106.349">  1  5  2 -1</clus>
</clustering>
</event>
<event>
 9    1  0.1713970E-005  0.1307567E+03  0.7546771E-02  0.1227985E+00
         -2   -1    0    0    0  501 -0.00000000000E+00  0.00000000000E+00  0.11727896185E+03  0.11727896185E+03  0.00000000000E+00 0.  1.
          2   -1    0    0  502    0  0.00000000000E+00 -0.00000000000E+00 -0.22758728318E+03  0.22758728318E+03  0.00000000000E+00 0. -1.
         23    2    1    2    0    0 -0.79042068719E+01 -0.10752420027E+03 -0.47722053127E+02  0.14503217205E+03  0.84457127840E+02 0.  0.
         23    2    1    2    0    0  0.14904434471E+02  0.84191144980E+02 -0.96729423466E+02  0.15789137746E+03  0.90900025596E+02 0.  0.
        -11    1    4    4    0    0  0.41148894086E+02  0.30463355064E+02 -0.94022104386E+01  0.52054289423E+02  0.00000000000E+00 0.  1.
         11    1    4    4    0    0 -0.26244459614E+02  0.53727789916E+02 -0.87327213027E+02  0.10583708804E+03  0.00000000000E+00 0. -1.
        -13    1    3    3    0    0 -0.31974092910E+02 -0.11693034848E+02 -0.28438943497E+02  0.44360378589E+02  0.00000000000E+00 0.  1.
         13    1    3    3    0    0  0.24069886038E+02 -0.95831165426E+02 -0.19283109630E+02  0.10067179346E+03  0.00000000000E+00 0. -1.
         21    1    1    2  502  501 -0.70002275995E+01  0.23333055294E+02  0.34143155264E+02  0.41942695516E+02  0.00000000000E+00 0.  1.
<scales pt_clust_5="13000.00000" pt_clust_6="13000.00000" pt_clust_7="13000.00000" pt_clust_8="13000.00000" pt_clust_9="24.36051"></scales>
<clustering>
<clus scale="   24.361">  1  9  2 -1</clus>
<clus scale="   84.457">  7  8 -1 -1</clus>
<clus scale="   90.900">  5  6 -1 -1</clus>
<clus scale="  126.363">  1  7  2 -1</clus>
<clus scale="  130.757">  2  5  1 -1</clus>
</clustering>
</event>
<event>
 9    1  0.1713970E-005  0.1165962E+03  0.7546771E-02  0.1250520E+00
         -4   -1    0    0    0  501 -0.00000000000E+00  0.00000000000E+00  0.39515286456E+03  0.39515286456E+03  0.00000000000E+00 0.  1.
          4   -1    0    0  502    0  0.00000000000E+00 -0.00000000000E+00 -0.48062967042E+02  0.48062967042E+02  0.00000000000E+00 0. -1.
         23    2    1    2    0    0 -0.23657115153E+02  0.59260261903E+02  0.23748852365E+03  0.26036132175E+03  0.85532340437E+02 0.  0.
         23    2    1    2    0    0  0.47427842090E+02 -0.62387473828E+02  0.77071159373E+02  0.14244359835E+03  0.90601423868E+02 0.  0.
        -11    1    3    3    0    0  0.16119169324E+02 -0.12080800097E+02  0.21588298025E+02  0.29526733011E+02  0.00000000000E+00 0. -1.
         11    1    3    3    0    0 -0.39776284477E+02  0.71341062000E+02  0.21590022563E+03  0.23083458874E+03  0.00000000000E+00 0.  1.
        -11    1    4    4    0    0  0.13253779152E+02  0.14983871756E+02  0.49648010398E+02  0.53526666355E+02  0.00000000000E+00 0.  1.
         11    1    4    4    0    0  0.34174062939E+02 -0.77371345583E+02  0.27423148975E+02  0.88916931991E+02  0.00000000000E+00 0. -1.
         21    1    1    2  502  501 -0.23770726937E+02  0.31272119247E+01  0.32530214499E+02  0.40410911508E+02  0.00000000000E+00 0.  1.
<scales pt_clust_5="13000.00000" pt_clust_6="13000.00000" pt_clust_7="13000.00000" pt_clust_8="13000.00000" pt_clust_9="23.97555"></scales>
<clustering>
<clus scale="   23.976">  1  9  2 -1</clus>
<clus scale="   85.532">  5  6 -1 -1</clus>
<clus scale="   90.601">  7  8 -1 -1</clus>
<clus scale="  112.702">  1  5  2 -1</clus>
<clus scale="  116.596">  2  5  1 -1</clus>
</clustering>
</event>
<event>
 9    1  0.1713970E-005  0.2141855E+03  0.7546771E-02  0.1139539E+00
         -1   -1    0    0    0  501 -0.00000000000E+00  0.00000000000E+00  0.14491750452E+03  0.14491750452E+03  0.00000000000E+00 0.  1.
          1   -1    0    0  502    0  0.00000000000E+00 -0.00000000000E+00 -0.91947942384E+03  0.91947942384E+03  0.00000000000E+00 0. -1.
         23    2    1    2    0    0  0.14956816750E+03  0.10686007612E+03 -0.36739325990E+01  0.21188785172E+03  0.10532450489E+03 0.  0.
         23    2    1    2    0    0 -0.13428467322E+03 -0.13026138267E+03 -0.79105992591E+03  0.81804005465E+03  0.91724170010E+02 0.  0.
        -11    1    3    3    0    0  0.17282934494E+02  0.34413139332E+02  0.39339017434E+02  0.55050179618E+02  0.00000000000E+00 0. -1.
         11    1    3    3    0    0  0.13228523301E+03  0.72446936786E+02 -0.43012950033E+02  0.15683767211E+03  0.00000000000E+00 0.  1.
        -11    1    4    4    0    0 -0.34720440523E+02 -0.84020603029E+02 -0.25153372238E+03  0.26745875237E+03  0.00000000000E+00 0.  1.
         11    1    4    4    0    0 -0.99564232695E+02 -0.46240779638E+02 -0.53952620353E+03  0.55058130228E+03  0.00000000000E+00 0. -1.
         21    1    1    2  502  501 -0.15283494283E+02  0.23401306549E+02  0.20171939194E+02  0.34469021984E+02  0.00000000000E+00 0. -1.
<scales pt_clust_5="13000.00000" pt_clust_6="13000.00000" pt_clust_7="13000.00000" pt_clust_8="13000.00000" pt_clust_9="27.95007"></scales>
<clustering>
<clus scale="   27.950">  1  9  2 -1</clus>
<clus scale="   91.724">  7  8 -1 -1</clus>
<clus scale="  105.325">  5  6 -1 -1</clus>
<clus scale="  207.835">  2  7  1 -1</clus>
<clus scale="  207.835">  2  5  1 -1</clus>
</clustering>
</event>
<event>
 9    1  0.1713970E-005  0.1011211E+03  0.7546771E-02  0.1278472E+00
          3   -1    0    0  502    0  0.00000000000E+00  0.00000000000E+00  0.13677691812E+03  0.13677691812E+03  0.00000000000E+00 0. -1.
         -3   -1    0    0    0  501 -0.00000000000E+00 -0.00000000000E+00 -0.10512325522E+03  0.10512325522E+03  0.00000000000E+00 0.  1.
         23    2    1    2    0    0  0.63658119706E-02  0.30483296526E+02  0.26848647359E-03  0.96355982889E+02  0.91407023969E+02 0.  0.
         23    2    1    2    0    0 -0.20928676913E+02 -0.49408899600E+02  0.45064528232E+02  0.11430671193E+03  0.90310374878E+02 0.  0.
        -11    1    4    4    0    0 -0.34672247816E+02  0.11117156969E+02  0.36667298421E+02  0.51674430051E+02  0.00000000000E+00 0.  1.
         11    1    4    4    0    0  0.13743570903E+02 -0.60526056569E+02  0.83972298112E+01  0.62632281879E+02  0.00000000000E+00 0. -1.
        -11    1    3    3    0    0  0.36039806910E+01 -0.29608657884E+02 -0.16297554449E+02  0.33989286247E+02  0.00000000000E+00 0. -1.
         11    1    3    3    0    0 -0.35976148790E+01  0.60091954410E+02  0.16297822936E+02  0.62366696643E+02  0.00000000000E+00 0.  1.
         21    1    1    2  502  501  0.20922311101E+02  0.18925603074E+02 -0.13411133820E+02  0.31237478513E+02  0.00000000000E+00 0.  1.
<scales pt_clust_5="13000.00000" pt_clust_6="13000.00000" pt_clust_7="13000.00000" pt_clust_8="13000.00000" pt_clust_9="28.21208"></scales>
<clustering>
<clus scale="   28.212">  2  9  1 -1</clus>
<clus scale="   90.310">  5  6 -1 -1</clus>
<clus scale="   91.407">  7  8 -1 -1</clus>
<clus scale="  100.131">  1  5  2 -1</clus>
<clus scale="  100.131">  1  5  2 -1</clus>
</clustering>
</event>
<event>
 9    1  0.1713970E-005  0.1255811E+03  0.7546771E-02  0.1234333E+00
          1   -1    0    0  502    0  0.00000000000E+00  0.00000000000E+00  0.93094052778E+03  0.93094052778E+03  0.00000000000E+00 0. -1.
         -1   -1    0    0    0  501 -0.00000000000E+00 -0.00000000000E+00 -0.26934529064E+02  0.26934529064E+02  0.00000000000E+00 0.  1.
         23    2    1    2    0    0  0.21364142543E+02  0.63660817640E+02  0.26665573466E+03  0.28962038740E+03  0.90915134490E+02 0.  0.
         23    2    1    2    0    0 -0.13772892029E+02 -0.97600736721E+02  0.60814321262E+03  0.62283884572E+03  0.91512099291E+02 0.  0.
        -13    1    4    4    0    0 -0.26447381237E+02 -0.25489018657E+01  0.51027195561E+02  0.57530301250E+02  0.00000000000E+00 0. -1.
         13    1    4    4    0    0  0.12674489208E+02 -0.95051834855E+02  0.55711601706E+03  0.56530854447E+03  0.00000000000E+00 0.  1.
        -13    1    3    3    0    0  0.25150271134E+02 -0.75975270425E+01  0.20483309355E+02  0.33314028838E+02  0.00000000000E+00 0.  1.
         13    1    3    3    0    0 -0.37861285915E+01  0.71258344683E+02  0.24617242531E+03  0.25630635856E+03  0.00000000000E+00 0. -1.
         21    1    1    2  502  501 -0.75912505140E+01  0.33939919081E+02  0.29207051439E+02  0.45415823733E+02  0.00000000000E+00 0. -1.
<scales pt_clust_5="13000.00000" pt_clust_6="13000.00000" pt_clust_7="13000.00000" pt_clust_8="13000.00000" pt_clust_9="34.77852"></scales>
<clustering>
<clus scale="   34.779">  2  9  1 -1</clus>
<clus scale="   90.915">  7  8 -1 -1</clus>
<clus scale="   91.512">  5  6 -1 -1</clus>
<clus scale="  125.147">  2  7  1 -1</clus>
<clus scale="  125.581">  1  5  2 -1</clus>
</clustering>
</event>
<event>
 9    1  0.1713970E-005  0.1467235E+03  0.7546771E-02  0.1211681E+00
          1   -1    0    0  502    0  0.00000000000E+00  0.00000000000E+00  0.48975229890E+03  0.48975229890E+03  0.00000000000E+00 0. -1.
         -1   -1    0    0    0  501 -0.00000000000E+00 -0.00000000000E+00 -0.55188779776E+02  0.55188779776E+02  0.00000000000E+00 0.  1.
         23    2    1    2    0    0  0.21301230745E+02  0.12475846261E+03  0.22532970246E+03  0.26719787419E+03  0.67844032442E+02 0.  0.
         23    2    1    2    0    0 -0.12345849077E+01 -0.85866783521E+02  0.18493891730E+03  0.22768848331E+03  0.10131640335E+03 0.  0.
        -13    1    4    4    0    0  0.10223218492E+02 -0.10378783191E+03  0.17607825728E+03  0.20464598930E+03  0.00000000000E+00 0. -1.
         13    1    4    4    0    0 -0.11457803400E+02  0.17921048390E+02  0.88606600180E+01  0.23042494008E+02  0.00000000000E+00 0.  1.
        -13    1    3    3    0    0  0.45234399876E+02  0.90439816237E+02  0.17044269279E+03  0.19818229694E+03  0.00000000000E+00 0.  1.
         13    1    3    3    0    0 -0.23933169131E+02  0.34318646370E+02  0.54887009665E+02  0.69015577251E+02  0.00000000000E+00 0. -1.
         21    1    1    2  502  501 -0.20066645838E+02 -0.38891679086E+02  0.24294899370E+02  0.50054721183E+02  0.00000000000E+00 0. -1.
<scales pt_clust_5="13000.00000" pt_clust_6="13000.00000" pt_clust_7="13000.00000" pt_clust_8="13000.00000" pt_clust_9="43.76337"></scales>
<clustering>
<clus scale="   43.763">  2  9  1 -1</clus>
<clus scale="   67.844">  7  8 -1 -1</clus>
<clus scale="  101.316">  5  6 -1 -1</clus>
<clus scale="  125.959">  2  7  1 -1</clus>
<clus scale="  146.724">  1  5  2 -1</clus>
</clustering>
</event>
<event>
 9    1  0.1713970E-005  0.1092770E+03  0.7546771E-02  0.1262362E+00
         -1   -1    0    0    0  501 -0.00000000000E+00  0.00000000000E+00  0.11621302337E+03  0.11621302337E+03  0.00000000000E+00 0.  1.
          1   -1    0    0  502    0  0.00000000000E+00 -0.00000000000E+00 -0.48356256129E+03  0.48356256129E+03  0.00000000000E+00 0. -1.
         23    2    1    2    0    0 -0.60693560995E+02  0.37897152684E+02  0.17504644800E+02  0.11725470360E+03  0.91226917077E+02 0.  0.
         23    2    1    2    0    0  0.28161815841E+02 -0.50558195766E+02 -0.41944658645E+03  0.43337567935E+03  0.92357032993E+02 0.  0.
        -11    1    3    3    0    0 -0.54406480042E+02  0.63094304716E+02 -0.41870381015E+01  0.83417549990E+02  0.00000000000E+00 0. -1.
         11    1    3    3    0    0 -0.62870809535E+01 -0.25197152033E+02  0.21691682902E+02  0.33837153612E+02  0.00000000000E+00 0.  1.
        -13    1    4    4    0    0 -0.69403379533E+01 -0.68819697918E+02 -0.28077852422E+03  0.28917278360E+03  0.00000000000E+00 0.  1.
         13    1    4    4    0    0  0.35102153794E+02  0.18261502152E+02 -0.13866806223E+03  0.14420289575E+03  0.00000000000E+00 0. -1.
         21    1    1    2  502  501  0.32531745155E+02  0.12661043082E+02  0.34592403722E+02  0.49145201699E+02  0.00000000000E+00 0. -1.
<scales pt_clust_5="13000.00000" pt_clust_6="13000.00000" pt_clust_7="13000.00000" pt_clust_8="13000.00000" pt_clust_9="34.90869"></scales>
<clustering>
<clus scale="   34.909">  1  9  2 -1</clus>
<clus scale="   91.227">  5  6 -1 -1</clus>
<clus scale="   92.357">  7  8 -1 -1</clus>
<clus scale="  108.324">  1  5  2 -1</clus>
<clus scale="  109.277">  2  5  1 -1</clus>
</clustering>
</event>
<event>
 9    1  0.1713970E-005  0.1597102E+03  0.7546771E-02  0.1189208E+00
          3   -1    0    0  502    0  0.00000000000E+00  0.00000000000E+00  0.51254114849E+03  0.51254114849E+03  0.00000000000E+00 0. -1.
         -3   -1    0    0    0  501 -0.00000000000E+00 -0.00000000000E+00 -0.84510531886E+02  0.84510531886E+02  0.00000000000E+00 0.  1.
         23    2    1    2    0    0 -0.56257208869E+02  0.10300856718E+03  0.73181851138E+02  0.16555249087E+03  0.90974751638E+02 0.  0.
         23    2    1    2    0    0  0.87110762502E+02 -0.10595073046E+03  0.36396597466E+03  0.39919250908E+03  0.89830876488E+02 0.  0.
        -11    1    4    4    0    0 -0.12495305463E+02 -0.22764819752E+02  0.12084687489E+03  0.12360556965E+03  0.00000000000E+00 0.  1.
         11    1    4    4    0    0  0.99606067965E+02 -0.83185910713E+02  0.24311909977E+03  0.27558693944E+03  0.00000000000E+00 0. -1.
        -11    1    3    3    0    0 -0.29239872446E+02  0.74457276198E+02  0.92049670832E+02  0.12195080164E+03  0.00000000000E+00 0. -1.
         11    1    3    3    0    0 -0.27017336423E+02  0.28551290980E+02 -0.18867819694E+02  0.43601689234E+02  0.00000000000E+00 0.  1.
         21    1    1    2  502  501 -0.30853553633E+02  0.29421632866E+01 -0.91172091902E+01  0.32306680424E+02  0.00000000000E+00 0.  1.
<scales pt_clust_5="13000.00000" pt_clust_6="13000.00000" pt_clust_7="13000.00000" pt_clust_8="13000.00000" pt_clust_9="30.99352"></scales>
<clustering>
<clus scale="   30.994">  2  9  1 -1</clus>
<clus scale="   89.831">  5  6 -1 -1</clus>
<clus scale="   90.975">  7  8 -1 -1</clus>
<clus scale="  159.061">  1  5  2 -1</clus>
<clus scale="  159.061">  1  5  2 -1</clus>
</clustering>
</event>
<event>
 9    1  0.1713970E-005  0.1068657E+03  0.7546771E-02  0.1267039E+00
          2   -1    0    0  502    0  0.00000000000E+00  0.00000000000E+00  0.27461599314E+03  0.27461599314E+03  0.00000000000E+00 0.  1.
         -2   -1    0    0    0  501 -0.00000000000E+00 -0.00000000000E+00 -0.21075717019E+03  0.21075717019E+03  0.00000000000E+00 0. -1.
         23    2    1    2    0    0 -0.10159027539E+03 -0.14584643667E+01 -0.13453380825E+03  0.19256061693E+03  0.93045872865E+02 0.  0.
         23    2    1    2    0    0  0.45963470831E+02 -0.61843943999E+01  0.21057468127E+03  0.23535685025E+03  0.94341206185E+02 0.  0.
        -11    1    3    3    0    0 -0.40600205611E+02 -0.34564634326E+02 -0.16814386165E+02  0.55908981603E+02  0.00000000000E+00 0.  1.
         11    1    3    3    0    0 -0.60990069780E+02  0.33106169959E+02 -0.11771942208E+03  0.13665163532E+03  0.00000000000E+00 0. -1.
        -13    1    4    4    0    0  0.69848540492E+01  0.39503613720E+02  0.12130206721E+03  0.12776351276E+03  0.00000000000E+00 0.  1.
         13    1    4    4    0    0  0.38978616782E+02 -0.45688008120E+02  0.89272614061E+02  0.10759333750E+03  0.00000000000E+00 0. -1.
         21    1    1    2  502  501  0.55626804560E+02  0.76428587666E+01 -0.12182050068E+02  0.57455696145E+02  0.00000000000E+00 0. -1.
<scales pt_clust_5="13000.00000" pt_clust_6="13000.00000" pt_clust_7="13000.00000" pt_clust_8="13000.00000" pt_clust_9="56.14940"></scales>
<clustering>
<clus scale="   56.149">  2  9  1 -1</clus>
<clus scale="   93.046">  5  6 -1 -1</clus>
<clus scale="   94.341">  7  8 -1 -1</clus>
<clus scale="  105.724">  2  5  1 -1</clus>
<clus scale="  106.866">  1  5  2 -1</clus>
</clustering>
</event>
<event>
 9    1  0.1713970E-005  0.1133652E+03  0.7546771E-02  0.1258066E+00
          2   -1    0    0  502    0  0.00000000000E+00  0.00000000000E+00  0.33372878041E+03  0.33372878041E+03  0.00000000000E+00 0. -1.
         -2   -1    0    0    0  501 -0.00000000000E+00 -0.00000000000E+00 -0.67429124675E+02  0.67429124675E+02  0.00000000000E+00 0.  1.
         23    2    1    2    0    0 -0.38284258952E+02 -0.35646988799E+02  0.48197577573E+02  0.10817701146E+03  0.81503785370E+02 0.  0.
         23    2    1    2    0    0  0.45821208666E+02  0.92473124961E+02  0.14471117733E+03  0.19985603289E+03  0.91379686125E+02 0.  0.
        -11    1    3    3    0    0 -0.38442679291E+01 -0.49868736270E+02  0.37206625803E+01  0.50154885935E+02  0.00000000000E+00 0.  1.
         11    1    3    3    0    0 -0.34439991023E+02  0.14221747471E+02  0.44476914992E+02  0.58022125521E+02  0.00000000000E+00 0. -1.
        -11    1    4    4    0    0  0.62834434622E+01  0.24152657461E+02  0.11143020127E+03  0.11419072764E+03  0.00000000000E+00 0.  1.
         11    1    4    4    0    0  0.39537765204E+02  0.68320467501E+02  0.33280976062E+02  0.85665305255E+02  0.00000000000E+00 0. -1.
         21    1    1    2  502  501 -0.75369497142E+01 -0.56826136162E+02  0.73390900832E+02  0.93124860735E+02  0.00000000000E+00 0.  1.
<scales pt_clust_5="13000.00000" pt_clust_6="13000.00000" pt_clust_7="13000.00000" pt_clust_8="13000.00000" pt_clust_9="57.32378"></scales>
<clustering>
<clus scale="   57.324">  1  9  2 -1</clus>
<clus scale="   81.504">  5  6 -1 -1</clus>
<clus scale="   91.380">  7  8 -1 -1</clus>
<clus scale="  105.567">  2  5  1 -1</clus>
<clus scale="   57.324">  1  5  2 -1</clus>
</clustering>
</event>
<event>
 9    1  0.1713970E-005  0.1197306E+03  0.7546771E-02  0.1245183E+00
          1   -1    0    0  502    0  0.00000000000E+00  0.00000000000E+00  0.63490903853E+03  0.63490903853E+03  0.00000000000E+00 0. -1.
         -1   -1    0    0    0  501 -0.00000000000E+00 -0.00000000000E+00 -0.36507506404E+02  0.36507506404E+02  0.00000000000E+00 0.  1.
         23    2    1    2    0    0  0.97212241366E+02  0.13014664818E+02  0.18949485057E+03  0.23184541495E+03  0.90688459416E+02 0.  0.
         23    2    1    2    0    0 -0.71081346952E+02  0.24107246122E+01  0.38558857841E+03  0.40130234092E+03  0.85478930450E+02 0.  0.
        -13    1    3    3    0    0  0.58989578856E+02 -0.58327465901E+01  0.29385085685E+02  0.66160974956E+02  0.00000000000E+00 0.  1.
         13    1    3    3    0    0  0.38222662510E+02  0.18847411408E+02  0.16010976488E+03  0.16568444000E+03  0.00000000000E+00 0. -1.
        -13    1    4    4    0    0 -0.25132370817E+02  0.42773476861E+02  0.15535049613E+03  0.16307968308E+03  0.00000000000E+00 0. -1.
         13    1    4    4    0    0 -0.45948976135E+02 -0.40362752249E+02  0.23023808228E+03  0.23822265784E+03  0.00000000000E+00 0.  1.
         21    1    1    2  502  501 -0.26130894414E+02 -0.15425389430E+02  0.23318103155E+02  0.38268789067E+02  0.00000000000E+00 0. -1.
<scales pt_clust_5="13000.00000" pt_clust_6="13000.00000" pt_clust_7="13000.00000" pt_clust_8="13000.00000" pt_clust_9="30.34413"></scales>
<clustering>
<clus scale="   30.344">  2  9  1 -1</clus>
<clus scale="   85.479">  7  8 -1 -1</clus>
<clus scale="   90.688">  5  6 -1 -1</clus>
<clus scale="  115.835">  1  7  2 -1</clus>
<clus scale="  115.835">  1  5  2 -1</clus>
</clustering>
</event>
<event>
 9    1  0.1713970E-005  0.8826094E+02  0.7546771E-02  0.1308139E+00
         -1   -1    0    0    0  501 -0.00000000000E+00  0.00000000000E+00  0.29832018746E+03  0.29832018746E+03  0.00000000000E+00 0.  1.
          1   -1    0    0  502    0  0.00000000000E+00 -0.00000000000E+00 -0.55728666275E+02  0.55728666275E+02  0.00000000000E+00 0. -1.
         23    2    1    2    0    0 -0.67732228829E+01  0.20752440423E+02  0.16812482595E+03  0.19028066585E+03  0.86395800616E+02 0.  0.
         23    2    1    2    0    0 -0.31110986268E+01  0.13880765609E+02  0.97436363054E+01  0.89699077393E+02  0.88026311113E+02 0.  0.
        -11    1    4    4    0    0  0.34346347060E+01 -0.34273840345E+02  0.20280580854E+02  0.39972425587E+02  0.00000000000E+00 0.  1.
         11    1    4    4    0    0 -0.65457333328E+01  0.48154605954E+02 -0.10536944548E+02  0.49726651806E+02  0.00000000000E+00 0. -1.
        -13    1    3    3    0    0 -0.26426662039E+01  0.46129080638E+02  0.44989432799E+02  0.64489726536E+02  0.00000000000E+00 0.  1.
         13    1    3    3    0    0 -0.41305566790E+01 -0.25376640215E+02  0.12313539315E+03  0.12579093931E+03  0.00000000000E+00 0. -1.
         21    1    1    2  502  501  0.98843215097E+01 -0.34633206032E+02  0.64723058936E+02  0.74069110497E+02  0.00000000000E+00 0.  1.
<scales pt_clust_5="13000.00000" pt_clust_6="13000.00000" pt_clust_7="13000.00000" pt_clust_8="13000.00000" pt_clust_9="36.01609"></scales>
<clustering>
<clus scale="   36.016">  1  9  2 -1</clus>
<clus scale="   86.396">  7  8 -1 -1</clus>
<clus scale="   86.635">  1  7  2 -1</clus>
<clus scale="   88.026">  5  6 -1 -1</clus>
<clus scale="   88.261">  2  5  1 -1</clus>
</clustering>
</event>
<event>
 9    1  0.1713970E-005  0.2495567E+03  0.7546771E-02  0.1113790E+00
          1   -1    0    0  502    0  0.00000000000E+00  0.00000000000E+00  0.10620791639E+04  0.10620791639E+04  0.00000000000E+00 0. -1.
         -1   -1    0    0    0  501 -0.00000000000E+00 -0.00000000000E+00 -0.97097351884E+02  0.97097351884E+02  0.00000000000E+00 0.  1.
         23    2    1    2    0    0  0.25499962539E+03 -0.92507822528E+02  0.33393245966E+03  0.43924888056E+03  0.88578695398E+02 0.  0.
         23    2    1    2    0    0 -0.20020921476E+03  0.80888309713E+02  0.61983966170E+03  0.66280794210E+03  0.92122275171E+02 0.  0.
        -11    1    3    3    0    0  0.87537341027E+02  0.10233574729E+02  0.88963501841E+02  0.12522785946E+03  0.00000000000E+00 0.  1.
         11    1    3    3    0    0  0.16746228436E+03 -0.10274139726E+03  0.24496895782E+03  0.31402102110E+03  0.00000000000E+00 0. -1.
        -11    1    4    4    0    0 -0.15872076142E+03  0.90160365799E+02  0.56283893503E+03  0.59169995644E+03  0.00000000000E+00 0.  1.
         11    1    4    4    0    0 -0.41488453339E+02 -0.92720560856E+01  0.57000726661E+02  0.71107985658E+02  0.00000000000E+00 0. -1.
         21    1    1    2  502  501 -0.54790410631E+02  0.11619512815E+02  0.11209690629E+02  0.57119693094E+02  0.00000000000E+00 0.  1.
<scales pt_clust_5="13000.00000" pt_clust_6="13000.00000" pt_clust_7="13000.00000" pt_clust_8="13000.00000" pt_clust_9="56.00895"></scales>
<clustering>
<clus scale="   56.009">  2  9  1 -1</clus>
<clus scale="   88.579">  5  6 -1 -1</clus>
<clus scale="   92.122">  7  8 -1 -1</clus>
<clus scale="  248.270">  2  5  1 -1</clus>
<clus scale="  249.557">  1  5  2 -1</clus>
</clustering>
</event>
<event>
 9    1  0.1713970E-005  0.1015244E+03  0.7546771E-02  0.1279783E+00
         -1   -1    0    0    0  501 -0.00000000000E+00  0.00000000000E+00  0.37926178825E+03  0.37926178825E+03  0.00000000000E+00 0.  1.
          1   -1    0    0  502    0  0.00000000000E+00 -0.00000000000E+00 -0.61286012220E+02  0.61286012220E+02  0.00000000000E+00 0. -1.
         23    2    1    2    0    0  0.17149237642E+02 -0.63402047315E+02  0.25972429004E+03  0.28138876741E+03  0.86075639010E+02 0.  0.
         23    2    1    2    0    0 -0.19562600300E+02  0.34409187502E+02  0.68398822141E+01  0.10008650779E+03  0.91672446992E+02 0.  0.
        -13    1    3    3    0    0 -0.10078427345E+02  0.18861769415E+02  0.59131396114E+02  0.62879750712E+02  0.00000000000E+00 0. -1.
         13    1    3    3    0    0  0.27227664987E+02 -0.82263816730E+02  0.20059289393E+03  0.21850901670E+03  0.00000000000E+00 0.  1.
        -13    1    4    4    0    0  0.30366201259E+02  0.29813386526E+01 -0.18713446406E+02  0.35793681501E+02  0.00000000000E+00 0.  1.
         13    1    4    4    0    0 -0.49928801559E+02  0.31427848849E+02  0.25553328620E+02  0.64292826287E+02  0.00000000000E+00 0. -1.
         21    1    1    2  502  501  0.24133626586E+01  0.28992859813E+02  0.51411603778E+02  0.59072525276E+02  0.00000000000E+00 0. -1.
<scales pt_clust_5="13000.00000" pt_clust_6="13000.00000" pt_clust_7="13000.00000" pt_clust_8="13000.00000" pt_clust_9="29.09313"></scales>
<clustering>
<clus scale="   29.093">  1  9  2 -1</clus>
<clus scale="   86.076">  5  6 -1 -1</clus>
<clus scale="   91.672">  7  8 -1 -1</clus>
<clus scale="   96.501">  1  5  2 -1</clus>
<clus scale="  101.524">  2  5  1 -1</clus>
</clustering>
</event>
<event>
 9    1  0.1713970E-005  0.9343351E+02  0.7546771E-02  0.1295919E+00
          2   -1    0    0  502    0  0.00000000000E+00  0.00000000000E+00  0.33940879079E+03  0.33940879079E+03  0.00000000000E+00 0. -1.
         -2   -1    0    0    0  501 -0.00000000000E+00 -0.00000000000E+00 -0.77017774103E+02  0.77017774103E+02  0.00000000000E+00 0.  1.
         23    2    1    2    0    0 -0.67345651240E+01 -0.44886134585E+02  0.84543270633E+00  0.10215308451E+03  0.91511848810E+02 0.  0.
         23    2    1    2    0    0  0.18809323250E+02  0.19402315348E+01  0.25278423763E+03  0.26881018131E+03  0.89451034898E+02 0.  0.
        -11    1    4    4    0    0  0.33547043607E+02 -0.35341227688E+02  0.10624436562E+03  0.11688572084E+03  0.00000000000E+00 0.  1.
         11    1    4    4    0    0 -0.14737720357E+02  0.37281459222E+02  0.14653987200E+03  0.15192446047E+03  0.00000000000E+00 0. -1.
        -13    1    3    3    0    0  0.66694999974E+01 -0.70114350271E+02  0.12072734465E+02  0.71458066456E+02  0.00000000000E+00 0.  1.
         13    1    3    3    0    0 -0.13404065121E+02  0.25228215686E+02 -0.11227301759E+02  0.30695018053E+02  0.00000000000E+00 0. -1.
         21    1    1    2  502  501 -0.12074758126E+02  0.42945903051E+02  0.87613463522E+01  0.45463299072E+02  0.00000000000E+00 0. -1.
<scales pt_clust_5="13000.00000" pt_clust_6="13000.00000" pt_clust_7="13000.00000" pt_clust_8="13000.00000" pt_clust_9="44.61110"></scales>
<clustering>
<clus scale="   44.611">  2  9  1 -1</clus>
<clus scale="   89.451">  5  6 -1 -1</clus>
<clus scale="   91.416">  1  5  2 -1</clus>
<clus scale="   91.512">  7  8 -1 -1</clus>
<clus scale="   91.416">  1  5  2 -1</clus>
</clustering>
</event>
<event>
 9    1  0.1713970E-005  0.1579329E+03  0.7546771E-02  0.1191382E+00
          1   -1    0    0  502    0  0.00000000000E+00  0.00000000000E+00  0.36177742030E+03  0.36177742030E+03  0.00000000000E+00 0. -1.
         -1   -1    0    0    0  501 -0.00000000000E+00 -0.00000000000E+00 -0.92244515693E+02  0.92244515693E+02  0.00000000000E+00 0.  1.
         23    2    1    2    0    0  0.72386186594E+02 -0.90123361112E+02  0.55788884314E+02  0.15489607211E+03  0.86708784535E+02 0.  0.
         23    2    1    2    0    0 -0.81530230897E+02  0.11262924536E+03  0.21909092093E+03  0.27425182684E+03  0.88773348667E+02 0.  0.
        -11    1    3    3    0    0 -0.15979863025E+02 -0.29550384460E+02 -0.10650169733E+01  0.33611240757E+02  0.00000000000E+00 0. -1.
         11    1    3    3    0    0  0.88366049619E+02 -0.60572976652E+02  0.56853901288E+02  0.12128483136E+03  0.00000000000E+00 0.  1.
        -13    1    4    4    0    0  0.54172152584E+01  0.64493396880E+02  0.72967442102E+02  0.97534568585E+02  0.00000000000E+00 0.  1.
         13    1    4    4    0    0 -0.86947446156E+02  0.48135848476E+02  0.14612347883E+03  0.17671725826E+03  0.00000000000E+00 0. -1.
         21    1    1    2  502  501  0.91440443033E+01 -0.22505884243E+02 -0.53469006401E+01  0.24874037032E+02  0.00000000000E+00 0.  1.
<scales pt_clust_5="13000.00000" pt_clust_6="13000.00000" pt_clust_7="13000.00000" pt_clust_8="13000.00000" pt_clust_9="24.29256"></scales>
<clustering>
<clus scale="   24.293">  2  9  1 -1</clus>
<clus scale="   86.709">  5  6 -1 -1</clus>
<clus scale="   88.773">  7  8 -1 -1</clus>
<clus scale="  156.782">  2  5  1 -1</clus>
<clus scale="  157.933">  1  5  2 -1</clus>
</clustering>
</event>
<event>
 9    1  0.1713970E-005  0.3642330E+03  0.7546771E-02  0.1056927E+00
         -2   -1    0    0    0  501 -0.00000000000E+00  0.00000000000E+00  0.16935393138E+03  0.16935393138E+03  0.00000000000E+00 0.  1.
          2   -1    0    0  502    0  0.00000000000E+00 -0.00000000000E+00 -0.98450792837E+03  0.98450792837E+03  0.00000000000E+00 0. -1.
         23    2    1    2    0    0 -0.31209024566E+03  0.79705934016E+02 -0.23341885643E+03  0.40813027303E+03  0.91283075509E+02 0.  0.
         23    2    1    2    0    0  0.34696041646E+03 -0.14638754139E+03 -0.51920828852E+03  0.64789512727E+03  0.91542373831E+02 0.  0.
        -13    1    3    3    0    0 -0.29419278253E+03  0.47907915646E+02 -0.21260925021E+03  0.36612464401E+03  0.00000000000E+00 0. -1.
         13    1    3    3    0    0 -0.17897463131E+02  0.31798018370E+02 -0.20809606221E+02  0.42005629026E+02  0.00000000000E+00 0.  1.
        -13    1    4    4    0    0  0.50249159534E+02  0.10580113974E+02 -0.57994687694E+02  0.77461607564E+02  0.00000000000E+00 0. -1.
         13    1    4    4    0    0  0.29671125692E+03 -0.15696765536E+03 -0.46121360082E+03  0.57043351970E+03  0.00000000000E+00 0.  1.
         21    1    1    2  502  501 -0.34870170797E+02  0.66681607369E+02 -0.62526852033E+02  0.97836459451E+02  0.00000000000E+00 0. -1.
<scales pt_clust_5="13000.00000" pt_clust_6="13000.00000" pt_clust_7="13000.00000" pt_clust_8="13000.00000" pt_clust_9="75.24869"></scales>
<clustering>
<clus scale="   75.249">  1  9  2 -1</clus>
<clus scale="   91.283">  5  6 -1 -1</clus>
<clus scale="   91.542">  7  8 -1 -1</clus>
<clus scale="  364.168">  1  5  2 -1</clus>
<clus scale="  364.233">  2  5  1 -1</clus>
</clustering>
</event>
<event>
 9    1  0.1713970E-005  0.9564789E+02  0.7546771E-02  0.1290074E+00
          1   -1    0    0  502    0  0.00000000000E+00  0.00000000000E+00  0.60796902362E+03  0.60796902362E+03  0.00000000000E+00 0. -1.
         -1   -1    0    0    0  501 -0.00000000000E+00 -0.00000000000E+00 -0.23461305139E+02  0.23461305139E+02  0.00000000000E+00 0.  1.
         23    2    1    2    0    0 -0.22013943943E+02  0.43320869778E+02  0.22403061574E+03  0.24644293967E+03  0.90460456773E+02 0.  0.
         23    2    1    2    0    0  0.19461788737E+02 -0.62465774326E+01  0.29805003555E+03  0.31233647466E+03  0.91117883862E+02 0.  0.
        -11    1    4    4    0    0 -0.32571875896E+02 -0.18939178663E+01  0.56830916435E+02  0.65530657612E+02  0.00000000000E+00 0.  1.
         11    1    4    4    0    0  0.52033664633E+02 -0.43526595663E+01  0.24121911912E+03  0.24680581705E+03  0.00000000000E+00 0. -1.
        -11    1    3    3    0    0  0.18089293197E+02 -0.20175125776E+02  0.70515719999E+02  0.75542868594E+02  0.00000000000E+00 0. -1.
         11    1    3    3    0    0 -0.40103237140E+02  0.63495995554E+02  0.15351489574E+03  0.17090007108E+03  0.00000000000E+00 0.  1.
         21    1    1    2  502  501  0.25521552060E+01 -0.37074292346E+02  0.62427067186E+02  0.72650914424E+02  0.00000000000E+00 0.  1.
<scales pt_clust_5="13000.00000" pt_clust_6="13000.00000" pt_clust_7="13000.00000" pt_clust_8="13000.00000" pt_clust_9="37.16203"></scales>
<clustering>
<clus scale="   37.162">  2  9  1 -1</clus>
<clus scale="   90.460">  7  8 -1 -1</clus>
<clus scale="   91.118">  5  6 -1 -1</clus>
<clus scale="   95.022">  2  7  1 -1</clus>
<clus scale="   95.648">  1  5  2 -1</clus>
</clustering>
</event>
<event>
 9    1  0.1713970E-005  0.2081805E+03  0.7546771E-02  0.1143677E+00
          1   -1    0    0  502    0  0.00000000000E+00  0.00000000000E+00  0.39957714570E+03  0.39957714570E+03  0.00000000000E+00 0. -1.
         -1   -1    0    0    0  501 -0.00000000000E+00 -0.00000000000E+00 -0.13754850815E+03  0.13754850815E+03  0.00000000000E+00 0.  1.
         23    2    1    2    0    0  0.17494341076E+03 -0.26162192946E+02  0.94699977825E+02  0.22322114448E+03  0.97826050899E+02 0.  0.
         23    2    1    2    0    0 -0.18066549883E+03  0.69171507598E+02  0.10522711089E+03  0.23814735917E+03  0.90646014164E+02 0.  0.
        -11    1    3    3    0    0  0.66007363249E+02 -0.51901191409E+02  0.68240012990E+02  0.10820076269E+03  0.00000000000E+00 0.  1.
         11    1    3    3    0    0  0.10893604751E+03  0.25738998463E+02  0.26459964835E+02  0.11502038179E+03  0.00000000000E+00 0. -1.
        -11    1    4    4    0    0 -0.77555661192E+02  0.29660629861E+02  0.96611758415E+02  0.12739099423E+03  0.00000000000E+00 0.  1.
         11    1    4    4    0    0 -0.10310983763E+03  0.39510877738E+02  0.86153524747E+01  0.11075636494E+03  0.00000000000E+00 0. -1.
         21    1    1    2  502  501  0.57220880697E+01 -0.43009314653E+02  0.62101548836E+02  0.75757150201E+02  0.00000000000E+00 0. -1.
<scales pt_clust_5="13000.00000" pt_clust_6="13000.00000" pt_clust_7="13000.00000" pt_clust_8="13000.00000" pt_clust_9="43.38829"></scales>
<clustering>
<clus scale="   43.388">  1  9  2 -1</clus>
<clus scale="   90.646">  7  8 -1 -1</clus>
<clus scale="   97.826">  5  6 -1 -1</clus>
<clus scale="  204.905">  1  7  2 -1</clus>
<clus scale="   43.388">  1  5  2 -1</clus>
</clustering>
</event>
<event>
 9    1  0.1713970E-005  0.9319509E+02  0.7546771E-02  0.1295835E+00
         -2   -1    0    0    0  501 -0.00000000000E+00  0.00000000000E+00  0.28439691007E+02  0.28439691007E+02  0.00000000000E+00 0.  1.
          2   -1    0    0  502    0  0.00000000000E+00 -0.00000000000E+00 -0.42132187210E+03  0.42132187210E+03  0.00000000000E+00 0. -1.
         23    2    1    2    0    0  0.11011834426E+02  0.19153645272E+02 -0.11832712869E+03  0.15099910245E+03  0.91166314687E+02 0.  0.
         23    2    1    2    0    0  0.10585789336E+02 -0.11001153889E+02 -0.23637296456E+03  0.25414416507E+03  0.92108598647E+02 0.  0.
        -11    1    3    3    0    0  0.13721709681E+02  0.45389985158E+02 -0.24181620422E+02  0.53228627969E+02  0.00000000000E+00 0. -1.
         11    1    3    3    0    0 -0.27098752544E+01 -0.26236339886E+02 -0.94145508263E+02  0.97770474483E+02  0.00000000000E+00 0.  1.
        -13    1    4    4    0    0 -0.22402260972E+02  0.12580680633E+02 -0.16436339801E+02  0.30500624385E+02  0.00000000000E+00 0. -1.
         13    1    4    4    0    0  0.32988050309E+02 -0.23581834521E+02 -0.21993662476E+03  0.22364354069E+03  0.00000000000E+00 0.  1.
         21    1    1    2  502  501 -0.21597623763E+02 -0.81524913832E+01 -0.38182087847E+02  0.44618295578E+02  0.00000000000E+00 0. -1.
<scales pt_clust_5="13000.00000" pt_clust_6="13000.00000" pt_clust_7="13000.00000" pt_clust_8="13000.00000" pt_clust_9="23.08507"></scales>
<clustering>
<clus scale="   23.085">  1  9  2 -1</clus>
<clus scale="   91.166">  5  6 -1 -1</clus>
<clus scale="   92.109">  7  8 -1 -1</clus>
<clus scale="   92.264">  1  5  2 -1</clus>
<clus scale="   93.195">  2  5  1 -1</clus>
</clustering>
</event>
<event>
 9    1  0.1713970E-005  0.2308839E+03  0.7546771E-02  0.1126062E+00
         -2   -1    0    0    0  501 -0.00000000000E+00  0.00000000000E+00  0.53968046203E+03  0.53968046203E+03  0.00000000000E+00 0.  1.
          2   -1    0    0  502    0  0.00000000000E+00 -0.00000000000E+00 -0.12494630708E+03  0.12494630708E+03  0.00000000000E+00 0. -1.
         23    2    1    2    0    0 -0.11307994968E+03 -0.16518635106E+03  0.23310646099E+03  0.32131360729E+03  0.93969178348E+02 0.  0.
         23    2    1    2    0    0  0.91580423726E+02  0.19884058038E+03  0.11294786844E+03  0.26386660619E+03  0.94571742409E+02 0.  0.
        -11    1    4    4    0    0  0.98865705973E+02  0.16257439715E+03  0.60453402140E+02  0.19964838155E+03  0.00000000000E+00 0. -1.
         11    1    4    4    0    0 -0.72852822471E+01  0.36266183229E+02  0.52494466303E+02  0.64218224640E+02  0.00000000000E+00 0.  1.
        -13    1    3    3    0    0 -0.49558476869E+02 -0.96226530072E+02  0.18877421202E+03  0.21760351753E+03  0.00000000000E+00 0.  1.
         13    1    3    3    0    0 -0.63521472807E+02 -0.68959820992E+02  0.44332248967E+02  0.10371008976E+03  0.00000000000E+00 0. -1.
         21    1    1    2  502  501  0.21499525949E+02 -0.33654229313E+02  0.68679825526E+02  0.79446555627E+02  0.00000000000E+00 0.  1.
<scales pt_clust_5="13000.00000" pt_clust_6="13000.00000" pt_clust_7="13000.00000" pt_clust_8="13000.00000" pt_clust_9="39.93541"></scales>
<clustering>
<clus scale="   39.935">  1  9  2 -1</clus>
<clus scale="   93.969">  7  8 -1 -1</clus>
<clus scale="   94.572">  5  6 -1 -1</clus>
<clus scale="  230.638">  1  7  2 -1</clus>
<clus scale="  230.884">  2  5  1 -1</clus>
</clustering>
</event>
<event>
 9    1  0.1713970E-005  0.1027277E+03  0.7546771E-02  0.1275706E+00
         -1   -1    0    0    0  501 -0.00000000000E+00  0.00000000000E+00  0.19466393285E+03  0.19466393285E+03  0.00000000000E+00 0.  1.
          1   -1    0    0  502    0  0.00000000000E+00 -0.00000000000E+00 -0.82499650146E+02  0.82499650146E+02  0.00000000000E+00 0. -1.
         23    2    1    2    0    0 -0.59964467060E+02 -0.16355687612E+02  0.71825453010E+02  0.13159915271E+03  0.91083453312E+02 0.  0.
         23    2    1    2    0    0  0.25616328698E+02  0.35060701513E+02  0.17791658488E+02  0.10041969545E+03  0.88781321437E+02 0.  0.
        -11    1    4    4    0    0  0.27702073665E+02 -0.16177467622E+02  0.33896178150E+02  0.46669757201E+02  0.00000000000E+00 0.  1.
         11    1    4    4    0    0 -0.20857449673E+01  0.51238169135E+02 -0.16104519662E+02  0.53749938250E+02  0.00000000000E+00 0. -1.
        -11    1    3    3    0    0 -0.69629640435E+02 -0.38286245511E+02  0.33147542522E+02  0.86098101011E+02  0.00000000000E+00 0. -1.
         11    1    3    3    0    0  0.96651733753E+01  0.21930557899E+02  0.38677910489E+02  0.45501051701E+02  0.00000000000E+00 0.  1.
         21    1    1    2  502  501  0.34348138362E+02 -0.18705013901E+02  0.22547171209E+02  0.45144734837E+02  0.00000000000E+00 0.  1.
<scales pt_clust_5="13000.00000" pt_clust_6="13000.00000" pt_clust_7="13000.00000" pt_clust_8="13000.00000" pt_clust_9="39.11102"></scales>
<clustering>
<clus scale="   39.111">  1  9  2 -1</clus>
<clus scale="   88.781">  5  6 -1 -1</clus>
<clus scale="   91.083">  7  8 -1 -1</clus>
<clus scale="  100.692">  2  5  1 -1</clus>
<clus scale="  100.692">  2  5  1 -1</clus>
</clustering>
</event>
<event>
 9    1  0.1713970E-005  0.1624091E+03  0.7546771E-02  0.1186357E+00
         -2   -1    0    0    0  501 -0.00000000000E+00  0.00000000000E+00  0.44466582355E+03  0.44466582355E+03  0.00000000000E+00 0.  1.
          2   -1    0    0  502    0  0.00000000000E+00 -0.00000000000E+00 -0.15178651361E+03  0.15178651361E+03  0.00000000000E+00 0. -1.
         23    2    1    2    0    0  0.13340117314E+03 -0.83315813769E+01  0.24095828711E+03  0.29050425406E+03  0.92013788409E+02 0.  0.
         23    2    1    2    0    0 -0.13356708288E+03 -0.12110275635E+02 -0.74600908746E+02  0.17778531076E+03  0.89752419084E+02 0.  0.
        -13    1    4    4    0    0 -0.19104300282E+02  0.32902602548E+02 -0.12845223174E+02  0.40156634596E+02  0.00000000000E+00 0.  1.
         13    1    4    4    0    0 -0.11446278259E+03 -0.45012878183E+02 -0.61755685572E+02  0.13762867616E+03  0.00000000000E+00 0. -1.
        -13    1    3    3    0    0  0.14995564249E+02 -0.37239642494E+02  0.53032718593E+02  0.66514112499E+02  0.00000000000E+00 0. -1.
         13    1    3    3    0    0  0.11840560890E+03  0.28908061117E+02  0.18792556851E+03  0.22399014156E+03  0.00000000000E+00 0.  1.
         21    1    1    2  502  501  0.16590973216E+00  0.20441857012E+02  0.12652193158E+03  0.12816277234E+03  0.00000000000E+00 0.  1.
<scales pt_clust_5="13000.00000" pt_clust_6="13000.00000" pt_clust_7="13000.00000" pt_clust_8="13000.00000" pt_clust_9="20.44253"></scales>
<clustering>
<clus scale="   20.443">  1  9  2 -1</clus>
<clus scale="   89.752">  5  6 -1 -1</clus>
<clus scale="   92.014">  7  8 -1 -1</clus>
<clus scale="  161.139">  2  5  1 -1</clus>
<clus scale="  161.139">  2  5  1 -1</clus>
</clustering>
</event>
<event>
 9    1  0.1713970E-005  0.9600062E+02  0.7546771E-02  0.1290157E+00
          1   -1    0    0  502    0  0.00000000000E+00  0.00000000000E+00  0.17282612348E+03  0.17282612348E+03  0.00000000000E+00 0. -1.
         -1   -1    0    0    0  501 -0.00000000000E+00 -0.00000000000E+00 -0.13097862661E+03  0.13097862661E+03  0.00000000000E+00 0.  1.
         23    2    1    2    0    0 -0.12709521577E+02  0.35386323786E+02  0.32041617931E+01  0.97067433010E+02  0.89432075054E+02 0.  0.
         23    2    1    2    0    0  0.20607734439E+02 -0.16182266229E+02  0.10225059393E+03  0.13982647362E+03  0.91704494481E+02 0.  0.
        -11    1    4    4    0    0  0.22551224217E+02  0.14863220450E+02 -0.55969456157E+01  0.27582582113E+02  0.00000000000E+00 0.  1.
         11    1    4    4    0    0 -0.19434897782E+01 -0.31045486678E+02  0.10784753954E+03  0.11224389151E+03  0.00000000000E+00 0. -1.
        -11    1    3    3    0    0 -0.39995777999E+02 -0.88152832050E+00  0.24523232545E+02  0.46923643128E+02  0.00000000000E+00 0.  1.
         11    1    3    3    0    0  0.27286256422E+02  0.36267852106E+02 -0.21319070752E+02  0.50143789882E+02  0.00000000000E+00 0. -1.
         21    1    1    2  502  501 -0.78982128616E+01 -0.19204057557E+02 -0.63607258851E+02  0.66910843453E+02  0.00000000000E+00 0.  1.
<scales pt_clust_5="13000.00000" pt_clust_6="13000.00000" pt_clust_7="13000.00000" pt_clust_8="13000.00000" pt_clust_9="20.76482"></scales>
<clustering>
<clus scale="   20.765">  2  9  1 -1</clus>
<clus scale="   89.432">  7  8 -1 -1</clus>
<clus scale="   91.704">  5  6 -1 -1</clus>
<clus scale="   93.832">  2  7  1 -1</clus>
<clus scale="   96.001">  1  5  2 -1</clus>
</clustering>
</event>
<event>
 9    1  0.1713970E-005  0.1600529E+03  0.7546771E-02  0.1190043E+00
         -2   -1    0    0    0  501 -0.00000000000E+00  0.00000000000E+00  0.62668091046E+03  0.62668091046E+03  0.00000000000E+00 0.  1.
          2   -1    0    0  502    0  0.00000000000E+00 -0.00000000000E+00 -0.86396614424E+02  0.86396614424E+02  0.00000000000E+00 0. -1.
         23    2    1    2    0    0  0.65738920742E+01 -0.10317013488E+03  0.36428770400E+03  0.38945168160E+03  0.90993341649E+02 0.  0.
         23    2    1    2    0    0  0.25045816289E+01  0.13124010740E+03  0.20967320765E+02  0.16581450975E+03  0.99119041480E+02 0.  0.
        -11    1    4    4    0    0  0.58384304120E+01  0.95924190524E+02  0.59824147314E+02  0.11320099911E+03  0.00000000000E+00 0.  1.
         11    1    4    4    0    0 -0.33338487831E+01  0.35315916878E+02 -0.38856826549E+02  0.52613510642E+02  0.00000000000E+00 0. -1.
        -13    1    3    3    0    0 -0.16184560613E+02 -0.16361126070E+02  0.12081749535E+02  0.25992212687E+02  0.00000000000E+00 0. -1.
         13    1    3    3    0    0  0.22758452687E+02 -0.86809008810E+02  0.35220595447E+03  0.36345946891E+03  0.00000000000E+00 0.  1.
         21    1    1    2  502  501 -0.90784737031E+01 -0.28069972521E+02  0.15502927127E+03  0.15781133354E+03  0.00000000000E+00 0. -1.
<scales pt_clust_5="13000.00000" pt_clust_6="13000.00000" pt_clust_7="13000.00000" pt_clust_8="13000.00000" pt_clust_9="29.50156"></scales>
<clustering>
<clus scale="   29.502">  1  9  2 -1</clus>
<clus scale="   90.993">  7  8 -1 -1</clus>
<clus scale="   99.119">  5  6 -1 -1</clus>
<clus scale="  155.152">  1  7  2 -1</clus>
<clus scale="  160.053">  2  5  1 -1</clus>
</clustering>
</event>
<event>
 9    1  0.1713970E-005  0.9319128E+02  0.7546771E-02  0.1298743E+00
         -1   -1    0    0    0  501 -0.00000000000E+00  0.00000000000E+00  0.35924717205E+02  0.35924717205E+02  0.00000000000E+00 0.  1.
          1   -1    0    0  502    0  0.00000000000E+00 -0.00000000000E+00 -0.33557197334E+03  0.33557197334E+03  0.00000000000E+00 0. -1.
         23    2    1    2    0    0 -0.18855239563E+02  0.32392976377E+02 -0.99249113526E+02  0.13421335302E+03  0.82207132386E+02 0.  0.
         23    2    1    2    0    0 -0.13232170111E+02 -0.27920112901E+02 -0.16172154375E+03  0.18683051137E+03  0.88301524551E+02 0.  0.
        -11    1    4    4    0    0 -0.11579534657E+02 -0.55402841569E+02 -0.64628375359E+02  0.85909180990E+02  0.00000000000E+00 0.  1.
         11    1    4    4    0    0 -0.16526354539E+01  0.27482728668E+02 -0.97093168387E+02  0.10092133038E+03  0.00000000000E+00 0. -1.
        -13    1    3    3    0    0  0.21877352330E+02 -0.15802962442E+02 -0.25204769677E+02  0.36927396082E+02  0.00000000000E+00 0.  1.
         13    1    3    3    0    0 -0.40732591893E+02  0.48195938819E+02 -0.74044343849E+02  0.97285956936E+02  0.00000000000E+00 0. -1.
         21    1    1    2  502  501  0.32087409674E+02 -0.44728634759E+01 -0.38676598860E+02  0.50452826151E+02  0.00000000000E+00 0.  1.
<scales pt_clust_5="13000.00000" pt_clust_6="13000.00000" pt_clust_7="13000.00000" pt_clust_8="13000.00000" pt_clust_9="32.39766"></scales>
<clustering>
<clus scale="   32.398">  1  9  2 -1</clus>
<clus scale="   82.207">  7  8 -1 -1</clus>
<clus scale="   87.438">  1  7  2 -1</clus>
<clus scale="   88.302">  5  6 -1 -1</clus>
<clus scale="   93.191">  2  5  1 -1</clus>
</clustering>
</event>
<event>
 9    1  0.1713970E-005  0.9321253E+02  0.7546771E-02  0.1297100E+00
         -2   -1    0    0    0  501 -0.00000000000E+00  0.00000000000E+00  0.43982961560E+03  0.43982961560E+03  0.00000000000E+00 0.  1.
          2   -1    0    0  502    0  0.00000000000E+00 -0.00000000000E+00 -0.26966081608E+02  0.26966081608E+02  0.00000000000E+00 0. -1.
         23    2    1    2    0    0 -0.82809724274E+01  0.52542238240E+01  0.16441697985E+03  0.18766671413E+03  0.89942598130E+02 0.  0.
         23    2    1    2    0    0 -0.12915926855E+02 -0.25888264085E+01  0.14025628608E+03  0.16884957890E+03  0.93085075710E+02 0.  0.
        -13    1    4    4    0    0  0.14438307611E+02 -0.35237628505E+02  0.11053708164E+03  0.11691279488E+03  0.00000000000E+00 0. -1.
         13    1    4    4    0    0 -0.27354234466E+02  0.32648802097E+02  0.29719204445E+02  0.51936784021E+02  0.00000000000E+00 0.  1.
        -13    1    3    3    0    0  0.14680779057E+02  0.19830193573E+02  0.40420870071E+01  0.25002006284E+02  0.00000000000E+00 0. -1.
         13    1    3    3    0    0 -0.22961751484E+02 -0.14575969749E+02  0.16037489284E+03  0.16266470785E+03  0.00000000000E+00 0.  1.
         21    1    1    2  502  501  0.21196899282E+02 -0.26653974155E+01  0.10819026807E+03  0.11027940418E+03  0.00000000000E+00 0.  1.
<scales pt_clust_5="13000.00000" pt_clust_6="13000.00000" pt_clust_7="13000.00000" pt_clust_8="13000.00000" pt_clust_9="21.36382"></scales>
<clustering>
<clus scale="   21.364">  1  9  2 -1</clus>
<clus scale="   89.943">  7  8 -1 -1</clus>
<clus scale="   90.075">  1  7  2 -1</clus>
<clus scale="   93.085">  5  6 -1 -1</clus>
<clus scale="   93.213">  2  5  1 -1</clus>
</clustering>
</event>
<event>
 9    1  0.1713970E-005  0.9480746E+02  0.7546771E-02  0.1291806E+00
          4   -1    0    0  502    0  0.00000000000E+00  0.00000000000E+00  0.10334866236E+03  0.10334866236E+03  0.00000000000E+00 0. -1.
         -4   -1    0    0    0  501 -0.00000000000E+00 -0.00000000000E+00 -0.11985381221E+03  0.11985381221E+03  0.00000000000E+00 0.  1.
         23    2    1    2    0    0 -0.11029430153E+02  0.36231226624E+01 -0.41115675389E+02  0.10080533888E+03  0.91304119489E+02 0.  0.
         23    2    1    2    0    0  0.28855634909E+02 -0.15412726328E+02  0.28303823481E+02  0.10070822654E+03  0.90944162377E+02 0.  0.
        -11    1    4    4    0    0  0.54117655252E+02  0.71852162122E+01  0.36709443014E+02  0.65787013524E+02  0.00000000000E+00 0. -1.
         11    1    4    4    0    0 -0.25262020343E+02 -0.22597942540E+02 -0.84056195331E+01  0.34921213017E+02  0.00000000000E+00 0.  1.
        -13    1    3    3    0    0 -0.29782111802E+02  0.40732692682E+02 -0.22820232695E+02  0.55379503941E+02  0.00000000000E+00 0.  1.
         13    1    3    3    0    0  0.18752681649E+02 -0.37109570020E+02 -0.18295442694E+02  0.45425834934E+02  0.00000000000E+00 0. -1.
         21    1    1    2  502  501 -0.17826204756E+02  0.11789603666E+02 -0.36932979461E+01  0.21688909154E+02  0.00000000000E+00 0. -1.
<scales pt_clust_5="13000.00000" pt_clust_6="13000.00000" pt_clust_7="13000.00000" pt_clust_8="13000.00000" pt_clust_9="21.37214"></scales>
<clustering>
<clus scale="   21.372">  2  9  1 -1</clus>
<clus scale="   90.944">  5  6 -1 -1</clus>
<clus scale="   91.304">  7  8 -1 -1</clus>
<clus scale="   94.461">  1  5  2 -1</clus>
<clus scale="   94.461">  1  5  2 -1</clus>
</clustering>
</event>
<event>
 9    1  0.1713970E-005  0.1689632E+03  0.7546771E-02  0.1182228E+00
          1   -1    0    0  502    0  0.00000000000E+00  0.00000000000E+00  0.28833585903E+03  0.28833585903E+03  0.00000000000E+00 0. -1.
         -1   -1    0    0    0  501 -0.00000000000E+00 -0.00000000000E+00 -0.12145877344E+03  0.12145877344E+03  0.00000000000E+00 0.  1.
         23    2    1    2    0    0 -0.32044438465E+02 -0.14168263787E+03  0.10588373111E+03  0.21041690533E+03  0.10937592799E+03 0.  0.
         23    2    1    2    0    0  0.20564508870E+02  0.11311520376E+03  0.76786529409E+02  0.16477553864E+03  0.89648528642E+02 0.  0.
        -13    1    4    4    0    0  0.37472596790E+02  0.67499961511E+01  0.21058983143E+02  0.43511363220E+02  0.00000000000E+00 0. -1.
         13    1    4    4    0    0 -0.16908087920E+02  0.10636520761E+03  0.55727546266E+02  0.12126417542E+03  0.00000000000E+00 0.  1.
        -13    1    3    3    0    0 -0.17084934301E+02  0.14314912895E+02  0.19572157586E+01  0.22375039772E+02  0.00000000000E+00 0.  1.
         13    1    3    3    0    0 -0.14959504164E+02 -0.15599755077E+03  0.10392651535E+03  0.18804186556E+03  0.00000000000E+00 0. -1.
         21    1    1    2  502  501  0.11479929595E+02  0.28567434112E+02 -0.15793174930E+02  0.34602188509E+02  0.00000000000E+00 0.  1.
<scales pt_clust_5="13000.00000" pt_clust_6="13000.00000" pt_clust_7="13000.00000" pt_clust_8="13000.00000" pt_clust_9="30.78777"></scales>
<clustering>
<clus scale="   30.788">  2  9  1 -1</clus>
<clus scale="   89.649">  5  6 -1 -1</clus>
<clus scale="  109.376">  7  8 -1 -1</clus>
<clus scale="  156.915">  1  5  2 -1</clus>
<clus scale="  156.915">  1  5  2 -1</clus>
</clustering>
</event>
<event>
 9    1  0.1713970E-005  0.1034207E+03  0.7546771E-02  0.1276985E+00
         -3   -1    0    0    0  501 -0.00000000000E+00  0.00000000000E+00  0.27272724838E+02  0.27272724838E+02  0.00000000000E+00 0.  1.
          3   -1    0    0  502    0  0.00000000000E+00 -0.00000000000E+00 -0.65035928358E+03  0.65035928358E+03  0.00000000000E+00 0. -1.
         23    2    1    2    0    0 -0.15114116128E+02 -0.51297430669E+01 -0.12199623728E+03  0.14976631698E+03  0.85393893359E+02 0.  0.
         23    2    1    2    0    0  0.59439386462E+02 -0.12728292995E+02 -0.41167486589E+03  0.42648145825E+03  0.93355176185E+02 0.  0.
        -11    1    4    4    0    0 -0.14990286027E+02 -0.31196679407E+02 -0.13666348920E+03  0.14097819251E+03  0.00000000000E+00 0. -1.
         11    1    4    4    0    0  0.74429672489E+02  0.18468386412E+02 -0.27501137669E+03  0.28550326574E+03  0.00000000000E+00 0.  1.
        -13    1    3    3    0    0  0.35408362552E+02  0.32709327806E+01 -0.46528854560E+02  0.58560954966E+02  0.00000000000E+00 0.  1.
         13    1    3    3    0    0 -0.50522478680E+02 -0.84006758475E+01 -0.75467382717E+02  0.91205362018E+02  0.00000000000E+00 0. -1.
         21    1    1    2  502  501 -0.44325270334E+02  0.17858036062E+02 -0.89415455573E+02  0.10138423318E+03  0.00000000000E+00 0. -1.
<scales pt_clust_5="13000.00000" pt_clust_6="13000.00000" pt_clust_7="13000.00000" pt_clust_8="13000.00000" pt_clust_9="47.78744"></scales>
<clustering>
<clus scale="   47.787">  1  9  2 -1</clus>
<clus scale="   85.394">  7  8 -1 -1</clus>
<clus scale="   93.355">  5  6 -1 -1</clus>
<clus scale="   96.295">  1  7  2 -1</clus>
<clus scale="  103.421">  2  5  1 -1</clus>
</clustering>
</event>
<event>
 9    1  0.1755909E-005  0.3229285E+03  0.7546771E-02  0.1074373E+00
         -1   -1    0    0    0  501 -0.00000000000E+00  0.00000000000E+00  0.10741967179E+03  0.10741967179E+03  0.00000000000E+00 0.  1.
          1   -1    0    0  502    0  0.00000000000E+00 -0.00000000000E+00 -0.13099221071E+04  0.13099221071E+04  0.00000000000E+00 0. -1.
         23    2    1    2    0    0 -0.14296846486E+03  0.29110125283E+03 -0.31435732074E+03  0.46070863596E+03  0.90840523962E+02 0.  0.
         23    2    1    2    0    0  0.12656473190E+03 -0.27596638860E+03 -0.87480347748E+03  0.93063033826E+03  0.92820381806E+02 0.  0.
        -11    1    3    3    0    0 -0.50043408623E+02  0.33194474897E+02 -0.80128936299E+02  0.10013422164E+03  0.00000000000E+00 0.  1.
         11    1    3    3    0    0 -0.92925056235E+02  0.25790677794E+03 -0.23422838444E+03  0.36057441432E+03  0.00000000000E+00 0. -1.
        -13    1    4    4    0    0  0.12821695410E+03 -0.22814503744E+03 -0.80103381129E+03  0.84270096254E+03  0.00000000000E+00 0.  1.
         13    1    4    4    0    0 -0.16522222023E+01 -0.47821351166E+02 -0.73769666184E+02  0.87929375720E+02  0.00000000000E+00 0. -1.
         21    1    1    2  502  501  0.16403732958E+02 -0.15134864233E+02 -0.13341637060E+02  0.26002804651E+02  0.00000000000E+00 0.  1.
<scales pt_clust_5="13000.00000" pt_clust_6="13000.00000" pt_clust_7="13000.00000" pt_clust_8="13000.00000" pt_clust_9="22.31920"></scales>
<clustering>
<clus scale="   22.319">  1  9  2 -1</clus>
<clus scale="   90.841">  5  6 -1 -1</clus>
<clus scale="   92.820">  7  8 -1 -1</clus>
<clus scale="  322.365">  1  5  2 -1</clus>
<clus scale="  322.929">  2  5  1 -1</clus>
</clustering>
</event>
<event>
 9    1  0.1728320E-005  0.1000686E+03  0.7546771E-02  0.1282234E+00
          1   -1    0    0  502    0  0.00000000000E+00  0.00000000000E+00  0.39211880967E+03  0.39211880967E+03  0.00000000000E+00 0. -1.
         -1   -1    0    0    0  501 -0.00000000000E+00 -0.00000000000E+00 -0.13348192974E+03  0.13348192974E+03  0.00000000000E+00 0.  1.
         23    2    1    2    0    0  0.10625071719E+01 -0.86395795933E+01  0.15127072741E+01  0.90695821225E+02  0.90264458384E+02 0.  0.
         23    2    1    2    0    0  0.37944292585E+02  0.79392475351E+01  0.33370626463E+03  0.34895820386E+03  0.94388325534E+02 0.  0.
        -11    1    4    4    0    0  0.10014591104E+02 -0.37414267650E+02  0.70712075806E+02  0.80624544176E+02  0.00000000000E+00 0.  1.
         11    1    4    4    0    0  0.27929701482E+02  0.45353515185E+02  0.26299418882E+03  0.26833365968E+03  0.00000000000E+00 0. -1.
        -13    1    3    3    0    0  0.50601796963E+01  0.31894191583E+02  0.27470831913E+02  0.42396833387E+02  0.00000000000E+00 0. -1.
         13    1    3    3    0    0 -0.39976725244E+01 -0.40533771177E+02 -0.25958124638E+02  0.48298987838E+02  0.00000000000E+00 0.  1.
         21    1    1    2  502  501 -0.39006799757E+02  0.70033205820E+00 -0.76582091971E+02  0.85946714323E+02  0.00000000000E+00 0. -1.
<scales pt_clust_5="13000.00000" pt_clust_6="13000.00000" pt_clust_7="13000.00000" pt_clust_8="13000.00000" pt_clust_9="39.01309"></scales>
<clustering>
<clus scale="   39.013">  2  9  1 -1</clus>
<clus scale="   90.264">  7  8 -1 -1</clus>
<clus scale="   94.388">  5  6 -1 -1</clus>
<clus scale="   96.189">  2  7  1 -1</clus>
<clus scale="  100.069">  1  5  2 -1</clus>
</clustering>
</event>
<event>
 9    1  0.1713970E-005  0.1023500E+03  0.7546771E-02  0.1276230E+00
         -1   -1    0    0    0  501 -0.00000000000E+00  0.00000000000E+00  0.36551531118E+02  0.36551531118E+02  0.00000000000E+00 0.  1.
          1   -1    0    0  502    0  0.00000000000E+00 -0.00000000000E+00 -0.61859534404E+03  0.61859534404E+03  0.00000000000E+00 0. -1.
         23    2    1    2    0    0  0.42789046591E+02 -0.18877801802E+02 -0.11198709241E+03  0.15195721907E+03  0.91447327212E+02 0.  0.
         23    2    1    2    0    0 -0.45510911826E+02 -0.18070457196E+02 -0.44919024893E+03  0.46066916656E+03  0.89701821398E+02 0.  0.
        -11    1    4    4    0    0  0.34096039617E+01  0.31775843156E+02 -0.12282814662E+03  0.12691762371E+03  0.00000000000E+00 0. -1.
         11    1    4    4    0    0 -0.48920515787E+02 -0.49846300352E+02 -0.32636210231E+03  0.33375154284E+03  0.00000000000E+00 0.  1.
        -13    1    3    3    0    0  0.62228440931E+02 -0.26547198094E+02 -0.43692107289E+02  0.80536531007E+02  0.00000000000E+00 0. -1.
         13    1    3    3    0    0 -0.19439394340E+02  0.76693962918E+01 -0.68294985118E+02  0.71420688067E+02  0.00000000000E+00 0.  1.
         21    1    1    2  502  501  0.27218652347E+01  0.36948258999E+02 -0.20866471586E+02  0.42520489529E+02  0.00000000000E+00 0.  1.
<scales pt_clust_5="13000.00000" pt_clust_6="13000.00000" pt_clust_7="13000.00000" pt_clust_8="13000.00000" pt_clust_9="37.04838"></scales>
<clustering>
<clus scale="   37.048">  1  9  2 -1</clus>
<clus scale="   89.702">  5  6 -1 -1</clus>
<clus scale="   91.447">  7  8 -1 -1</clus>
<clus scale="  100.793">  2  5  1 -1</clus>
<clus scale="  100.793">  2  5  1 -1</clus>
</clustering>
</event>
<event>
 9    1  0.1713970E-005  0.1621673E+03  0.7546771E-02  0.1186768E+00
         -2   -1    0    0    0  501 -0.00000000000E+00  0.00000000000E+00  0.10669119626E+03  0.10669119626E+03  0.00000000000E+00 0.  1.
          2   -1    0    0  502    0  0.00000000000E+00 -0.00000000000E+00 -0.63512003958E+03  0.63512003958E+03  0.00000000000E+00 0. -1.
         23    2    1    2    0    0  0.29299999274E+02  0.11200986509E+03  0.19437395692E+02  0.14742151306E+03  0.89166082822E+02 0.  0.
         23    2    1    2    0    0 -0.40051415906E+02 -0.12981894101E+03 -0.54949703805E+03  0.57352310709E+03  0.92329227123E+02 0.  0.
        -11    1    3    3    0    0  0.35120414394E+01  0.30777790143E+02  0.48351132636E+02  0.57423330001E+02  0.00000000000E+00 0. -1.
         11    1    3    3    0    0  0.25787957834E+02  0.81232074946E+02 -0.28913736944E+02  0.89998183056E+02  0.00000000000E+00 0.  1.
        -11    1    4    4    0    0  0.10588612807E+02 -0.66019102807E+02 -0.12995510224E+03  0.14614708090E+03  0.00000000000E+00 0. -1.
         11    1    4    4    0    0 -0.50640028712E+02 -0.63799838203E+02 -0.41954193581E+03  0.42737602619E+03  0.00000000000E+00 0.  1.
         21    1    1    2  502  501  0.10751416632E+02  0.17809075921E+02  0.16307990419E+01  0.20866615688E+02  0.00000000000E+00 0. -1.
<scales pt_clust_5="13000.00000" pt_clust_6="13000.00000" pt_clust_7="13000.00000" pt_clust_8="13000.00000" pt_clust_9="20.80279"></scales>
<clustering>
<clus scale="   20.803">  1  9  2 -1</clus>
<clus scale="   89.166">  5  6 -1 -1</clus>
<clus scale="   92.329">  7  8 -1 -1</clus>
<clus scale="  160.387">  1  5  2 -1</clus>
<clus scale="  162.167">  2  5  1 -1</clus>
</clustering>
</event>
<event>
 9    1  0.1713970E-005  0.9375418E+02  0.7546771E-02  0.1301691E+00
          3   -1    0    0  502    0  0.00000000000E+00  0.00000000000E+00  0.15247831689E+03  0.15247831689E+03  0.00000000000E+00 0. -1.
         -3   -1    0    0    0  501 -0.00000000000E+00 -0.00000000000E+00 -0.79449338306E+02  0.79449338306E+02  0.00000000000E+00 0.  1.
         23    2    1    2    0    0 -0.20701526995E+01 -0.27756911667E+01  0.29720236928E+02  0.96511822932E+02  0.91756468377E+02 0.  0.
         23    2    1    2    0    0 -0.27414874853E+02  0.18451837688E+02  0.52902501780E+02  0.10067178740E+03  0.79019544464E+02 0.  0.
        -11    1    4    4    0    0 -0.55357258288E+02  0.15831025370E+02  0.34850560507E+02  0.67302369774E+02  0.00000000000E+00 0.  1.
         11    1    4    4    0    0  0.27942383435E+02  0.26208123177E+01  0.18051941273E+02  0.33369417630E+02  0.00000000000E+00 0. -1.
        -13    1    3    3    0    0  0.34218405573E+02 -0.23469898704E+01  0.45465823883E+02  0.56952162230E+02  0.00000000000E+00 0. -1.
         13    1    3    3    0    0 -0.36288558272E+02 -0.42870129636E+00 -0.15745586955E+02  0.39559660702E+02  0.00000000000E+00 0.  1.
         21    1    1    2  502  501  0.29485027552E+02 -0.15676146521E+02 -0.95937601291E+01  0.34744044856E+02  0.00000000000E+00 0. -1.
<scales pt_clust_5="13000.00000" pt_clust_6="13000.00000" pt_clust_7="13000.00000" pt_clust_8="13000.00000" pt_clust_9="33.39324"></scales>
<clustering>
<clus scale="   33.393">  2  9  1 -1</clus>
<clus scale="   79.020">  5  6 -1 -1</clus>
<clus scale="   81.331">  1  5  2 -1</clus>
<clus scale="   91.756">  7  8 -1 -1</clus>
<clus scale="   81.331">  1  5  2 -1</clus>
</clustering>
</event>
<event>
 9    1  0.1713970E-005  0.2153855E+03  0.7546771E-02  0.1137535E+00
          2   -1    0    0  502    0  0.00000000000E+00  0.00000000000E+00  0.37143882285E+03  0.37143882285E+03  0.00000000000E+00 0. -1.
         -2   -1    0    0    0  501 -0.00000000000E+00 -0.00000000000E+00 -0.44649717582E+03  0.44649717582E+03  0.00000000000E+00 0.  1.
         23    2    1    2    0    0 -0.28898186302E+02  0.13439838280E+03  0.19330897093E+02  0.16683950672E+03  0.92540299045E+02 0.  0.
         23    2    1    2    0    0 -0.55194363752E+01 -0.24453702162E+03  0.20331765854E+03  0.33180901029E+03  0.94500422856E+02 0.  0.
        -11    1    4    4    0    0  0.24841245483E+02 -0.10473764851E+03  0.40346759383E+02  0.11495618072E+03  0.00000000000E+00 0.  1.
         11    1    4    4    0    0 -0.30360681858E+02 -0.13979937311E+03  0.16297089915E+03  0.21685282958E+03  0.00000000000E+00 0. -1.
        -13    1    3    3    0    0  0.13806012961E+02  0.11209775667E+03 -0.46173714340E+01  0.11303907804E+03  0.00000000000E+00 0.  1.
         13    1    3    3    0    0 -0.42704199264E+02  0.22300626133E+02  0.23948268527E+02  0.53800428680E+02  0.00000000000E+00 0. -1.
         21    1    1    2  502  501  0.34417622677E+02  0.11013863881E+03 -0.29770690860E+03  0.31928748165E+03  0.00000000000E+00 0.  1.
<scales pt_clust_5="13000.00000" pt_clust_6="13000.00000" pt_clust_7="13000.00000" pt_clust_8="13000.00000" pt_clust_9="115.39104"></scales>
<clustering>
<clus scale="   92.540">  7  8 -1 -1</clus>
<clus scale="   94.500">  5  6 -1 -1</clus>
<clus scale="  115.391">  2  9  1 -1</clus>
<clus scale="  214.533">  2  7  1 -1</clus>
<clus scale="  215.386">  1  5  2 -1</clus>
</clustering>
</event>
<event>
 9    1  0.1713970E-005  0.9701527E+02  0.7546771E-02  0.1287677E+00
         -1   -1    0    0    0  501 -0.00000000000E+00  0.00000000000E+00  0.36920254231E+02  0.36920254231E+02  0.00000000000E+00 0.  1.
          1   -1    0    0  502    0  0.00000000000E+00 -0.00000000000E+00 -0.35596737350E+03  0.35596737350E+03  0.00000000000E+00 0. -1.
         23    2    1    2    0    0  0.52105930471E+01  0.19327286124E+02 -0.13489391871E+03  0.16535530716E+03  0.93516383756E+02 0.  0.
         23    2    1    2    0    0  0.15329580708E+02 -0.29796936889E+02 -0.17903452714E+03  0.20391636956E+03  0.91682443093E+02 0.  0.
        -11    1    3    3    0    0  0.40257976413E+02  0.35296939157E+02 -0.55516120317E+02  0.77127285663E+02  0.00000000000E+00 0. -1.
         11    1    3    3    0    0 -0.35047383366E+02 -0.15969653033E+02 -0.79377798392E+02  0.88228021492E+02  0.00000000000E+00 0.  1.
        -13    1    4    4    0    0 -0.76424373150E+01 -0.59426384505E+02 -0.10358207158E+03  0.11966264069E+03  0.00000000000E+00 0.  1.
         13    1    4    4    0    0  0.22972018023E+02  0.29629447616E+02 -0.75452455565E+02  0.84253728872E+02  0.00000000000E+00 0. -1.
         21    1    1    2  502  501 -0.20540173755E+02  0.10469650766E+02 -0.51186734175E+01  0.23615951020E+02  0.00000000000E+00 0.  1.
<scales pt_clust_5="13000.00000" pt_clust_6="13000.00000" pt_clust_7="13000.00000" pt_clust_8="13000.00000" pt_clust_9="23.05455"></scales>
<clustering>
<clus scale="   23.055">  1  9  2 -1</clus>
<clus scale="   91.682">  7  8 -1 -1</clus>
<clus scale="   93.516">  5  6 -1 -1</clus>
<clus scale="   95.249">  2  7  1 -1</clus>
<clus scale="   95.249">  2  5  1 -1</clus>
</clustering>
</event>
<event>
 9    1  0.1713970E-005  0.1009425E+03  0.7546771E-02  0.1280163E+00
         -3   -1    0    0    0  501 -0.00000000000E+00  0.00000000000E+00  0.37566675342E+02  0.37566675342E+02  0.00000000000E+00 0.  1.
          3   -1    0    0  502    0  0.00000000000E+00 -0.00000000000E+00 -0.52397104086E+03  0.52397104086E+03  0.00000000000E+00 0. -1.
         23    2    1    2    0    0 -0.37654568610E+02  0.56104647967E+01 -0.88801614498E+02  0.13117490740E+03  0.88723084604E+02 0.  0.
         23    2    1    2    0    0  0.45674097278E+02  0.43864734137E+02 -0.30680778668E+03  0.32665247326E+03  0.92523414625E+02 0.  0.
        -11    1    3    3    0    0  0.14300966518E+02  0.33193598472E+02 -0.45624674489E+02  0.58206043888E+02  0.00000000000E+00 0.  1.
         11    1    3    3    0    0 -0.51955535128E+02 -0.27583133676E+02 -0.43176940009E+02  0.72968863513E+02  0.00000000000E+00 0. -1.
        -13    1    4    4    0    0  0.70956393123E+02  0.15359054969E+02 -0.17537030748E+03  0.18980372768E+03  0.00000000000E+00 0.  1.
         13    1    4    4    0    0 -0.25282295846E+02  0.28505679167E+02 -0.13143747920E+03  0.13684874558E+03  0.00000000000E+00 0. -1.
         21    1    1    2  502  501 -0.80195286676E+01 -0.49475198933E+02 -0.90794964338E+02  0.10371033554E+03  0.00000000000E+00 0.  1.
<scales pt_clust_5="13000.00000" pt_clust_6="13000.00000" pt_clust_7="13000.00000" pt_clust_8="13000.00000" pt_clust_9="50.12094"></scales>
<clustering>
<clus scale="   50.121">  2  9  1 -1</clus>
<clus scale="   88.723">  5  6 -1 -1</clus>
<clus scale="   92.523">  7  8 -1 -1</clus>
<clus scale="   97.471">  1  5  2 -1</clus>
<clus scale="   50.121">  2  5  1 -1</clus>
</clustering>
</event>
<event>
 9    1  0.1713970E-005  0.1797372E+03  0.7546771E-02  0.1168091E+00
          1   -1    0    0  502    0  0.00000000000E+00  0.00000000000E+00  0.17681044792E+03  0.17681044792E+03  0.00000000000E+00 0. -1.
         -1   -1    0    0    0  501 -0.00000000000E+00 -0.00000000000E+00 -0.24761714177E+03  0.24761714177E+03  0.00000000000E+00 0.  1.
         23    2    1    2    0    0  0.73806509859E+02  0.13259640927E+03 -0.23043220549E+02  0.17934838934E+03  0.92766621668E+02 0.  0.
         23    2    1    2    0    0 -0.10501552499E+03 -0.11722181828E+03  0.38184229258E+01  0.18286125525E+03  0.93029259621E+02 0.  0.
        -11    1    3    3    0    0  0.81135898173E+02  0.10347112878E+03  0.13347860873E+02  0.13216457110E+03  0.00000000000E+00 0.  1.
         11    1    3    3    0    0 -0.73293883137E+01  0.29125280487E+02 -0.36391081422E+02  0.47183818238E+02  0.00000000000E+00 0. -1.
        -11    1    4    4    0    0 -0.75430903241E+02 -0.18126414807E+02  0.14401945831E+02  0.78903764937E+02  0.00000000000E+00 0.  1.
         11    1    4    4    0    0 -0.29584621753E+02 -0.99095403478E+02 -0.10583522905E+02  0.10395749031E+03  0.00000000000E+00 0. -1.
         21    1    1    2  502  501  0.31209015135E+02 -0.15374590987E+02 -0.51581896231E+02  0.62217945101E+02  0.00000000000E+00 0.  1.
<scales pt_clust_5="13000.00000" pt_clust_6="13000.00000" pt_clust_7="13000.00000" pt_clust_8="13000.00000" pt_clust_9="34.79053"></scales>
<clustering>
<clus scale="   34.791">  2  9  1 -1</clus>
<clus scale="   92.767">  5  6 -1 -1</clus>
<clus scale="   93.029">  7  8 -1 -1</clus>
<clus scale="  179.601">  2  5  1 -1</clus>
<clus scale="  179.737">  1  5  2 -1</clus>
</clustering>
</event>
<event>
 9    1  0.1713970E-005  0.1061033E+03  0.7546771E-02  0.1268151E+00
          1   -1    0    0  502    0  0.00000000000E+00  0.00000000000E+00  0.18415685389E+03  0.18415685389E+03  0.00000000000E+00 0. -1.
         -1   -1    0    0    0  501 -0.00000000000E+00 -0.00000000000E+00 -0.12592093436E+03  0.12592093436E+03  0.00000000000E+00 0.  1.
         23    2    1    2    0    0 -0.47687060124E+02 -0.60152855791E+02  0.58218599443E+02  0.13308131436E+03  0.91808546158E+02 0.  0.
         23    2    1    2    0    0  0.27893923702E+02  0.18886782695E+02  0.49169507383E+02  0.10983551384E+03  0.92257347157E+02 0.  0.
        -11    1    3    3    0    0 -0.36524265489E+02 -0.80057242798E+02  0.64857249772E+02  0.10931444068E+03  0.00000000000E+00 0.  1.
         11    1    3    3    0    0 -0.11162794636E+02  0.19904387007E+02 -0.66386503283E+01  0.23766873677E+02  0.00000000000E+00 0. -1.
        -13    1    4    4    0    0  0.22467153954E+02  0.43143105150E+02  0.64383635630E+02  0.80692955490E+02  0.00000000000E+00 0. -1.
         13    1    4    4    0    0  0.54267697478E+01 -0.24256322455E+02 -0.15214128247E+02  0.29142558351E+02  0.00000000000E+00 0.  1.
         21    1    1    2  502  501  0.19793136422E+02  0.41266073096E+02 -0.49152187295E+02  0.67160960044E+02  0.00000000000E+00 0. -1.
<scales pt_clust_5="13000.00000" pt_clust_6="13000.00000" pt_clust_7="13000.00000" pt_clust_8="13000.00000" pt_clust_9="45.76742"></scales>
<clustering>
<clus scale="   45.767">  2  9  1 -1</clus>
<clus scale="   91.809">  5  6 -1 -1</clus>
<clus scale="   92.257">  7  8 -1 -1</clus>
<clus scale="  105.713">  2  5  1 -1</clus>
<clus scale="  106.103">  1  5  2 -1</clus>
</clustering>
</event>
<event>
 9    1  0.1713970E-005  0.2476910E+03  0.7546771E-02  0.1114777E+00
          1   -1    0    0  502    0  0.00000000000E+00  0.00000000000E+00  0.12443913271E+04  0.12443913271E+04  0.00000000000E+00 0. -1.
         -1   -1    0    0    0  501 -0.00000000000E+00 -0.00000000000E+00 -0.17509966598E+03  0.17509966598E+03  0.00000000000E+00 0.  1.
         23    2    1    2    0    0 -0.87933230535E+02 -0.21581473603E+03 -0.14265439277E+02  0.25054642484E+03  0.90894196315E+02 0.  0.
         23    2    1    2    0    0  0.20020228998E+03  0.14002602702E+03  0.92190489203E+03  0.95804244262E+03  0.90820959903E+02 0.  0.
        -11    1    4    4    0    0  0.14964494373E+03  0.52041389639E+02  0.59648205505E+03  0.61716509737E+03  0.00000000000E+00 0. -1.
         11    1    4    4    0    0  0.50557346250E+02  0.87984637377E+02  0.32542283699E+03  0.34087734525E+03  0.00000000000E+00 0.  1.
        -13    1    3    3    0    0  0.12190010127E+02 -0.82597166411E+02 -0.46890317554E+01  0.83623413377E+02  0.00000000000E+00 0. -1.
         13    1    3    3    0    0 -0.10012324066E+03 -0.13321756962E+03 -0.95764075220E+01  0.16692301147E+03  0.00000000000E+00 0.  1.
         21    1    1    2  502  501 -0.11226905945E+03  0.75788709014E+02  0.16165220837E+03  0.21090212563E+03  0.00000000000E+00 0.  1.
<scales pt_clust_5="13000.00000" pt_clust_6="13000.00000" pt_clust_7="13000.00000" pt_clust_8="13000.00000" pt_clust_9="135.45579"></scales>
<clustering>
<clus scale="   90.821">  5  6 -1 -1</clus>
<clus scale="   90.894">  7  8 -1 -1</clus>
<clus scale="  135.456">  1  9  2 -1</clus>
<clus scale="  247.664">  1  5  2 -1</clus>
<clus scale="  135.456">  1  5  2 -1</clus>
</clustering>
</event>
<event>
 9    1  0.1713970E-005  0.9352812E+02  0.7546771E-02  0.1294617E+00
          1   -1    0    0  502    0  0.00000000000E+00  0.00000000000E+00  0.35253250026E+03  0.35253250026E+03  0.00000000000E+00 0. -1.
         -1   -1    0    0    0  501 -0.00000000000E+00 -0.00000000000E+00 -0.10916284315E+03  0.10916284315E+03  0.00000000000E+00 0.  1.
         23    2    1    2    0    0 -0.25144631663E+02 -0.82258437693E+02  0.25646095064E+02  0.12792911872E+03  0.91156097714E+02 0.  0.
         23    2    1    2    0    0  0.10634596061E+02  0.55835565141E+01  0.23634331000E+03  0.25353983532E+03  0.90994599726E+02 0.  0.
        -11    1    3    3    0    0  0.34606378747E+01 -0.93480369015E+02  0.26379082063E+02  0.97192650835E+02  0.00000000000E+00 0. -1.
         11    1    3    3    0    0 -0.28605269538E+02  0.11221931322E+02 -0.73298699972E+00  0.30736467882E+02  0.00000000000E+00 0.  1.
        -13    1    4    4    0    0  0.50125606814E+02 -0.57494667742E+01  0.13940392987E+03  0.14825346029E+03  0.00000000000E+00 0.  1.
         13    1    4    4    0    0 -0.39491010753E+02  0.11333023288E+02  0.96939380130E+02  0.10528637503E+03  0.00000000000E+00 0. -1.
         21    1    1    2  502  501  0.14510035602E+02  0.76674881179E+02 -0.18619747950E+02  0.80226389366E+02  0.00000000000E+00 0.  1.
<scales pt_clust_5="13000.00000" pt_clust_6="13000.00000" pt_clust_7="13000.00000" pt_clust_8="13000.00000" pt_clust_9="78.03575"></scales>
<clustering>
<clus scale="   78.036">  2  9  1 -1</clus>
<clus scale="   90.995">  7  8 -1 -1</clus>
<clus scale="   91.156">  5  6 -1 -1</clus>
<clus scale="   93.371">  1  7  2 -1</clus>
<clus scale="   93.371">  1  5  2 -1</clus>
</clustering>
</event>
<event>
 9    1  0.1713970E-005  0.1762961E+03  0.7546771E-02  0.1171500E+00
          2   -1    0    0  502    0  0.00000000000E+00  0.00000000000E+00  0.29388395652E+03  0.29388395652E+03  0.00000000000E+00 0. -1.
         -2   -1    0    0    0  501 -0.00000000000E+00 -0.00000000000E+00 -0.19496244797E+03  0.19496244797E+03  0.00000000000E+00 0.  1.
         23    2    1    2    0    0 -0.16884107886E+03  0.73695647924E+01 -0.74488655144E+02  0.20613327736E+03  0.91546424805E+02 0.  0.
         23    2    1    2    0    0  0.11713740217E+03  0.21787595767E+02  0.74701907978E+02  0.16753183549E+03  0.91053119281E+02 0.  0.
        -11    1    4    4    0    0  0.54432912113E+02 -0.16175859760E+02  0.75196301887E+02  0.94228892477E+02  0.00000000000E+00 0.  1.
         11    1    4    4    0    0  0.62704490061E+02  0.37963455527E+02 -0.49439390939E+00  0.73302943015E+02  0.00000000000E+00 0. -1.
        -13    1    3    3    0    0 -0.13020574392E+03 -0.33928804682E+02 -0.62323569946E+02  0.14828663765E+03  0.00000000000E+00 0.  1.
         13    1    3    3    0    0 -0.38635334943E+02  0.41298369475E+02 -0.12165085198E+02  0.57846639706E+02  0.00000000000E+00 0. -1.
         21    1    1    2  502  501  0.51703676687E+02 -0.29157160559E+02  0.98708255725E+02  0.11518129164E+03  0.00000000000E+00 0. -1.
<scales pt_clust_5="13000.00000" pt_clust_6="13000.00000" pt_clust_7="13000.00000" pt_clust_8="13000.00000" pt_clust_9="59.35832"></scales>
<clustering>
<clus scale="   59.358">  1  9  2 -1</clus>
<clus scale="   91.053">  5  6 -1 -1</clus>
<clus scale="   91.546">  7  8 -1 -1</clus>
<clus scale="  176.040">  1  5  2 -1</clus>
<clus scale="   59.358">  1  5  2 -1</clus>
</clustering>
</event>
<event>
 9    1  0.1713970E-005  0.1415421E+03  0.7546771E-02  0.1211844E+00
         -1   -1    0    0    0  501 -0.00000000000E+00  0.00000000000E+00  0.64698738818E+02  0.64698738818E+02  0.00000000000E+00 0.  1.
          1   -1    0    0  502    0  0.00000000000E+00 -0.00000000000E+00 -0.48527087144E+03  0.48527087144E+03  0.00000000000E+00 0. -1.
         23    2    1    2    0    0 -0.26832115103E+01  0.11430076321E+03 -0.21540605811E+03  0.26115664801E+03  0.93440680848E+02 0.  0.
         23    2    1    2    0    0 -0.15076140324E+02 -0.99256805484E+02 -0.22204882117E+03  0.26005983413E+03  0.90808782087E+02 0.  0.
        -13    1    4    4    0    0 -0.42269147965E+02 -0.22636681972E+02 -0.47442904720E+02  0.67453164853E+02  0.00000000000E+00 0.  1.
         13    1    4    4    0    0  0.27193007641E+02 -0.76620123512E+02 -0.17460591645E+03  0.19260666928E+03  0.00000000000E+00 0. -1.
        -13    1    3    3    0    0  0.28900624145E+02  0.57105960134E+01 -0.20749630968E+02  0.36033375752E+02  0.00000000000E+00 0. -1.
         13    1    3    3    0    0 -0.31583835655E+02  0.10859016719E+03 -0.19465642714E+03  0.22512327226E+03  0.00000000000E+00 0.  1.
         21    1    1    2  502  501  0.17759351834E+02 -0.15043957723E+02  0.16882746657E+02  0.28753128112E+02  0.00000000000E+00 0. -1.
<scales pt_clust_5="13000.00000" pt_clust_6="13000.00000" pt_clust_7="13000.00000" pt_clust_8="13000.00000" pt_clust_9="23.27478"></scales>
<clustering>
<clus scale="   23.275">  1  9  2 -1</clus>
<clus scale="   90.809">  5  6 -1 -1</clus>
<clus scale="   93.441">  7  8 -1 -1</clus>
<clus scale="  139.819">  2  5  1 -1</clus>
<clus scale="  139.819">  2  5  1 -1</clus>
</clustering>
</event>
<event>
 9    1  0.1713970E-005  0.1039259E+03  0.7546771E-02  0.1275047E+00
         -2   -1    0    0    0  501 -0.00000000000E+00  0.00000000000E+00  0.34673896979E+03  0.34673896979E+03  0.00000000000E+00 0.  1.
          2   -1    0    0  502    0  0.00000000000E+00 -0.00000000000E+00 -0.56122524227E+02  0.56122524227E+02  0.00000000000E+00 0. -1.
         23    2    1    2    0    0 -0.38003600524E+02  0.18357012724E+02  0.21037750409E+03  0.23411330720E+03  0.93643434421E+02 0.  0.
         23    2    1    2    0    0  0.39220309499E+00  0.81483364204E+01  0.39267260804E+02  0.10713788438E+03  0.99348172047E+02 0.  0.
        -11    1    4    4    0    0  0.28439037061E+01 -0.45571973038E+02  0.14292832033E+02  0.47845350479E+02  0.00000000000E+00 0. -1.
         11    1    4    4    0    0 -0.24517006111E+01  0.53720309459E+02  0.24974428770E+02  0.59292533903E+02  0.00000000000E+00 0.  1.
        -11    1    3    3    0    0 -0.63742951342E+02  0.15249095753E+02  0.92178230879E+02  0.11310404509E+03  0.00000000000E+00 0.  1.
         11    1    3    3    0    0  0.25739350818E+02  0.31079169710E+01  0.11819927321E+03  0.12100926211E+03  0.00000000000E+00 0. -1.
         21    1    1    2  502  501  0.37611397429E+02 -0.26505349145E+02  0.40971680672E+02  0.61610302442E+02  0.00000000000E+00 0. -1.
<scales pt_clust_5="13000.00000" pt_clust_6="13000.00000" pt_clust_7="13000.00000" pt_clust_8="13000.00000" pt_clust_9="46.01251"></scales>
<clustering>
<clus scale="   46.013">  2  9  1 -1</clus>
<clus scale="   93.643">  7  8 -1 -1</clus>
<clus scale="   98.487">  1  7  2 -1</clus>
<clus scale="   99.348">  5  6 -1 -1</clus>
<clus scale="   46.013">  2  5  1 -1</clus>
</clustering>
</event>
<event>
 9    1  0.1713970E-005  0.1336903E+03  0.7546771E-02  0.1223127E+00
         -2   -1    0    0    0  501 -0.00000000000E+00  0.00000000000E+00  0.47181940895E+02  0.47181940895E+02  0.00000000000E+00 0.  1.
          2   -1    0    0  502    0  0.00000000000E+00 -0.00000000000E+00 -0.67641701549E+03  0.67641701549E+03  0.00000000000E+00 0. -1.
         23    2    1    2    0    0 -0.29380658176E+02  0.75185229445E+02 -0.10257723502E+03  0.16022973499E+03  0.92927052182E+02 0.  0.
         23    2    1    2    0    0  0.22132201076E+02 -0.98420860714E+02 -0.52145267054E+03  0.53847889244E+03  0.88713752280E+02 0.  0.
        -11    1    4    4    0    0 -0.28071016683E+02 -0.71470572380E+02 -0.32356149099E+03  0.33254783587E+03  0.00000000000E+00 0. -1.
         11    1    4    4    0    0  0.50203217759E+02 -0.26950288334E+02 -0.19789117955E+03  0.20593105657E+03  0.00000000000E+00 0.  1.
        -13    1    3    3    0    0 -0.50324838381E+02  0.78727775425E+02 -0.10289018865E+03  0.13898576510E+03  0.00000000000E+00 0.  1.
         13    1    3    3    0    0  0.20944180204E+02 -0.35425459799E+01  0.31295362345E+00  0.21243969884E+02  0.00000000000E+00 0. -1.
         21    1    1    2  502  501  0.72484571000E+01  0.23235631269E+02 -0.52051690287E+01  0.24890328954E+02  0.00000000000E+00 0.  1.
<scales pt_clust_5="13000.00000" pt_clust_6="13000.00000" pt_clust_7="13000.00000" pt_clust_8="13000.00000" pt_clust_9="24.33998"></scales>
<clustering>
<clus scale="   24.340">  1  9  2 -1</clus>
<clus scale="   88.714">  5  6 -1 -1</clus>
<clus scale="   92.927">  7  8 -1 -1</clus>
<clus scale="  130.797">  2  5  1 -1</clus>
<clus scale="  130.797">  2  5  1 -1</clus>
</clustering>
</event>
<event>
 9    1  0.1713970E-005  0.1005076E+03  0.7546771E-02  0.1280463E+00
          3   -1    0    0  502    0  0.00000000000E+00  0.00000000000E+00  0.29779234225E+02  0.29779234225E+02  0.00000000000E+00 0. -1.
         -3   -1    0    0    0  501 -0.00000000000E+00 -0.00000000000E+00 -0.64875761423E+03  0.64875761423E+03  0.00000000000E+00 0.  1.
         23    2    1    2    0    0 -0.10175507193E+02 -0.61706151435E+01 -0.31762279721E+03  0.33026328952E+03  0.89710543775E+02 0.  0.
         23    2    1    2    0    0 -0.24880648697E+02  0.54570270810E+02 -0.15409253956E+03  0.18934632830E+03  0.92252697276E+02 0.  0.
        -11    1    3    3    0    0 -0.46010933480E+02 -0.19443852854E+02 -0.14195193347E+03  0.15048395539E+03  0.00000000000E+00 0.  1.
         11    1    3    3    0    0  0.35835426287E+02  0.13273237711E+02 -0.17567086373E+03  0.17977933413E+03  0.00000000000E+00 0. -1.
        -11    1    4    4    0    0 -0.53901795651E+02  0.23995235875E+02 -0.12470602587E+03  0.13795929765E+03  0.00000000000E+00 0.  1.
         11    1    4    4    0    0  0.29021146954E+02  0.30575034936E+02 -0.29386513692E+02  0.51387030648E+02  0.00000000000E+00 0. -1.
         21    1    1    2  502  501  0.35056155890E+02 -0.48399655667E+02 -0.14726304324E+03  0.15892723064E+03  0.00000000000E+00 0. -1.
<scales pt_clust_5="13000.00000" pt_clust_6="13000.00000" pt_clust_7="13000.00000" pt_clust_8="13000.00000" pt_clust_9="59.76170"></scales>
<clustering>
<clus scale="   59.762">  2  9  1 -1</clus>
<clus scale="   89.711">  5  6 -1 -1</clus>
<clus scale="   92.253">  7  8 -1 -1</clus>
<clus scale="   98.179">  2  5  1 -1</clus>
<clus scale="  100.508">  1  5  2 -1</clus>
</clustering>
</event>
<event>
 9    1  0.1713970E-005  0.9375757E+02  0.7546771E-02  0.1295307E+00
         -2   -1    0    0    0  501 -0.00000000000E+00  0.00000000000E+00  0.27783916969E+03  0.27783916969E+03  0.00000000000E+00 0.  1.
          2   -1    0    0  502    0  0.00000000000E+00 -0.00000000000E+00 -0.94619268299E+02  0.94619268299E+02  0.00000000000E+00 0. -1.
         23    2    1    2    0    0  0.21029078747E+02  0.17790811102E+02  0.20461283976E+03  0.22623886394E+03  0.92514184039E+02 0.  0.
         23    2    1    2    0    0 -0.57647960297E+01  0.17384307931E+02 -0.43638719426E+02  0.10188942516E+03  0.90231203531E+02 0.  0.
        -11    1    4    4    0    0  0.10966241818E+02  0.47977526787E+02 -0.44228732511E+01  0.49413189980E+02  0.00000000000E+00 0.  1.
         11    1    4    4    0    0 -0.16731037848E+02 -0.30593218855E+02 -0.39215846175E+02  0.52476235179E+02  0.00000000000E+00 0. -1.
        -11    1    3    3    0    0 -0.25709707167E+02  0.17422225435E+02  0.15498387871E+03  0.15806494122E+03  0.00000000000E+00 0.  1.
         11    1    3    3    0    0  0.46738785914E+02  0.36858566681E+00  0.49628961046E+02  0.68173922717E+02  0.00000000000E+00 0. -1.
         21    1    1    2  502  501 -0.15264282717E+02 -0.35175119033E+02  0.22245781054E+02  0.44330148890E+02  0.00000000000E+00 0.  1.
<scales pt_clust_5="13000.00000" pt_clust_6="13000.00000" pt_clust_7="13000.00000" pt_clust_8="13000.00000" pt_clust_9="38.34433"></scales>
<clustering>
<clus scale="   38.344">  1  9  2 -1</clus>
<clus scale="   90.231">  5  6 -1 -1</clus>
<clus scale="   91.506">  2  5  1 -1</clus>
<clus scale="   92.514">  7  8 -1 -1</clus>
<clus scale="   91.506">  2  5  1 -1</clus>
</clustering>
</event>
<event>
 9    1  0.1713970E-005  0.9683615E+02  0.7546771E-02  0.1288159E+00
          3   -1    0    0  502    0  0.00000000000E+00  0.00000000000E+00  0.53488976661E+03  0.53488976661E+03  0.00000000000E+00 0. -1.
         -3   -1    0    0    0  501 -0.00000000000E+00 -0.00000000000E+00 -0.40715562132E+02  0.40715562132E+02  0.00000000000E+00 0.  1.
         23    2    1    2    0    0 -0.47463107763E+02  0.46746240685E+02  0.16774232867E+03  0.20227535024E+03  0.91322893471E+02 0.  0.
         23    2    1    2    0    0  0.23744954480E+02  0.55773884231E+01  0.29208078315E+03  0.30639485674E+03  0.89284344813E+02 0.  0.
        -11    1    3    3    0    0 -0.35379147762E+02 -0.13684868401E+02  0.21557448281E+02  0.43631219281E+02  0.00000000000E+00 0.  1.
         11    1    3    3    0    0 -0.12083960001E+02  0.60431109086E+02  0.14618488039E+03  0.15864413096E+03  0.00000000000E+00 0. -1.
        -13    1    4    4    0    0 -0.24967286781E+02  0.21676043885E+02  0.58041380409E+02  0.66798339257E+02  0.00000000000E+00 0.  1.
         13    1    4    4    0    0  0.48712241261E+02 -0.16098655462E+02  0.23403940274E+03  0.23959651748E+03  0.00000000000E+00 0. -1.
         21    1    1    2  502  501  0.23718153283E+02 -0.52323629108E+02  0.34351092671E+02  0.66935121766E+02  0.00000000000E+00 0.  1.
<scales pt_clust_5="13000.00000" pt_clust_6="13000.00000" pt_clust_7="13000.00000" pt_clust_8="13000.00000" pt_clust_9="57.44835"></scales>
<clustering>
<clus scale="   57.448">  2  9  1 -1</clus>
<clus scale="   89.284">  7  8 -1 -1</clus>
<clus scale="   91.323">  5  6 -1 -1</clus>
<clus scale="   94.916">  1  7  2 -1</clus>
<clus scale="   94.916">  1  5  2 -1</clus>
</clustering>
</event>
<event>
 9    1  0.1713970E-005  0.1068551E+03  0.7546771E-02  0.1267252E+00
          1   -1    0    0  502    0  0.00000000000E+00  0.00000000000E+00  0.12453966163E+03  0.12453966163E+03  0.00000000000E+00 0. -1.
         -1   -1    0    0    0  501 -0.00000000000E+00 -0.00000000000E+00 -0.15311214927E+03  0.15311214927E+03  0.00000000000E+00 0.  1.
         23    2    1    2    0    0 -0.64082946419E+01  0.38655617704E+02 -0.53789386482E+02  0.11306123723E+03  0.91401434589E+02 0.  0.
         23    2    1    2    0    0  0.24474170026E+02 -0.57050632311E+02  0.57527594959E+02  0.12325374385E+03  0.89600789873E+02 0.  0.
        -11    1    4    4    0    0 -0.20660758522E+02  0.98995285641E+01  0.30418859077E+02  0.38081158018E+02  0.00000000000E+00 0.  1.
         11    1    4    4    0    0  0.45134928548E+02 -0.66950160875E+02  0.27108735882E+02  0.85172585832E+02  0.00000000000E+00 0. -1.
        -13    1    3    3    0    0 -0.24445431451E+02 -0.32599085061E+01 -0.61974607457E+02  0.66701260047E+02  0.00000000000E+00 0.  1.
         13    1    3    3    0    0  0.18037136809E+02  0.41915526210E+02  0.81852209753E+01  0.46359977180E+02  0.00000000000E+00 0. -1.
         21    1    1    2  502  501 -0.18065875384E+02  0.18395014607E+02 -0.32310696118E+02  0.41336829818E+02  0.00000000000E+00 0. -1.
<scales pt_clust_5="13000.00000" pt_clust_6="13000.00000" pt_clust_7="13000.00000" pt_clust_8="13000.00000" pt_clust_9="25.78279"></scales>
<clustering>
<clus scale="   25.783">  2  9  1 -1</clus>
<clus scale="   89.601">  5  6 -1 -1</clus>
<clus scale="   91.401">  7  8 -1 -1</clus>
<clus scale="  105.319">  1  5  2 -1</clus>
<clus scale="  105.319">  1  5  2 -1</clus>
</clustering>
</event>
<event>
 9    1  0.1713970E-005  0.9895257E+02  0.7546771E-02  0.1290795E+00
          1   -1    0    0  502    0  0.00000000000E+00  0.00000000000E+00  0.15045188857E+03  0.15045188857E+03  0.00000000000E+00 0. -1.
         -1   -1    0    0    0  501 -0.00000000000E+00 -0.00000000000E+00 -0.75300364952E+02  0.75300364952E+02  0.00000000000E+00 0.  1.
         23    2    1    2    0    0 -0.29609359746E+02 -0.24149187183E+02  0.82955666357E+01  0.97967738617E+02  0.89827412062E+02 0.  0.
         23    2    1    2    0    0  0.22600876995E+02  0.43161298264E+02  0.57401532376E+02  0.10542461010E+03  0.73795089175E+02 0.  0.
        -11    1    3    3    0    0 -0.36093002449E+02 -0.52304662095E+02 -0.91690116625E+01  0.64207112359E+02  0.00000000000E+00 0.  1.
         11    1    3    3    0    0  0.64836427027E+01  0.28155474912E+02  0.17464578298E+02  0.33760626258E+02  0.00000000000E+00 0. -1.
        -13    1    4    4    0    0  0.47644880839E+02  0.28934984091E+02  0.22348353049E+02  0.60055947736E+02  0.00000000000E+00 0. -1.
         13    1    4    4    0    0 -0.25044003845E+02  0.14226314174E+02  0.35053179327E+02  0.45368662361E+02  0.00000000000E+00 0.  1.
         21    1    1    2  502  501  0.70084827512E+01 -0.19012111081E+02  0.94544246037E+01  0.22359904803E+02  0.00000000000E+00 0. -1.
<scales pt_clust_5="13000.00000" pt_clust_6="13000.00000" pt_clust_7="13000.00000" pt_clust_8="13000.00000" pt_clust_9="20.26275"></scales>
<clustering>
<clus scale="   20.263">  1  9  2 -1</clus>
<clus scale="   73.795">  7  8 -1 -1</clus>
<clus scale="   84.666">  1  7  2 -1</clus>
<clus scale="   89.827">  5  6 -1 -1</clus>
<clus scale="   20.263">  1  5  2 -1</clus>
</clustering>
</event>
<event>
 9    1  0.1713970E-005  0.1067317E+03  0.7546771E-02  0.1266867E+00
         -1   -1    0    0    0  501 -0.00000000000E+00  0.00000000000E+00  0.34942422827E+02  0.34942422827E+02  0.00000000000E+00 0.  1.
          1   -1    0    0  502    0  0.00000000000E+00 -0.00000000000E+00 -0.48187781745E+03  0.48187781745E+03  0.00000000000E+00 0. -1.
         23    2    1    2    0    0  0.63812176176E+02 -0.23406510875E+02 -0.20080014403E+03  0.23073787456E+03  0.91101099526E+02 0.  0.
         23    2    1    2    0    0 -0.40858013608E+02  0.22037049500E+02 -0.24186819141E+03  0.26269483062E+03  0.91396625700E+02 0.  0.
        -11    1    4    4    0    0  0.24802447709E+02  0.20167144458E+02 -0.45312317221E+02  0.55453414862E+02  0.00000000000E+00 0. -1.
         11    1    4    4    0    0 -0.65660461316E+02  0.18699050426E+01 -0.19655587419E+03  0.20724141576E+03  0.00000000000E+00 0.  1.
        -13    1    3    3    0    0  0.42512871586E+02 -0.55214448066E+02 -0.92085193231E+02  0.11548013828E+03  0.00000000000E+00 0. -1.
         13    1    3    3    0    0  0.21299304590E+02  0.31807937191E+02 -0.10871495080E+03  0.11525773628E+03  0.00000000000E+00 0.  1.
         21    1    1    2  502  501 -0.22954162568E+02  0.13694613747E+01 -0.42670591734E+01  0.23387535091E+02  0.00000000000E+00 0.  1.
<scales pt_clust_5="13000.00000" pt_clust_6="13000.00000" pt_clust_7="13000.00000" pt_clust_8="13000.00000" pt_clust_9="22.99498"></scales>
<clustering>
<clus scale="   22.995">  1  9  2 -1</clus>
<clus scale="   91.101">  7  8 -1 -1</clus>
<clus scale="   91.397">  5  6 -1 -1</clus>
<clus scale="  106.479">  1  7  2 -1</clus>
<clus scale="  106.732">  2  5  1 -1</clus>
</clustering>
</event>
<event>
 9    1  0.1713970E-005  0.1051108E+03  0.7546771E-02  0.1273337E+00
         -1   -1    0    0    0  501 -0.00000000000E+00  0.00000000000E+00  0.70200081001E+02  0.70200081001E+02  0.00000000000E+00 0.  1.
          1   -1    0    0  502    0  0.00000000000E+00 -0.00000000000E+00 -0.19079677337E+03  0.19079677337E+03  0.00000000000E+00 0. -1.
         23    2    1    2    0    0 -0.36180564554E+01 -0.52210957933E+02 -0.39512287351E+02  0.11073768416E+03  0.89233062145E+02 0.  0.
         23    2    1    2    0    0  0.94971112464E+01  0.27342583614E+02 -0.62313757186E+02  0.11855212768E+03  0.96611545074E+02 0.  0.
        -11    1    3    3    0    0 -0.33312451868E+02 -0.70598727747E+00  0.84230436989E+01  0.34368088871E+02  0.00000000000E+00 0.  1.
         11    1    3    3    0    0  0.29694395413E+02 -0.51504970656E+02 -0.47935331050E+02  0.76369595285E+02  0.00000000000E+00 0. -1.
        -13    1    4    4    0    0 -0.31179421362E+02  0.20361136911E+02  0.69910361431E+01  0.37889402200E+02  0.00000000000E+00 0.  1.
         13    1    4    4    0    0  0.40676532608E+02  0.69814467033E+01 -0.69304793329E+02  0.80662725477E+02  0.00000000000E+00 0. -1.
         21    1    1    2  502  501 -0.58790547910E+01  0.24868374319E+02 -0.18770647834E+02  0.31707042539E+02  0.00000000000E+00 0.  1.
<scales pt_clust_5="13000.00000" pt_clust_6="13000.00000" pt_clust_7="13000.00000" pt_clust_8="13000.00000" pt_clust_9="25.55385"></scales>
<clustering>
<clus scale="   25.554">  2  9  1 -1</clus>
<clus scale="   89.233">  5  6 -1 -1</clus>
<clus scale="   96.612">  7  8 -1 -1</clus>
<clus scale="   98.372">  1  5  2 -1</clus>
<clus scale="   25.554">  2  5  1 -1</clus>
</clustering>
</event>
<event>
 9    1  0.1713970E-005  0.1041512E+03  0.7546771E-02  0.1272459E+00
         -1   -1    0    0    0  501 -0.00000000000E+00  0.00000000000E+00  0.12017546686E+03  0.12017546686E+03  0.00000000000E+00 0.  1.
          1   -1    0    0  502    0  0.00000000000E+00 -0.00000000000E+00 -0.12843917376E+03  0.12843917376E+03  0.00000000000E+00 0. -1.
         23    2    1    2    0    0  0.39814118407E+01  0.45304139699E+02  0.11980653136E+02  0.10089112147E+03  0.89258980660E+02 0.  0.
         23    2    1    2    0    0  0.22379726099E+02 -0.52574892660E+02 -0.39479367768E+02  0.11429061672E+03  0.90767577433E+02 0.  0.
        -11    1    3    3    0    0 -0.32291698994E+02  0.14467031966E+02  0.33424755452E+02  0.48675076937E+02  0.00000000000E+00 0.  1.
         11    1    3    3    0    0  0.36273110834E+02  0.30837107733E+02 -0.21444102315E+02  0.52216044537E+02  0.00000000000E+00 0. -1.
        -13    1    4    4    0    0 -0.26175289111E+02 -0.46208617046E+02 -0.29367763061E+01  0.53188407613E+02  0.00000000000E+00 0. -1.
         13    1    4    4    0    0  0.48555015210E+02 -0.63662756135E+01 -0.36542591462E+02  0.61102209109E+02  0.00000000000E+00 0.  1.
         21    1    1    2  502  501 -0.26361137939E+02  0.72707529602E+01  0.19235007728E+02  0.33432902422E+02  0.00000000000E+00 0. -1.
<scales pt_clust_5="13000.00000" pt_clust_6="13000.00000" pt_clust_7="13000.00000" pt_clust_8="13000.00000" pt_clust_9="27.34545"></scales>
<clustering>
<clus scale="   27.345">  1  9  2 -1</clus>
<clus scale="   89.259">  5  6 -1 -1</clus>
<clus scale="   90.768">  7  8 -1 -1</clus>
<clus scale="  102.839">  1  5  2 -1</clus>
<clus scale="  104.151">  2  5  1 -1</clus>
</clustering>
</event>
<event>
 9    1  0.1713970E-005  0.9889736E+02  0.7546771E-02  0.1282977E+00
         -3   -1    0    0    0  501 -0.00000000000E+00  0.00000000000E+00  0.27935711508E+03  0.27935711508E+03  0.00000000000E+00 0.  1.
          3   -1    0    0  502    0  0.00000000000E+00 -0.00000000000E+00 -0.94801680593E+02  0.94801680593E+02  0.00000000000E+00 0. -1.
         23    2    1    2    0    0 -0.88291063945E+00  0.16592251985E+02  0.13305772661E+03  0.16205721998E+03  0.91006052434E+02 0.  0.
         23    2    1    2    0    0  0.37795965194E+02  0.35181415263E+02 -0.30438149285E+02  0.10838768605E+03  0.90305828108E+02 0.  0.
        -11    1    3    3    0    0  0.41086191260E+02  0.21690424874E+02  0.92294465231E+02  0.10332868893E+03  0.00000000000E+00 0.  1.
         11    1    3    3    0    0 -0.41969101900E+02 -0.50981728896E+01  0.40763261381E+02  0.58728531052E+02  0.00000000000E+00 0. -1.
        -13    1    4    4    0    0  0.18080066170E+01  0.59601384754E+02 -0.24610730661E+02  0.64507999629E+02  0.00000000000E+00 0.  1.
         13    1    4    4    0    0  0.35987958577E+02 -0.24419969491E+02 -0.58274186240E+01  0.43879686419E+02  0.00000000000E+00 0. -1.
         21    1    1    2  502  501 -0.36913054554E+02 -0.51773667248E+02  0.81935857162E+02  0.10371388965E+03  0.00000000000E+00 0. -1.
<scales pt_clust_5="13000.00000" pt_clust_6="13000.00000" pt_clust_7="13000.00000" pt_clust_8="13000.00000" pt_clust_9="63.58527"></scales>
<clustering>
<clus scale="   63.585">  1  9  2 -1</clus>
<clus scale="   90.306">  7  8 -1 -1</clus>
<clus scale="   91.006">  5  6 -1 -1</clus>
<clus scale="   98.253">  2  7  1 -1</clus>
<clus scale="   98.253">  2  5  1 -1</clus>
</clustering>
</event>
<event>
 9    1  0.1713970E-005  0.1703456E+03  0.7546771E-02  0.1177838E+00
          2   -1    0    0  502    0  0.00000000000E+00  0.00000000000E+00  0.25237028803E+03  0.25237028803E+03  0.00000000000E+00 0. -1.
         -2   -1    0    0    0  501 -0.00000000000E+00 -0.00000000000E+00 -0.20402017214E+03  0.20402017214E+03  0.00000000000E+00 0.  1.
         23    2    1    2    0    0 -0.39720522988E+02 -0.15036988560E+03 -0.27131442943E+02  0.18179369764E+03  0.90133294961E+02 0.  0.
         23    2    1    2    0    0  0.82325145673E+02  0.11405633074E+03  0.11685293027E+03  0.20498772206E+03  0.92623337729E+02 0.  0.
        -13    1    4    4    0    0  0.35577844134E+02  0.75522997485E+02  0.12625573272E+02  0.84432880105E+02  0.00000000000E+00 0.  1.
         13    1    4    4    0    0  0.46747301539E+02  0.38533333253E+02  0.10422735700E+03  0.12055484196E+03  0.00000000000E+00 0. -1.
        -13    1    3    3    0    0 -0.82357210911E+01 -0.12273505901E+03 -0.51469266305E+02  0.13334469313E+03  0.00000000000E+00 0.  1.
         13    1    3    3    0    0 -0.31484801896E+02 -0.27634826592E+02  0.24337823362E+02  0.48449004502E+02  0.00000000000E+00 0. -1.
         21    1    1    2  502  501 -0.42604622686E+02  0.36313554867E+02 -0.41371371431E+02  0.69609040471E+02  0.00000000000E+00 0.  1.
<scales pt_clust_5="13000.00000" pt_clust_6="13000.00000" pt_clust_7="13000.00000" pt_clust_8="13000.00000" pt_clust_9="55.98061"></scales>
<clustering>
<clus scale="   55.981">  2  9  1 -1</clus>
<clus scale="   90.133">  7  8 -1 -1</clus>
<clus scale="   92.623">  5  6 -1 -1</clus>
<clus scale="  169.005">  2  7  1 -1</clus>
<clus scale="  170.346">  1  5  2 -1</clus>
</clustering>
</event>
<event>
 9    1  0.1713970E-005  0.1032734E+03  0.7546771E-02  0.1275768E+00
          2   -1    0    0  502    0  0.00000000000E+00  0.00000000000E+00  0.40386647344E+03  0.40386647344E+03  0.00000000000E+00 0. -1.
         -2   -1    0    0    0  501 -0.00000000000E+00 -0.00000000000E+00 -0.59035215395E+02  0.59035215395E+02  0.00000000000E+00 0.  1.
         23    2    1    2    0    0 -0.27073133920E+02  0.37829509127E+02  0.15830777002E+03  0.18881113715E+03  0.91783817325E+02 0.  0.
         23    2    1    2    0    0  0.54419462635E+02 -0.80942067277E+01  0.20522942145E+03  0.22957177083E+03  0.86931515809E+02 0.  0.
        -11    1    3    3    0    0 -0.46182045822E+02 -0.98216027912E+01  0.48993877923E+02  0.68041496983E+02  0.00000000000E+00 0.  1.
         11    1    3    3    0    0  0.19108911902E+02  0.47651111918E+02  0.10931389210E+03  0.12076964017E+03  0.00000000000E+00 0. -1.
        -13    1    4    4    0    0  0.71573185352E+02 -0.27304978384E+02  0.16309376234E+03  0.18018839591E+03  0.00000000000E+00 0. -1.
         13    1    4    4    0    0 -0.17153722718E+02  0.19210771656E+02  0.42135659107E+02  0.49383374926E+02  0.00000000000E+00 0.  1.
         21    1    1    2  502  501 -0.27346328715E+02 -0.29735302399E+02 -0.18705933422E+02  0.44518780847E+02  0.00000000000E+00 0.  1.
<scales pt_clust_5="13000.00000" pt_clust_6="13000.00000" pt_clust_7="13000.00000" pt_clust_8="13000.00000" pt_clust_9="40.39814"></scales>
<clustering>
<clus scale="   40.398">  2  9  1 -1</clus>
<clus scale="   86.932">  7  8 -1 -1</clus>
<clus scale="   91.784">  5  6 -1 -1</clus>
<clus scale="   98.986">  1  7  2 -1</clus>
<clus scale="   98.986">  1  5  2 -1</clus>
</clustering>
</event>
<event>
 9    1  0.1713970E-005  0.1309837E+03  0.7546771E-02  0.1226247E+00
         -1   -1    0    0    0  501 -0.00000000000E+00  0.00000000000E+00  0.26267649128E+03  0.26267649128E+03  0.00000000000E+00 0.  1.
          1   -1    0    0  502    0  0.00000000000E+00 -0.00000000000E+00 -0.87853773114E+02  0.87853773114E+02  0.00000000000E+00 0. -1.
         23    2    1    2    0    0 -0.71022958803E+02 -0.50409998683E+02  0.12461017272E+03  0.17719731001E+03  0.91026165943E+02 0.  0.
         23    2    1    2    0    0  0.75118579476E+02  0.74146506279E+02  0.51606368122E+02  0.14920540491E+03  0.91970268283E+02 0.  0.
        -11    1    3    3    0    0 -0.61231408691E+02 -0.75104043039E+02  0.11101022954E+03  0.14735390647E+03  0.00000000000E+00 0.  1.
         11    1    3    3    0    0 -0.97915501119E+01  0.24694044356E+02  0.13599943182E+02  0.29843403539E+02  0.00000000000E+00 0. -1.
        -13    1    4    4    0    0  0.36630819725E+02  0.82576105444E+02  0.60615840858E+02  0.10878837395E+03  0.00000000000E+00 0.  1.
         13    1    4    4    0    0  0.38487759751E+02 -0.84295991642E+01 -0.90094727353E+01  0.40417030961E+02  0.00000000000E+00 0. -1.
         21    1    1    2  502  501 -0.40956206726E+01 -0.23736507597E+02 -0.13938226801E+01  0.24127549466E+02  0.00000000000E+00 0.  1.
<scales pt_clust_5="13000.00000" pt_clust_6="13000.00000" pt_clust_7="13000.00000" pt_clust_8="13000.00000" pt_clust_9="24.08726"></scales>
<clustering>
<clus scale="   24.087">  2  9  1 -1</clus>
<clus scale="   91.026">  5  6 -1 -1</clus>
<clus scale="   91.970">  7  8 -1 -1</clus>
<clus scale="  130.323">  1  5  2 -1</clus>
<clus scale="   24.087">  2  5  1 -1</clus>
</clustering>
</event>
<event>
 9    1  0.1713970E-005  0.1222292E+03  0.7546771E-02  0.1240125E+00
         -1   -1    0    0    0  501 -0.00000000000E+00  0.00000000000E+00  0.46966280686E+02  0.46966280686E+02  0.00000000000E+00 0.  1.
          1   -1    0    0  502    0  0.00000000000E+00 -0.00000000000E+00 -0.68554059444E+03  0.68554059444E+03  0.00000000000E+00 0. -1.
         23    2    1    2    0    0 -0.58221973112E+02 -0.22872465313E+02 -0.85935646086E+02  0.14008625098E+03  0.91248422573E+02 0.  0.
         23    2    1    2    0    0  0.86766146733E+02  0.47531460798E+01 -0.54327130973E+03  0.55733748045E+03  0.89052762559E+02 0.  0.
        -11    1    3    3    0    0 -0.69927873612E+02 -0.43099385900E+02 -0.82579027833E+02  0.11647643715E+03  0.00000000000E+00 0.  1.
         11    1    3    3    0    0  0.11705900500E+02  0.20226920587E+02 -0.33566182532E+01  0.23609813829E+02  0.00000000000E+00 0. -1.
        -13    1    4    4    0    0  0.75582539506E+02 -0.31505527858E+02 -0.43421346527E+03  0.44186723344E+03  0.00000000000E+00 0. -1.
         13    1    4    4    0    0  0.11183607227E+02  0.36258673938E+02 -0.10905784446E+03  0.11547024701E+03  0.00000000000E+00 0.  1.
         21    1    1    2  502  501 -0.28544173621E+02  0.18119319233E+02 -0.93673579374E+01  0.35083143701E+02  0.00000000000E+00 0.  1.
<scales pt_clust_5="13000.00000" pt_clust_6="13000.00000" pt_clust_7="13000.00000" pt_clust_8="13000.00000" pt_clust_9="33.80946"></scales>
<clustering>
<clus scale="   33.809">  1  9  2 -1</clus>
<clus scale="   89.053">  7  8 -1 -1</clus>
<clus scale="   91.248">  5  6 -1 -1</clus>
<clus scale="  120.599">  2  7  1 -1</clus>
<clus scale="  120.599">  2  5  1 -1</clus>
</clustering>
</event>
<event>
 9    1  0.1713970E-005  0.9152282E+02  0.7546771E-02  0.1299904E+00
         -2   -1    0    0    0  501 -0.00000000000E+00  0.00000000000E+00  0.87294561955E+02  0.87294561955E+02  0.00000000000E+00 0.  1.
          2   -1    0    0  502    0  0.00000000000E+00 -0.00000000000E+00 -0.25127745053E+03  0.25127745053E+03  0.00000000000E+00 0. -1.
         23    2    1    2    0    0  0.65336976447E+01  0.98247605568E+01  0.33999310808E+02  0.96599273896E+02  0.89645141847E+02 0.  0.
         23    2    1    2    0    0 -0.29356287670E+02  0.20362642113E+02 -0.16533262708E+03  0.19199129736E+03  0.90825942693E+02 0.  0.
        -11    1    3    3    0    0  0.19415144848E+01  0.48863188937E+02  0.82083446799E+01  0.49585861230E+02  0.00000000000E+00 0. -1.
         11    1    3    3    0    0  0.45921831599E+01 -0.39038428380E+02  0.25790966128E+02  0.47013412665E+02  0.00000000000E+00 0.  1.
        -11    1    4    4    0    0 -0.47385296653E+02  0.41736692038E+02 -0.14259610776E+03  0.15595181226E+03  0.00000000000E+00 0. -1.
         11    1    4    4    0    0  0.18029008983E+02 -0.21374049925E+02 -0.22736519320E+02  0.36039485095E+02  0.00000000000E+00 0.  1.
         21    1    1    2  502  501  0.22822590025E+02 -0.30187402670E+02 -0.32649572302E+02  0.49981441224E+02  0.00000000000E+00 0.  1.
<scales pt_clust_5="13000.00000" pt_clust_6="13000.00000" pt_clust_7="13000.00000" pt_clust_8="13000.00000" pt_clust_9="37.84376"></scales>
<clustering>
<clus scale="   37.844">  2  9  1 -1</clus>
<clus scale="   89.645">  5  6 -1 -1</clus>
<clus scale="   90.351">  1  5  2 -1</clus>
<clus scale="   90.826">  7  8 -1 -1</clus>
<clus scale="   37.844">  2  5  1 -1</clus>
</clustering>
</event>
<event>
 9    1  0.1713970E-005  0.1340829E+03  0.7546771E-02  0.1221970E+00
         -1   -1    0    0    0  501 -0.00000000000E+00  0.00000000000E+00  0.50550646778E+03  0.50550646778E+03  0.00000000000E+00 0.  1.
          1   -1    0    0  502    0  0.00000000000E+00 -0.00000000000E+00 -0.49023488224E+02  0.49023488224E+02  0.00000000000E+00 0. -1.
         23    2    1    2    0    0  0.85359494411E+02 -0.23411397628E+01  0.30007620517E+03  0.32383954138E+03  0.86802047377E+02 0.  0.
         23    2    1    2    0    0 -0.10667018833E+03  0.13841356112E+02  0.10729211858E+03  0.17593048342E+03  0.88712028880E+02 0.  0.
        -11    1    4    4    0    0 -0.81940435485E+02  0.41285354068E+02  0.10422948840E+03  0.13886144778E+03  0.00000000000E+00 0.  1.
         11    1    4    4    0    0 -0.24729752845E+02 -0.27443997956E+02  0.30626301890E+01  0.37069035639E+02  0.00000000000E+00 0. -1.
        -13    1    3    3    0    0 -0.27740805887E+01 -0.26090678807E+02  0.10853392551E+03  0.11166034225E+03  0.00000000000E+00 0. -1.
         13    1    3    3    0    0  0.88133574999E+02  0.23749539044E+02  0.19154227966E+03  0.21217919913E+03  0.00000000000E+00 0.  1.
         21    1    1    2  502  501  0.21310693919E+02 -0.11500216350E+02  0.49114655803E+02  0.54759931209E+02  0.00000000000E+00 0.  1.
<scales pt_clust_5="13000.00000" pt_clust_6="13000.00000" pt_clust_7="13000.00000" pt_clust_8="13000.00000" pt_clust_9="24.21571"></scales>
<clustering>
<clus scale="   24.216">  1  9  2 -1</clus>
<clus scale="   86.802">  7  8 -1 -1</clus>
<clus scale="   88.712">  5  6 -1 -1</clus>
<clus scale="  132.827">  1  7  2 -1</clus>
<clus scale="  134.083">  2  5  1 -1</clus>
</clustering>
</event>
<event>
 9    1  0.1713970E-005  0.9414891E+02  0.7546771E-02  0.1293181E+00
          1   -1    0    0  502    0  0.00000000000E+00  0.00000000000E+00  0.13393843992E+03  0.13393843992E+03  0.00000000000E+00 0. -1.
         -1   -1    0    0    0  501 -0.00000000000E+00 -0.00000000000E+00 -0.88872685857E+02  0.88872685857E+02  0.00000000000E+00 0.  1.
         23    2    1    2    0    0  0.25678616541E+02  0.65601116925E+01  0.16841722403E+01  0.95424185771E+02  0.91654309124E+02 0.  0.
         23    2    1    2    0    0 -0.61089778533E+01 -0.19372125552E+02  0.24044751580E+02  0.97038439857E+02  0.91791665594E+02 0.  0.
        -11    1    3    3    0    0  0.33612293022E+01  0.46927452841E+02 -0.94180895296E+01  0.47981080677E+02  0.00000000000E+00 0.  1.
         11    1    3    3    0    0  0.22317387238E+02 -0.40367341148E+02  0.11102261770E+02  0.47443105094E+02  0.00000000000E+00 0. -1.
        -13    1    4    4    0    0 -0.15609048859E+02  0.30671772955E+02 -0.99190616852E+01  0.35816027797E+02  0.00000000000E+00 0.  1.
         13    1    4    4    0    0  0.95000710062E+01 -0.50043898507E+02  0.33963813265E+02  0.61222412059E+02  0.00000000000E+00 0. -1.
         21    1    1    2  502  501 -0.19569638687E+02  0.12812013859E+02  0.19336830240E+02  0.30348500148E+02  0.00000000000E+00 0.  1.
<scales pt_clust_5="13000.00000" pt_clust_6="13000.00000" pt_clust_7="13000.00000" pt_clust_8="13000.00000" pt_clust_9="23.39056"></scales>
<clustering>
<clus scale="   23.391">  1  9  2 -1</clus>
<clus scale="   91.654">  5  6 -1 -1</clus>
<clus scale="   91.792">  7  8 -1 -1</clus>
<clus scale="   94.015">  2  5  1 -1</clus>
<clus scale="   23.391">  1  5  2 -1</clus>
</clustering>
</event>
<event>
 9    1  0.1713970E-005  0.3428620E+03  0.7546771E-02  0.1065630E+00
         -2   -1    0    0    0  501 -0.00000000000E+00  0.00000000000E+00  0.34313971635E+03  0.34313971635E+03  0.00000000000E+00 0.  1.
          2   -1    0    0  502    0  0.00000000000E+00 -0.00000000000E+00 -0.97653343087E+03  0.97653343087E+03  0.00000000000E+00 0. -1.
         23    2    1    2    0    0 -0.93130756261E+02  0.25203861266E+03  0.44581073528E+02  0.28739518078E+03  0.91715417387E+02 0.  0.
         23    2    1    2    0    0  0.28561483199E+02 -0.34545183116E+03 -0.79332046907E+03  0.87041429991E+03  0.90060873131E+02 0.  0.
        -13    1    3    3    0    0  0.15879938852E+02  0.65036633105E+02  0.32304415338E+01  0.67025158382E+02  0.00000000000E+00 0.  1.
         13    1    3    3    0    0 -0.10901069511E+03  0.18700197956E+03  0.41350631994E+02  0.22037002240E+03  0.00000000000E+00 0. -1.
        -13    1    4    4    0    0 -0.21608915716E+02 -0.30960153222E+02 -0.11533109213E+03  0.12135376854E+03  0.00000000000E+00 0.  1.
         13    1    4    4    0    0  0.50170398915E+02 -0.31449167794E+03 -0.67798937693E+03  0.74906053137E+03  0.00000000000E+00 0. -1.
         21    1    1    2  502  501  0.64569273061E+02  0.93413218503E+02  0.11534568101E+03  0.16186366653E+03  0.00000000000E+00 0. -1.
<scales pt_clust_5="13000.00000" pt_clust_6="13000.00000" pt_clust_7="13000.00000" pt_clust_8="13000.00000" pt_clust_9="113.55712"></scales>
<clustering>
<clus scale="   90.061">  7  8 -1 -1</clus>
<clus scale="   91.715">  5  6 -1 -1</clus>
<clus scale="  113.557">  1  9  2 -1</clus>
<clus scale="  342.423">  2  7  1 -1</clus>
<clus scale="  342.423">  2  5  1 -1</clus>
</clustering>
</event>
<event>
 9    1  0.1713970E-005  0.1077487E+03  0.7546771E-02  0.1265296E+00
         -2   -1    0    0    0  501 -0.00000000000E+00  0.00000000000E+00  0.20902446488E+03  0.20902446488E+03  0.00000000000E+00 0.  1.
          2   -1    0    0  502    0  0.00000000000E+00 -0.00000000000E+00 -0.29767681000E+03  0.29767681000E+03  0.00000000000E+00 0. -1.
         23    2    1    2    0    0  0.16603167628E+02  0.32594117378E+02 -0.63895931336E+02  0.11862381785E+03  0.93010098682E+02 0.  0.
         23    2    1    2    0    0 -0.34688970776E+01 -0.65853393538E+02 -0.18887299550E+03  0.22011037423E+03  0.91797961449E+02 0.  0.
        -11    1    4    4    0    0  0.20319500451E+02 -0.39253282192E+02 -0.17710080397E+03  0.18253327649E+03  0.00000000000E+00 0. -1.
         11    1    4    4    0    0 -0.23788397528E+02 -0.26600111346E+02 -0.11772191530E+02  0.37577097733E+02  0.00000000000E+00 0.  1.
        -13    1    3    3    0    0  0.38034293746E+02 -0.19723930706E+02 -0.33822160584E+02  0.54585524545E+02  0.00000000000E+00 0. -1.
         13    1    3    3    0    0 -0.21431126119E+02  0.52318048084E+02 -0.30073770752E+02  0.64038293304E+02  0.00000000000E+00 0.  1.
         21    1    1    2  502  501 -0.13134270550E+02  0.33259276160E+02  0.16411658172E+03  0.16796708281E+03  0.00000000000E+00 0.  1.
<scales pt_clust_5="13000.00000" pt_clust_6="13000.00000" pt_clust_7="13000.00000" pt_clust_8="13000.00000" pt_clust_9="35.75875"></scales>
<clustering>
<clus scale="   35.759">  1  9  2 -1</clus>
<clus scale="   91.798">  5  6 -1 -1</clus>
<clus scale="   93.010">  7  8 -1 -1</clus>
<clus scale="  106.704">  2  5  1 -1</clus>
<clus scale="  106.704">  2  5  1 -1</clus>
</clustering>
</event>
<event>
 9    1  0.1713970E-005  0.9788087E+02  0.7546771E-02  0.1286547E+00
         -1   -1    0    0    0  501 -0.00000000000E+00  0.00000000000E+00  0.12007451587E+03  0.12007451587E+03  0.00000000000E+00 0.  1.
          1   -1    0    0  502    0  0.00000000000E+00 -0.00000000000E+00 -0.12159429764E+03  0.12159429764E+03  0.00000000000E+00 0. -1.
         23    2    1    2    0    0 -0.23541437659E+02 -0.19939164045E+02  0.45320296628E+02  0.10380272387E+03  0.88143670489E+02 0.  0.
         23    2    1    2    0    0  0.10449717596E+02  0.36265268065E+02 -0.57397565655E+02  0.11442690570E+03  0.91513222754E+02 0.  0.
        -11    1    3    3    0    0 -0.56766626786E+02 -0.13674307366E+02  0.20595184655E+02  0.61916057930E+02  0.00000000000E+00 0.  1.
         11    1    3    3    0    0  0.33225189127E+02 -0.62648566798E+01  0.24725111973E+02  0.41886665943E+02  0.00000000000E+00 0. -1.
        -13    1    4    4    0    0  0.20184007929E+02 -0.19579498245E+02 -0.49857402113E+02  0.57240819989E+02  0.00000000000E+00 0. -1.
         13    1    4    4    0    0 -0.97342903331E+01  0.55844766309E+02 -0.75401635428E+01  0.57186085709E+02  0.00000000000E+00 0.  1.
         21    1    1    2  502  501  0.13091720063E+02 -0.16326104019E+02  0.10557487253E+02  0.23439183939E+02  0.00000000000E+00 0.  1.
<scales pt_clust_5="13000.00000" pt_clust_6="13000.00000" pt_clust_7="13000.00000" pt_clust_8="13000.00000" pt_clust_9="20.92689"></scales>
<clustering>
<clus scale="   20.927">  1  9  2 -1</clus>
<clus scale="   88.144">  5  6 -1 -1</clus>
<clus scale="   91.513">  7  8 -1 -1</clus>
<clus scale="   94.738">  1  5  2 -1</clus>
<clus scale="   97.881">  2  5  1 -1</clus>
</clustering>
</event>
<event>
 9    1  0.1713970E-005  0.1087115E+03  0.7546771E-02  0.1263088E+00
          2   -1    0    0  502    0  0.00000000000E+00  0.00000000000E+00  0.18835778471E+03  0.18835778471E+03  0.00000000000E+00 0. -1.
         -2   -1    0    0    0  501 -0.00000000000E+00 -0.00000000000E+00 -0.26132630871E+03  0.26132630871E+03  0.00000000000E+00 0.  1.
         23    2    1    2    0    0  0.34472936341E+02  0.43459462433E+02 -0.14864319539E+03  0.18260124569E+03  0.90395282934E+02 0.  0.
         23    2    1    2    0    0 -0.52012280933E+02 -0.31420084472E+02  0.15240040202E+03  0.18746241713E+03  0.90685038588E+02 0.  0.
        -13    1    4    4    0    0 -0.33530095302E+01 -0.31194714891E+02  0.44165379614E+01  0.31683729541E+02  0.00000000000E+00 0.  1.
         13    1    4    4    0    0 -0.48659271403E+02 -0.22536958056E+00  0.14798386406E+03  0.15577868758E+03  0.00000000000E+00 0. -1.
        -13    1    3    3    0    0  0.37702377440E+02  0.69728595876E+02 -0.10503713567E+03  0.13159158870E+03  0.00000000000E+00 0.  1.
         13    1    3    3    0    0 -0.32294410993E+01 -0.26269133443E+02 -0.43606059714E+02  0.51009656982E+02  0.00000000000E+00 0. -1.
         21    1    1    2  502  501  0.17539344592E+02 -0.12039377961E+02 -0.76725730631E+02  0.79620430615E+02  0.00000000000E+00 0.  1.
<scales pt_clust_5="13000.00000" pt_clust_6="13000.00000" pt_clust_7="13000.00000" pt_clust_8="13000.00000" pt_clust_9="21.27382"></scales>
<clustering>
<clus scale="   21.274">  2  9  1 -1</clus>
<clus scale="   90.395">  7  8 -1 -1</clus>
<clus scale="   90.685">  5  6 -1 -1</clus>
<clus scale="  108.470">  2  7  1 -1</clus>
<clus scale="  108.712">  1  5  2 -1</clus>
</clustering>
</event>
<event>
 9    1  0.1713970E-005  0.1071704E+03  0.7546771E-02  0.1266200E+00
          1   -1    0    0  502    0  0.00000000000E+00  0.00000000000E+00  0.29026461105E+03  0.29026461105E+03  0.00000000000E+00 0. -1.
         -1   -1    0    0    0  501 -0.00000000000E+00 -0.00000000000E+00 -0.74140517470E+02  0.74140517470E+02  0.00000000000E+00 0.  1.
         23    2    1    2    0    0  0.30125028267E+02  0.18865332690E+02 -0.18510529160E+01  0.97849376081E+02  0.91146343299E+02 0.  0.
         23    2    1    2    0    0 -0.58721522579E+02 -0.20550238659E+02  0.20978891234E+03  0.23676292067E+03  0.90414397872E+02 0.  0.
        -13    1    4    4    0    0 -0.32279524273E+02 -0.55878705670E+02  0.14056133337E+03  0.15466701611E+03  0.00000000000E+00 0. -1.
         13    1    4    4    0    0 -0.26441998307E+02  0.35328467010E+02  0.69227578970E+02  0.82095904562E+02  0.00000000000E+00 0.  1.
        -13    1    3    3    0    0 -0.22432768200E+02  0.22469266542E+02  0.23387618166E+02  0.39434473643E+02  0.00000000000E+00 0. -1.
         13    1    3    3    0    0  0.52557796468E+02 -0.36039338517E+01 -0.25238671082E+02  0.58414902437E+02  0.00000000000E+00 0.  1.
         21    1    1    2  502  501  0.28596494312E+02  0.16849059692E+01  0.81862341611E+01  0.29792831769E+02  0.00000000000E+00 0.  1.
<scales pt_clust_5="13000.00000" pt_clust_6="13000.00000" pt_clust_7="13000.00000" pt_clust_8="13000.00000" pt_clust_9="28.64609"></scales>
<clustering>
<clus scale="   28.646">  2  9  1 -1</clus>
<clus scale="   90.414">  5  6 -1 -1</clus>
<clus scale="   91.146">  7  8 -1 -1</clus>
<clus scale="  106.549">  1  5  2 -1</clus>
<clus scale="  106.549">  1  5  2 -1</clus>
</clustering>
</event>
<event>
 9    1  0.1713970E-005  0.1627569E+03  0.7546771E-02  0.1186036E+00
          2   -1    0    0  502    0  0.00000000000E+00  0.00000000000E+00  0.10862677159E+04  0.10862677159E+04  0.00000000000E+00 0. -1.
         -2   -1    0    0    0  501 -0.00000000000E+00 -0.00000000000E+00 -0.30969342592E+02  0.30969342592E+02  0.00000000000E+00 0.  1.
         23    2    1    2    0    0  0.47227545311E+02  0.10622600991E+03  0.29617668753E+03  0.33100708214E+03  0.91272405306E+02 0.  0.
         23    2    1    2    0    0 -0.56577429562E+02 -0.13090068734E+03  0.71236166640E+03  0.73253864135E+03  0.93902725357E+02 0.  0.
        -11    1    4    4    0    0 -0.73790178324E+02 -0.66816325192E+02  0.33849125390E+03  0.35282536855E+03  0.00000000000E+00 0. -1.
         11    1    4    4    0    0  0.17212748762E+02 -0.64084362150E+02  0.37387041250E+03  0.37971327280E+03  0.00000000000E+00 0.  1.
        -13    1    3    3    0    0  0.39100610209E+02  0.64009165820E+02  0.76401716344E+02  0.10706658343E+03  0.00000000000E+00 0.  1.
         13    1    3    3    0    0  0.81269351026E+01  0.42216844085E+02  0.21977497119E+03  0.22394049870E+03  0.00000000000E+00 0. -1.
         21    1    1    2  502  501  0.93498842504E+01  0.24674677437E+02  0.46760019324E+02  0.53691334956E+02  0.00000000000E+00 0.  1.
<scales pt_clust_5="13000.00000" pt_clust_6="13000.00000" pt_clust_7="13000.00000" pt_clust_8="13000.00000" pt_clust_9="26.38674"></scales>
<clustering>
<clus scale="   26.387">  2  9  1 -1</clus>
<clus scale="   91.272">  7  8 -1 -1</clus>
<clus scale="   93.903">  5  6 -1 -1</clus>
<clus scale="  161.254">  2  7  1 -1</clus>
<clus scale="  162.757">  1  5  2 -1</clus>
</clustering>
</event>
<event>
 9    1  0.1713970E-005  0.1042072E+03  0.7546771E-02  0.1272212E+00
         -1   -1    0    0    0  501 -0.00000000000E+00  0.00000000000E+00  0.23587387705E+03  0.23587387705E+03  0.00000000000E+00 0.  1.
          1   -1    0    0  502    0  0.00000000000E+00 -0.00000000000E+00 -0.23621201073E+03  0.23621201073E+03  0.00000000000E+00 0. -1.
         23    2    1    2    0    0 -0.26832819604E+01 -0.27971728453E+02  0.10199324619E+02  0.96182036741E+02  0.91418490330E+02 0.  0.
         23    2    1    2    0    0 -0.35061394588E+02  0.46355141729E+02 -0.17548156775E+03  0.20570053223E+03  0.90226535937E+02 0.  0.
        -11    1    3    3    0    0  0.34467720023E+02 -0.16571388313E+02 -0.23378626819E+02  0.44824042948E+02  0.00000000000E+00 0. -1.
         11    1    3    3    0    0 -0.37151001984E+02 -0.11400340140E+02  0.33577951438E+02  0.51357993793E+02  0.00000000000E+00 0.  1.
        -13    1    4    4    0    0 -0.22816960466E+02 -0.17356309943E+02 -0.14476776558E+02  0.32115918783E+02  0.00000000000E+00 0. -1.
         13    1    4    4    0    0 -0.12244434122E+02  0.63711451673E+02 -0.16100479119E+03  0.17358461345E+03  0.00000000000E+00 0.  1.
         21    1    1    2  502  501  0.37744676548E+02 -0.18383413276E+02  0.16494410945E+03  0.17020331881E+03  0.00000000000E+00 0.  1.
<scales pt_clust_5="13000.00000" pt_clust_6="13000.00000" pt_clust_7="13000.00000" pt_clust_8="13000.00000" pt_clust_9="41.98345"></scales>
<clustering>
<clus scale="   41.983">  1  9  2 -1</clus>
<clus scale="   90.227">  7  8 -1 -1</clus>
<clus scale="   91.418">  5  6 -1 -1</clus>
<clus scale="  103.163">  2  7  1 -1</clus>
<clus scale="  103.163">  2  5  1 -1</clus>
</clustering>
</event>
<event>
 9    1  0.1713970E-005  0.2188392E+03  0.7546771E-02  0.1160553E+00
          1   -1    0    0  502    0  0.00000000000E+00  0.00000000000E+00  0.45823314074E+03  0.45823314074E+03  0.00000000000E+00 0. -1.
         -1   -1    0    0    0  501 -0.00000000000E+00 -0.00000000000E+00 -0.25679767150E+03  0.25679767150E+03  0.00000000000E+00 0.  1.
         23    2    1    2    0    0 -0.53346419312E+02 -0.53872456591E+02 -0.63245052258E+02  0.13426357064E+03  0.90987294353E+02 0.  0.
         23    2    1    2    0    0  0.20815759033E+03  0.46408362404E+02  0.33751118274E+03  0.40951737563E+03  0.91144741810E+02 0.  0.
        -13    1    3    3    0    0  0.17186567214E+02 -0.41126741174E+02 -0.37017424350E+02  0.57940285102E+02  0.00000000000E+00 0. -1.
         13    1    3    3    0    0 -0.70532986526E+02 -0.12745715416E+02 -0.26227627908E+02  0.76323285539E+02  0.00000000000E+00 0.  1.
        -13    1    4    4    0    0  0.15537307452E+03  0.44153906589E+01  0.17789701913E+03  0.23623640146E+03  0.00000000000E+00 0.  1.
         13    1    4    4    0    0  0.52784515809E+02  0.41992971745E+02  0.15961416361E+03  0.17328097417E+03  0.00000000000E+00 0. -1.
         21    1    1    2  502  501 -0.15481117102E+03  0.74640941866E+01 -0.72830661238E+02  0.17124986596E+03  0.00000000000E+00 0.  1.
<scales pt_clust_5="13000.00000" pt_clust_6="13000.00000" pt_clust_7="13000.00000" pt_clust_8="13000.00000" pt_clust_9="198.95533"></scales>
<clustering>
<clus scale="   90.987">  5  6 -1 -1</clus>
<clus scale="   91.145">  7  8 -1 -1</clus>
<clus scale="  118.435">  2  5  1 -1</clus>
<clus scale="  198.955">  2  9  1 -1</clus>
<clus scale="  218.839">  1  5  2 -1</clus>
</clustering>
</event>
<event>
 9    1  0.1713970E-005  0.1059253E+03  0.7546771E-02  0.1269006E+00
         -1   -1    0    0    0  501 -0.00000000000E+00  0.00000000000E+00  0.49171030626E+02  0.49171030626E+02  0.00000000000E+00 0.  1.
          1   -1    0    0  502    0  0.00000000000E+00 -0.00000000000E+00 -0.39211412120E+03  0.39211412120E+03  0.00000000000E+00 0. -1.
         23    2    1    2    0    0  0.14445951313E+02 -0.69550033410E+02 -0.12804888853E+03  0.17072759570E+03  0.87780985559E+02 0.  0.
         23    2    1    2    0    0 -0.25012381338E+01  0.49405349640E+02 -0.22336688085E+03  0.24565232087E+03  0.89471529116E+02 0.  0.
        -11    1    4    4    0    0 -0.36044803061E+02  0.57154900066E+02 -0.13988508177E+03  0.15535039920E+03  0.00000000000E+00 0. -1.
         11    1    4    4    0    0  0.33543564927E+02 -0.77495504260E+01 -0.83481799073E+02  0.90301921665E+02  0.00000000000E+00 0.  1.
        -13    1    3    3    0    0  0.29893554243E+02  0.12382754397E+00 -0.77977644570E+01  0.30894094081E+02  0.00000000000E+00 0.  1.
         13    1    3    3    0    0 -0.15447602930E+02 -0.69673860954E+02 -0.12025112407E+03  0.13983350162E+03  0.00000000000E+00 0. -1.
         21    1    1    2  502  501 -0.11944713179E+02  0.20144683770E+02  0.84726787977E+01  0.24905235255E+02  0.00000000000E+00 0.  1.
<scales pt_clust_5="13000.00000" pt_clust_6="13000.00000" pt_clust_7="13000.00000" pt_clust_8="13000.00000" pt_clust_9="23.41975"></scales>
<clustering>
<clus scale="   23.420">  1  9  2 -1</clus>
<clus scale="   87.781">  7  8 -1 -1</clus>
<clus scale="   89.472">  5  6 -1 -1</clus>
<clus scale="  104.501">  1  7  2 -1</clus>
<clus scale="  105.925">  2  5  1 -1</clus>
</clustering>
</event>
<event>
 9    1  0.1713970E-005  0.1181997E+03  0.7546771E-02  0.1247326E+00
          1   -1    0    0  502    0  0.00000000000E+00  0.00000000000E+00  0.51949643506E+03  0.51949643506E+03  0.00000000000E+00 0. -1.
         -1   -1    0    0    0  501 -0.00000000000E+00 -0.00000000000E+00 -0.69881055380E+02  0.69881055380E+02  0.00000000000E+00 0.  1.
         23    2    1    2    0    0  0.83241252441E+01 -0.56904392695E+02  0.10039536762E+03  0.14525193933E+03  0.87815118702E+02 0.  0.
         23    2    1    2    0    0  0.28217080065E+02  0.80020554956E+02  0.37400345267E+03  0.39428745753E+03  0.91567045030E+02 0.  0.
        -11    1    4    4    0    0 -0.31406323638E+02  0.20696017513E+02  0.78474716951E+02  0.87022775788E+02  0.00000000000E+00 0.  1.
         11    1    4    4    0    0  0.59623403703E+02  0.59324537443E+02  0.29552873572E+03  0.30726468174E+03  0.00000000000E+00 0. -1.
        -11    1    3    3    0    0  0.25097399600E+02 -0.72642037338E+02  0.93919339959E+02  0.12135727203E+03  0.00000000000E+00 0.  1.
         11    1    3    3    0    0 -0.16773274356E+02  0.15737644643E+02  0.64760276568E+01  0.23894667308E+02  0.00000000000E+00 0. -1.
         21    1    1    2  502  501 -0.36541205310E+02 -0.23116162261E+02 -0.24783440603E+02  0.49838093576E+02  0.00000000000E+00 0.  1.
<scales pt_clust_5="13000.00000" pt_clust_6="13000.00000" pt_clust_7="13000.00000" pt_clust_8="13000.00000" pt_clust_9="43.23906"></scales>
<clustering>
<clus scale="   43.239">  2  9  1 -1</clus>
<clus scale="   87.815">  7  8 -1 -1</clus>
<clus scale="   91.567">  5  6 -1 -1</clus>
<clus scale="  115.318">  2  7  1 -1</clus>
<clus scale="  118.200">  1  5  2 -1</clus>
</clustering>
</event>
<event>
 9    1  0.1713970E-005  0.1358856E+03  0.7546771E-02  0.1235904E+00
          1   -1    0    0  502    0  0.00000000000E+00  0.00000000000E+00  0.10649964827E+04  0.10649964827E+04  0.00000000000E+00 0. -1.
         -1   -1    0    0    0  501 -0.00000000000E+00 -0.00000000000E+00 -0.36694953309E+02  0.36694953309E+02  0.00000000000E+00 0.  1.
         23    2    1    2    0    0 -0.59542051074E+01  0.18472666176E+02  0.90264402326E+02  0.13151959590E+03  0.93664560126E+02 0.  0.
         23    2    1    2    0    0 -0.19322616616E+02  0.84605851288E+02  0.33629601673E+03  0.35914282087E+03  0.91416854763E+02 0.  0.
        -13    1    3    3    0    0  0.30386971727E+02 -0.24721430740E+02  0.38684469944E+02  0.55054567508E+02  0.00000000000E+00 0. -1.
         13    1    3    3    0    0 -0.36341176835E+02  0.43194096915E+02  0.51579932382E+02  0.76465028390E+02  0.00000000000E+00 0.  1.
        -13    1    4    4    0    0 -0.43707196790E+02  0.85858943154E+02  0.30234134987E+03  0.31732060918E+03  0.00000000000E+00 0.  1.
         13    1    4    4    0    0  0.24384580174E+02 -0.12530918655E+01  0.33954666856E+02  0.41822211692E+02  0.00000000000E+00 0. -1.
         21    1    1    2  502  501  0.25276821724E+02 -0.10307851746E+03  0.60174111039E+03  0.61102901929E+03  0.00000000000E+00 0. -1.
<scales pt_clust_5="13000.00000" pt_clust_6="13000.00000" pt_clust_7="13000.00000" pt_clust_8="13000.00000" pt_clust_9="100.53786"></scales>
<clustering>
<clus scale="   91.417">  7  8 -1 -1</clus>
<clus scale="   93.665">  5  6 -1 -1</clus>
<clus scale="   95.654">  2  5  1 -1</clus>
<clus scale="  100.538">  1  9  2 -1</clus>
<clus scale="  100.538">  1  5  2 -1</clus>
</clustering>
</event>
<event>
 9    1  0.1713970E-005  0.9502779E+02  0.7546771E-02  0.1292665E+00
         -1   -1    0    0    0  501 -0.00000000000E+00  0.00000000000E+00  0.34283725759E+03  0.34283725759E+03  0.00000000000E+00 0.  1.
          1   -1    0    0  502    0  0.00000000000E+00 -0.00000000000E+00 -0.47366352732E+02  0.47366352732E+02  0.00000000000E+00 0. -1.
         23    2    1    2    0    0 -0.46312250652E+01  0.12038323853E+02  0.19984492331E+03  0.22062543041E+03  0.92580871053E+02 0.  0.
         23    2    1    2    0    0  0.21597817338E+02  0.21088313761E+02  0.40412577174E+02  0.10299169933E+03  0.89793825214E+02 0.  0.
        -13    1    3    3    0    0 -0.16533602261E+02 -0.25738796135E+02  0.20183687359E+02  0.36650059558E+02  0.00000000000E+00 0.  1.
         13    1    3    3    0    0  0.11902377196E+02  0.37777119988E+02  0.17966123595E+03  0.18397537086E+03  0.00000000000E+00 0. -1.
        -13    1    4    4    0    0 -0.27753808317E+02  0.29486112213E+02  0.32091679893E+01  0.40620234474E+02  0.00000000000E+00 0. -1.
         13    1    4    4    0    0  0.49351625656E+02 -0.83977984514E+01  0.37203409185E+02  0.62371464859E+02  0.00000000000E+00 0.  1.
         21    1    1    2  502  501 -0.16966592273E+02 -0.33126637615E+02  0.55213404374E+02  0.66586480577E+02  0.00000000000E+00 0.  1.
<scales pt_clust_5="13000.00000" pt_clust_6="13000.00000" pt_clust_7="13000.00000" pt_clust_8="13000.00000" pt_clust_9="37.21880"></scales>
<clustering>
<clus scale="   37.219">  1  9  2 -1</clus>
<clus scale="   89.794">  7  8 -1 -1</clus>
<clus scale="   92.315">  2  7  1 -1</clus>
<clus scale="   92.581">  5  6 -1 -1</clus>
<clus scale="   92.315">  2  5  1 -1</clus>
</clustering>
</event>
<event>
 9    1  0.1713970E-005  0.2707507E+03  0.7546771E-02  0.1113655E+00
         -1   -1    0    0    0  501 -0.00000000000E+00  0.00000000000E+00  0.20736737811E+03  0.20736737811E+03  0.00000000000E+00 0.  1.
          1   -1    0    0  502    0  0.00000000000E+00 -0.00000000000E+00 -0.85512848655E+03  0.85512848655E+03  0.00000000000E+00 0. -1.
         23    2    1    2    0    0  0.87195893593E+02  0.27028702660E+03 -0.20555022932E+01  0.29797764768E+03  0.90156823478E+02 0.  0.
         23    2    1    2    0    0  0.85883330142E+02 -0.14901738570E+03 -0.26457042048E+03  0.32871232757E+03  0.92044333168E+02 0.  0.
        -11    1    3    3    0    0  0.40625842241E+02  0.14160293194E+03 -0.45856108921E+02  0.15428749826E+03  0.00000000000E+00 0.  1.
         11    1    3    3    0    0  0.46570051352E+02  0.12868409466E+03  0.43800606628E+02  0.14369014942E+03  0.00000000000E+00 0. -1.
        -13    1    4    4    0    0  0.53682634567E+02 -0.14004546894E+03 -0.25148997495E+03  0.29281694986E+03  0.00000000000E+00 0.  1.
         13    1    4    4    0    0  0.32200695575E+02 -0.89719167595E+01 -0.13080445528E+02  0.35895377712E+02  0.00000000000E+00 0. -1.
         21    1    1    2  502  501 -0.17307922373E+03 -0.12126964090E+03 -0.38113518567E+03  0.43580588941E+03  0.00000000000E+00 0. -1.
<scales pt_clust_5="13000.00000" pt_clust_6="13000.00000" pt_clust_7="13000.00000" pt_clust_8="13000.00000" pt_clust_9="255.29919"></scales>
<clustering>
<clus scale="   90.157">  5  6 -1 -1</clus>
<clus scale="   92.044">  7  8 -1 -1</clus>
<clus scale="  195.075">  2  7  1 -1</clus>
<clus scale="  255.299">  2  9  1 -1</clus>
<clus scale="  195.075">  2  5  1 -1</clus>
</clustering>
</event>
<event>
 9    1  0.1713970E-005  0.1013103E+03  0.7546771E-02  0.1277676E+00
          2   -1    0    0  502    0  0.00000000000E+00  0.00000000000E+00  0.19535923713E+03  0.19535923713E+03  0.00000000000E+00 0. -1.
         -2   -1    0    0    0  501 -0.00000000000E+00 -0.00000000000E+00 -0.67566944349E+02  0.67566944349E+02  0.00000000000E+00 0.  1.
         23    2    1    2    0    0  0.49779084285E+02  0.85848727692E+01  0.40677004644E+02  0.11293468049E+03  0.92455211204E+02 0.  0.
         23    2    1    2    0    0 -0.34992714329E+02  0.70737699312E+01  0.79226263440E+02  0.12705536054E+03  0.92691615302E+02 0.  0.
        -11    1    4    4    0    0 -0.41393367232E+01  0.25970271886E+02  0.86275751725E+02  0.90194758529E+02  0.00000000000E+00 0.  1.
         11    1    4    4    0    0 -0.30853377606E+02 -0.18896501955E+02 -0.70494882855E+01  0.36860602015E+02  0.00000000000E+00 0. -1.
        -13    1    3    3    0    0  0.14609073415E+02 -0.21067625068E+02  0.58287770944E+02  0.63676793997E+02  0.00000000000E+00 0. -1.
         13    1    3    3    0    0  0.35170010870E+02  0.29652497837E+02 -0.17610766300E+02  0.49257886498E+02  0.00000000000E+00 0.  1.
         21    1    1    2  502  501 -0.14786369956E+02 -0.15658642700E+02  0.78890246976E+01  0.22936140442E+02  0.00000000000E+00 0. -1.
<scales pt_clust_5="13000.00000" pt_clust_6="13000.00000" pt_clust_7="13000.00000" pt_clust_8="13000.00000" pt_clust_9="21.53671"></scales>
<clustering>
<clus scale="   21.537">  2  9  1 -1</clus>
<clus scale="   92.455">  7  8 -1 -1</clus>
<clus scale="   92.692">  5  6 -1 -1</clus>
<clus scale="  101.094">  2  7  1 -1</clus>
<clus scale="  101.310">  1  5  2 -1</clus>
</clustering>
</event>
<event>
 9    1  0.1713970E-005  0.1173642E+03  0.7546771E-02  0.1247532E+00
          2   -1    0    0  502    0  0.00000000000E+00  0.00000000000E+00  0.13963839524E+03  0.13963839524E+03  0.00000000000E+00 0. -1.
         -2   -1    0    0    0  501 -0.00000000000E+00 -0.00000000000E+00 -0.22263599320E+03  0.22263599320E+03  0.00000000000E+00 0.  1.
         23    2    1    2    0    0 -0.89532083667E+01  0.21101648129E+02 -0.58286252466E+02  0.11030806960E+03  0.90802772522E+02 0.  0.
         23    2    1    2    0    0  0.67111608336E+02 -0.84262236786E+02  0.37623168720E+02  0.14586612512E+03  0.90869858104E+02 0.  0.
        -13    1    4    4    0    0  0.15625403170E+02  0.19531940708E+02  0.82517567215E+01  0.26338971526E+02  0.00000000000E+00 0. -1.
         13    1    4    4    0    0  0.51486205166E+02 -0.10379417749E+03  0.29371411998E+02  0.11952715360E+03  0.00000000000E+00 0.  1.
        -13    1    3    3    0    0 -0.19401119274E+02  0.43230707659E+02 -0.31747821747E+00  0.47385633964E+02  0.00000000000E+00 0. -1.
         13    1    3    3    0    0  0.10447910907E+02 -0.22129059530E+02 -0.57968774249E+02  0.62922435632E+02  0.00000000000E+00 0.  1.
         21    1    1    2  502  501 -0.58158399969E+02  0.63160588657E+02 -0.62334514207E+02  0.10610019372E+03  0.00000000000E+00 0. -1.
<scales pt_clust_5="13000.00000" pt_clust_6="13000.00000" pt_clust_7="13000.00000" pt_clust_8="13000.00000" pt_clust_9="85.85837"></scales>
<clustering>
<clus scale="   85.858">  2  9  1 -1</clus>
<clus scale="   90.803">  7  8 -1 -1</clus>
<clus scale="   90.870">  5  6 -1 -1</clus>
<clus scale="  117.312">  2  7  1 -1</clus>
<clus scale="  117.364">  1  5  2 -1</clus>
</clustering>
</event>
<event>
 9    1  0.1713970E-005  0.1490009E+03  0.7546771E-02  0.1201778E+00
         -3   -1    0    0    0  501 -0.00000000000E+00  0.00000000000E+00  0.23719111370E+03  0.23719111370E+03  0.00000000000E+00 0.  1.
          3   -1    0    0  502    0  0.00000000000E+00 -0.00000000000E+00 -0.24478103395E+03  0.24478103395E+03  0.00000000000E+00 0. -1.
         23    2    1    2    0    0  0.44445943313E+02 -0.44406496587E+02  0.13743639046E+03  0.17677352994E+03  0.91720993492E+02 0.  0.
         23    2    1    2    0    0 -0.11433342111E+03  0.58729953465E+02 -0.16755387344E+03  0.23038610504E+03  0.92098416233E+02 0.  0.
        -13    1    3    3    0    0  0.52968499488E+02 -0.65941968355E+02  0.87339921382E+02  0.12158234656E+03  0.00000000000E+00 0.  1.
         13    1    3    3    0    0 -0.85225561749E+01  0.21535471768E+02  0.50096469083E+02  0.55191183377E+02  0.00000000000E+00 0. -1.
        -13    1    4    4    0    0  0.17826218562E+01  0.37301036538E+02 -0.23494672844E+02  0.44119663638E+02  0.00000000000E+00 0.  1.
         13    1    4    4    0    0 -0.11611604297E+03  0.21428916927E+02 -0.14405920060E+03  0.18626644140E+03  0.00000000000E+00 0. -1.
         21    1    1    2  502  501  0.69887477799E+02 -0.14323456878E+02  0.22527562731E+02  0.74812512674E+02  0.00000000000E+00 0.  1.
<scales pt_clust_5="13000.00000" pt_clust_6="13000.00000" pt_clust_7="13000.00000" pt_clust_8="13000.00000" pt_clust_9="71.34018"></scales>
<clustering>
<clus scale="   71.340">  1  9  2 -1</clus>
<clus scale="   91.721">  5  6 -1 -1</clus>
<clus scale="   92.098">  7  8 -1 -1</clus>
<clus scale="  148.768">  1  5  2 -1</clus>
<clus scale="  149.001">  2  5  1 -1</clus>
</clustering>
</event>
<event>
 9    1  0.1713970E-005  0.1249482E+03  0.7546771E-02  0.1235945E+00
         -2   -1    0    0    0  501 -0.00000000000E+00  0.00000000000E+00  0.77031504138E+02  0.77031504138E+02  0.00000000000E+00 0.  1.
          2   -1    0    0  502    0  0.00000000000E+00 -0.00000000000E+00 -0.33821851336E+03  0.33821851336E+03  0.00000000000E+00 0. -1.
         23    2    1    2    0    0  0.49040960368E+02 -0.43379026512E+02 -0.10189604548E+02  0.11398035462E+03  0.92741239278E+02 0.  0.
         23    2    1    2    0    0 -0.77275489959E+02  0.45371340258E+02 -0.23874641703E+03  0.27042740821E+03  0.90005953132E+02 0.  0.
        -11    1    4    4    0    0 -0.24692110899E+02  0.51155490692E+01 -0.28091380978E+01  0.25372434644E+02  0.00000000000E+00 0.  1.
         11    1    4    4    0    0 -0.52583379060E+02  0.40255791188E+02 -0.23593727893E+03  0.24505497356E+03  0.00000000000E+00 0. -1.
        -13    1    3    3    0    0  0.14433898276E+02  0.20682556855E+02  0.22841170458E+02  0.34026822440E+02  0.00000000000E+00 0.  1.
         13    1    3    3    0    0  0.34607062092E+02 -0.64061583367E+02 -0.33030775006E+02  0.79953532177E+02  0.00000000000E+00 0. -1.
         21    1    1    2  502  501  0.28234529591E+02 -0.19923137452E+01 -0.12250987647E+02  0.30842254678E+02  0.00000000000E+00 0.  1.
<scales pt_clust_5="13000.00000" pt_clust_6="13000.00000" pt_clust_7="13000.00000" pt_clust_8="13000.00000" pt_clust_9="28.30473"></scales>
<clustering>
<clus scale="   28.305">  1  9  2 -1</clus>
<clus scale="   90.006">  5  6 -1 -1</clus>
<clus scale="   92.741">  7  8 -1 -1</clus>
<clus scale="  122.932">  2  5  1 -1</clus>
<clus scale="  122.932">  2  5  1 -1</clus>
</clustering>
</event>
<event>
 9    1  0.1713970E-005  0.1479638E+03  0.7546771E-02  0.1203311E+00
         -3   -1    0    0    0  501 -0.00000000000E+00  0.00000000000E+00  0.13345401722E+03  0.13345401722E+03  0.00000000000E+00 0.  1.
          3   -1    0    0  502    0  0.00000000000E+00 -0.00000000000E+00 -0.25617657593E+03  0.25617657593E+03  0.00000000000E+00 0. -1.
         23    2    1    2    0    0  0.87943719468E+02  0.67772802267E+02  0.21395537517E+02  0.14489992969E+03  0.90614403260E+02 0.  0.
         23    2    1    2    0    0 -0.80121732175E+02 -0.88736190942E+02 -0.15894774730E+03  0.21788730859E+03  0.88976903320E+02 0.  0.
        -13    1    3    3    0    0 -0.61707684879E+01  0.35526320778E+02  0.27318489697E+02  0.45238233067E+02  0.00000000000E+00 0.  1.
         13    1    3    3    0    0  0.94114487956E+02  0.32246481490E+02 -0.59229521798E+01  0.99661696625E+02  0.00000000000E+00 0. -1.
        -13    1    4    4    0    0  0.14825807871E+02 -0.16124173447E+02 -0.41208274519E+01  0.22288444703E+02  0.00000000000E+00 0. -1.
         13    1    4    4    0    0 -0.94947540046E+02 -0.72612017495E+02 -0.15482691985E+03  0.19559886389E+03  0.00000000000E+00 0.  1.
         21    1    1    2  502  501 -0.78219872929E+01  0.20963388674E+02  0.14829651072E+02  0.26843354873E+02  0.00000000000E+00 0. -1.
<scales pt_clust_5="13000.00000" pt_clust_6="13000.00000" pt_clust_7="13000.00000" pt_clust_8="13000.00000" pt_clust_9="22.37515"></scales>
<clustering>
<clus scale="   22.375">  1  9  2 -1</clus>
<clus scale="   88.977">  7  8 -1 -1</clus>
<clus scale="   90.614">  5  6 -1 -1</clus>
<clus scale="  146.967">  2  7  1 -1</clus>
<clus scale="  146.967">  2  5  1 -1</clus>
</clustering>
</event>
<event>
 9    1  0.1713970E-005  0.1221246E+03  0.7546771E-02  0.1244428E+00
          1   -1    0    0  502    0  0.00000000000E+00  0.00000000000E+00  0.67797802842E+02  0.67797802842E+02  0.00000000000E+00 0. -1.
         -1   -1    0    0    0  501 -0.00000000000E+00 -0.00000000000E+00 -0.47207486630E+03  0.47207486630E+03  0.00000000000E+00 0.  1.
         23    2    1    2    0    0 -0.12702425076E+02  0.71781865382E+02 -0.31518947249E+03  0.33630969826E+03  0.91901152182E+02 0.  0.
         23    2    1    2    0    0  0.59919465333E+02 -0.59183454544E+02 -0.14696420789E+02  0.11455614504E+03  0.76250258787E+02 0.  0.
        -11    1    4    4    0    0 -0.16450182349E+02 -0.19402659570E+02 -0.12680780952E+02  0.28423122686E+02  0.00000000000E+00 0.  1.
         11    1    4    4    0    0  0.76369647683E+02 -0.39780794974E+02 -0.20156398379E+01  0.86133022355E+02  0.00000000000E+00 0. -1.
        -13    1    3    3    0    0 -0.43060168621E+02  0.62725700119E+02 -0.15092078664E+03  0.16901412786E+03  0.00000000000E+00 0.  1.
         13    1    3    3    0    0  0.30357743545E+02  0.90561652630E+01 -0.16426868586E+03  0.16729557040E+03  0.00000000000E+00 0. -1.
         21    1    1    2  502  501 -0.47217040257E+02 -0.12598410838E+02 -0.74391170180E+02  0.89006825846E+02  0.00000000000E+00 0.  1.
<scales pt_clust_5="13000.00000" pt_clust_6="13000.00000" pt_clust_7="13000.00000" pt_clust_8="13000.00000" pt_clust_9="48.86889"></scales>
<clustering>
<clus scale="   48.869">  2  9  1 -1</clus>
<clus scale="   76.250">  5  6 -1 -1</clus>
<clus scale="   91.901">  7  8 -1 -1</clus>
<clus scale="  110.827">  1  5  2 -1</clus>
<clus scale="  110.827">  1  5  2 -1</clus>
</clustering>
</event>
<event>
 9    1  0.1713970E-005  0.1089242E+03  0.7546771E-02  0.1263457E+00
          1   -1    0    0  502    0  0.00000000000E+00  0.00000000000E+00  0.52019765799E+02  0.52019765799E+02  0.00000000000E+00 0. -1.
         -1   -1    0    0    0  501 -0.00000000000E+00 -0.00000000000E+00 -0.45112291400E+03  0.45112291400E+03  0.00000000000E+00 0.  1.
         23    2    1    2    0    0 -0.18018758598E+02 -0.58993426058E+02 -0.23202504308E+03  0.25679479296E+03  0.91121046392E+02 0.  0.
         23    2    1    2    0    0 -0.44727169685E+02  0.61189202336E+02 -0.93513844372E+02  0.14963401292E+03  0.88886784969E+02 0.  0.
        -11    1    3    3    0    0  0.16738529398E+02  0.18418178743E+02 -0.60788045948E+02  0.65685570750E+02  0.00000000000E+00 0. -1.
         11    1    3    3    0    0 -0.34757287996E+02 -0.77411604801E+02 -0.17123699713E+03  0.19110922221E+03  0.00000000000E+00 0.  1.
        -13    1    4    4    0    0 -0.68687087076E+02  0.32217452343E+02 -0.44827533379E+02  0.88121438454E+02  0.00000000000E+00 0. -1.
         13    1    4    4    0    0  0.23959917391E+02  0.28971749993E+02 -0.48686310993E+02  0.61512574464E+02  0.00000000000E+00 0.  1.
         21    1    1    2  502  501  0.62745928283E+02 -0.21957762779E+01 -0.73564260750E+02  0.96713873923E+02  0.00000000000E+00 0.  1.
<scales pt_clust_5="13000.00000" pt_clust_6="13000.00000" pt_clust_7="13000.00000" pt_clust_8="13000.00000" pt_clust_9="62.78434"></scales>
<clustering>
<clus scale="   62.784">  1  9  2 -1</clus>
<clus scale="   88.887">  7  8 -1 -1</clus>
<clus scale="   91.121">  5  6 -1 -1</clus>
<clus scale="  107.062">  1  7  2 -1</clus>
<clus scale="   62.784">  1  5  2 -1</clus>
</clustering>
</event>
<event>
 9    1  0.1713970E-005  0.9814732E+02  0.7546771E-02  0.1285933E+00
          3   -1    0    0  502    0  0.00000000000E+00  0.00000000000E+00  0.20373338516E+03  0.20373338516E+03  0.00000000000E+00 0. -1.
         -3   -1    0    0    0  501 -0.00000000000E+00 -0.00000000000E+00 -0.12490768892E+03  0.12490768892E+03  0.00000000000E+00 0.  1.
         23    2    1    2    0    0 -0.14597089644E+02 -0.42256056777E+02 -0.75257643794E+02  0.12588594023E+03  0.90470479371E+02 0.  0.
         23    2    1    2    0    0 -0.17193601911E+01  0.27322720039E+02  0.15185023496E+03  0.18052412308E+03  0.93706872355E+02 0.  0.
        -11    1    4    4    0    0  0.28407268847E+02 -0.39350971608E+01  0.12762946886E+03  0.13081184669E+03  0.00000000000E+00 0.  1.
         11    1    4    4    0    0 -0.30126629039E+02  0.31257817200E+02  0.24220766100E+02  0.49712276389E+02  0.00000000000E+00 0. -1.
        -11    1    3    3    0    0 -0.16719070344E+02 -0.63785098481E+02 -0.23864912872E+02  0.70125602798E+02  0.00000000000E+00 0. -1.
         11    1    3    3    0    0  0.21219806997E+01  0.21529041704E+02 -0.51392730922E+02  0.55760337431E+02  0.00000000000E+00 0.  1.
         21    1    1    2  502  501  0.16316449835E+02  0.14933336737E+02  0.22331050705E+01  0.22231010764E+02  0.00000000000E+00 0.  1.
<scales pt_clust_5="13000.00000" pt_clust_6="13000.00000" pt_clust_7="13000.00000" pt_clust_8="13000.00000" pt_clust_9="22.11857"></scales>
<clustering>
<clus scale="   22.119">  2  9  1 -1</clus>
<clus scale="   90.470">  7  8 -1 -1</clus>
<clus scale="   93.707">  5  6 -1 -1</clus>
<clus scale="   95.062">  2  7  1 -1</clus>
<clus scale="   98.147">  1  5  2 -1</clus>
</clustering>
</event>
<event>
 9    1  0.1713970E-005  0.1167059E+03  0.7546771E-02  0.1256843E+00
          2   -1    0    0  502    0  0.00000000000E+00  0.00000000000E+00  0.33176191559E+03  0.33176191559E+03  0.00000000000E+00 0. -1.
         -2   -1    0    0    0  501 -0.00000000000E+00 -0.00000000000E+00 -0.69079022011E+02  0.69079022011E+02  0.00000000000E+00 0.  1.
         23    2    1    2    0    0 -0.13376676524E+02  0.33252286299E+02  0.16977123477E+02  0.11743431784E+03  0.11053481925E+03 0.  0.
         23    2    1    2    0    0  0.33004361039E+02 -0.20651662257E+02  0.23927358732E+03  0.25921168845E+03  0.91777289343E+02 0.  0.
        -11    1    3    3    0    0 -0.46897770343E+01  0.67913167595E+02  0.35941923250E+02  0.76980609171E+02  0.00000000000E+00 0.  1.
         11    1    3    3    0    0 -0.86868994902E+01 -0.34660881296E+02 -0.18964799773E+02  0.40453708673E+02  0.00000000000E+00 0. -1.
        -13    1    4    4    0    0 -0.14795938793E+02 -0.44043574552E+02  0.10933811416E+03  0.11880058700E+03  0.00000000000E+00 0. -1.
         13    1    4    4    0    0  0.47800299831E+02  0.23391912294E+02  0.12993547316E+03  0.14041110145E+03  0.00000000000E+00 0.  1.
         21    1    1    2  502  501 -0.19627684514E+02 -0.12600624041E+02  0.64321827851E+01  0.24194931308E+02  0.00000000000E+00 0. -1.
<scales pt_clust_5="13000.00000" pt_clust_6="13000.00000" pt_clust_7="13000.00000" pt_clust_8="13000.00000" pt_clust_9="23.32427"></scales>
<clustering>
<clus scale="   23.324">  2  9  1 -1</clus>
<clus scale="   91.777">  7  8 -1 -1</clus>
<clus scale="   99.123">  1  7  2 -1</clus>
<clus scale="  110.535">  5  6 -1 -1</clus>
<clus scale="   99.123">  1  5  2 -1</clus>
</clustering>
</event>
<event>
 9    1  0.1713970E-005  0.1227550E+03  0.7546771E-02  0.1239961E+00
          1   -1    0    0  502    0  0.00000000000E+00  0.00000000000E+00  0.46050253125E+03  0.46050253125E+03  0.00000000000E+00 0. -1.
         -1   -1    0    0    0  501 -0.00000000000E+00 -0.00000000000E+00 -0.10332913164E+03  0.10332913164E+03  0.00000000000E+00 0.  1.
         23    2    1    2    0    0 -0.53123806316E+02  0.91864769642E+02  0.99898772976E+02  0.17425853220E+03  0.95524847573E+02 0.  0.
         23    2    1    2    0    0  0.10357357331E+02 -0.69546845513E+02  0.30235089880E+03  0.32355094344E+03  0.91242032130E+02 0.  0.
        -13    1    4    4    0    0  0.41442328169E+02 -0.50817199534E+02  0.11210525423E+03  0.12987471794E+03  0.00000000000E+00 0.  1.
         13    1    4    4    0    0 -0.31084970838E+02 -0.18729645979E+02  0.19024564456E+03  0.19367622550E+03  0.00000000000E+00 0. -1.
        -13    1    3    3    0    0 -0.15684746769E+02  0.99112849633E+02  0.51956201703E+02  0.11299918203E+03  0.00000000000E+00 0.  1.
         13    1    3    3    0    0 -0.37439059547E+02 -0.72480799910E+01  0.47942571273E+02  0.61259350173E+02  0.00000000000E+00 0. -1.
         21    1    1    2  502  501  0.42766448985E+02 -0.22317924129E+02 -0.45076272163E+02  0.66022187243E+02  0.00000000000E+00 0.  1.
<scales pt_clust_5="13000.00000" pt_clust_6="13000.00000" pt_clust_7="13000.00000" pt_clust_8="13000.00000" pt_clust_9="48.23960"></scales>
<clustering>
<clus scale="   48.240">  2  9  1 -1</clus>
<clus scale="   91.242">  5  6 -1 -1</clus>
<clus scale="   95.525">  7  8 -1 -1</clus>
<clus scale="  119.453">  1  5  2 -1</clus>
<clus scale="  119.453">  1  5  2 -1</clus>
</clustering>
</event>
<event>
 9    1  0.1713970E-005  0.1058689E+03  0.7546771E-02  0.1269758E+00
          2   -1    0    0  502    0  0.00000000000E+00  0.00000000000E+00  0.91944908294E+02  0.91944908294E+02  0.00000000000E+00 0. -1.
         -2   -1    0    0    0  501 -0.00000000000E+00 -0.00000000000E+00 -0.32169374438E+03  0.32169374438E+03  0.00000000000E+00 0.  1.
         23    2    1    2    0    0  0.67020774595E+01 -0.19430002887E+02 -0.21247794851E+03  0.23216790426E+03  0.91283154602E+02 0.  0.
         23    2    1    2    0    0 -0.54110537919E+02  0.99368677728E+01  0.30618078405E+02  0.11341904159E+03  0.94338330576E+02 0.  0.
        -11    1    4    4    0    0 -0.76906683902E+02  0.23875178389E+02  0.32026383347E+02  0.86662283620E+02  0.00000000000E+00 0. -1.
         11    1    4    4    0    0  0.22796145983E+02 -0.13938310616E+02 -0.14083049420E+01  0.26756757975E+02  0.00000000000E+00 0.  1.
        -11    1    3    3    0    0 -0.21593361944E+02  0.25023483533E+02 -0.40374370189E+02  0.52177943389E+02  0.00000000000E+00 0. -1.
         11    1    3    3    0    0  0.28295439403E+02 -0.44453486420E+02 -0.17210357832E+03  0.17998996087E+03  0.00000000000E+00 0.  1.
         21    1    1    2  502  501  0.47408460459E+02  0.94931351145E+01 -0.47888965987E+02  0.68051706817E+02  0.00000000000E+00 0.  1.
<scales pt_clust_5="13000.00000" pt_clust_6="13000.00000" pt_clust_7="13000.00000" pt_clust_8="13000.00000" pt_clust_9="48.34958"></scales>
<clustering>
<clus scale="   48.350">  2  9  1 -1</clus>
<clus scale="   91.283">  7  8 -1 -1</clus>
<clus scale="   94.338">  5  6 -1 -1</clus>
<clus scale="  103.156">  2  7  1 -1</clus>
<clus scale="  105.869">  1  5  2 -1</clus>
</clustering>
</event>
<event>
 9    1  0.1713970E-005  0.1047581E+03  0.7546771E-02  0.1270973E+00
          1   -1    0    0  502    0  0.00000000000E+00  0.00000000000E+00  0.56941821238E+03  0.56941821238E+03  0.00000000000E+00 0. -1.
         -1   -1    0    0    0  501 -0.00000000000E+00 -0.00000000000E+00 -0.40116574068E+02  0.40116574068E+02  0.00000000000E+00 0.  1.
         23    2    1    2    0    0  0.38359183829E+02 -0.18723870794E+02  0.92653418338E+02  0.13616102854E+03  0.90184030972E+02 0.  0.
         23    2    1    2    0    0 -0.54907399353E+02 -0.18724511613E+02  0.41126774744E+03  0.42520329841E+03  0.91056329031E+02 0.  0.
        -11    1    3    3    0    0  0.60097354764E+02 -0.37215488161E+02  0.72253916619E+02  0.10108072554E+03  0.00000000000E+00 0.  1.
         11    1    3    3    0    0 -0.21738170935E+02  0.18491617367E+02  0.20399501719E+02  0.35080303003E+02  0.00000000000E+00 0. -1.
        -11    1    4    4    0    0 -0.65511613250E+02 -0.41309543036E+02  0.35935131310E+03  0.36760252454E+03  0.00000000000E+00 0. -1.
         11    1    4    4    0    0  0.10604213897E+02  0.22585031423E+02  0.51916434335E+02  0.57600773873E+02  0.00000000000E+00 0.  1.
         21    1    1    2  502  501  0.16548215524E+02  0.37448382407E+02  0.25380472535E+02  0.48170459496E+02  0.00000000000E+00 0.  1.
<scales pt_clust_5="13000.00000" pt_clust_6="13000.00000" pt_clust_7="13000.00000" pt_clust_8="13000.00000" pt_clust_9="40.94172"></scales>
<clustering>
<clus scale="   40.942">  2  9  1 -1</clus>
<clus scale="   90.184">  5  6 -1 -1</clus>
<clus scale="   91.056">  7  8 -1 -1</clus>
<clus scale="  104.001">  2  5  1 -1</clus>
<clus scale="  104.758">  1  5  2 -1</clus>
</clustering>
</event>
<event>
 9    1  0.1713970E-005  0.9909856E+02  0.7546771E-02  0.1282772E+00
          2   -1    0    0  502    0  0.00000000000E+00  0.00000000000E+00  0.50440252952E+03  0.50440252952E+03  0.00000000000E+00 0. -1.
         -2   -1    0    0    0  501 -0.00000000000E+00 -0.00000000000E+00 -0.32420559574E+02  0.32420559574E+02  0.00000000000E+00 0.  1.
         23    2    1    2    0    0 -0.18630660315E+02  0.15540513744E+02  0.10572110330E+03  0.14178906508E+03  0.91315815835E+02 0.  0.
         23    2    1    2    0    0  0.50569848007E+02 -0.33848084539E+02  0.26010432247E+03  0.28267526499E+03  0.92455635385E+02 0.  0.
        -11    1    4    4    0    0  0.60358144581E+02 -0.36274170678E+00  0.85739526993E+02  0.10485467890E+03  0.00000000000E+00 0.  1.
         11    1    4    4    0    0 -0.97882965734E+01 -0.33485342832E+02  0.17436479547E+03  0.17782058608E+03  0.00000000000E+00 0. -1.
        -13    1    3    3    0    0 -0.31665858645E+02 -0.31777308039E+02  0.42937263471E+02  0.62097765695E+02  0.00000000000E+00 0. -1.
         13    1    3    3    0    0  0.13035198330E+02  0.47317821783E+02  0.62783839831E+02  0.79691299385E+02  0.00000000000E+00 0.  1.
         21    1    1    2  502  501 -0.31939187692E+02  0.18307570795E+02  0.10615654418E+03  0.11235875903E+03  0.00000000000E+00 0. -1.
<scales pt_clust_5="13000.00000" pt_clust_6="13000.00000" pt_clust_7="13000.00000" pt_clust_8="13000.00000" pt_clust_9="36.81411"></scales>
<clustering>
<clus scale="   36.814">  1  9  2 -1</clus>
<clus scale="   91.316">  7  8 -1 -1</clus>
<clus scale="   92.456">  5  6 -1 -1</clus>
<clus scale="   98.036">  2  7  1 -1</clus>
<clus scale="   36.814">  1  5  2 -1</clus>
</clustering>
</event>
<event>
 9    1  0.1713970E-005  0.9438263E+02  0.7546771E-02  0.1293166E+00
          1   -1    0    0  502    0  0.00000000000E+00  0.00000000000E+00  0.13150292880E+03  0.13150292880E+03  0.00000000000E+00 0. -1.
         -1   -1    0    0    0  501 -0.00000000000E+00 -0.00000000000E+00 -0.10712441146E+03  0.10712441146E+03  0.00000000000E+00 0.  1.
         23    2    1    2    0    0 -0.13385051623E+01  0.21363547466E+02 -0.30256965628E+02  0.98730130775E+02  0.91509354699E+02 0.  0.
         23    2    1    2    0    0 -0.19407774308E+02 -0.89852703229E+01  0.63377700987E+02  0.11420564992E+03  0.92567816786E+02 0.  0.
        -13    1    3    3    0    0 -0.42647124953E+02  0.17555210576E+02  0.20282673131E+01  0.46163584712E+02  0.00000000000E+00 0.  1.
         13    1    3    3    0    0  0.41308619791E+02  0.38083368898E+01 -0.32285232941E+02  0.52566546063E+02  0.00000000000E+00 0. -1.
        -13    1    4    4    0    0 -0.25475350882E+02  0.14041264346E+02  0.80027140011E+02  0.85149831153E+02  0.00000000000E+00 0.  1.
         13    1    4    4    0    0  0.60675765745E+01 -0.23026534669E+02 -0.16649439024E+02  0.29055818766E+02  0.00000000000E+00 0. -1.
         21    1    1    2  502  501  0.20746279470E+02 -0.12378277143E+02 -0.87422180236E+01  0.25691559564E+02  0.00000000000E+00 0. -1.
<scales pt_clust_5="13000.00000" pt_clust_6="13000.00000" pt_clust_7="13000.00000" pt_clust_8="13000.00000" pt_clust_9="24.15843"></scales>
<clustering>
<clus scale="   24.158">  2  9  1 -1</clus>
<clus scale="   91.509">  5  6 -1 -1</clus>
<clus scale="   92.568">  7  8 -1 -1</clus>
<clus scale="   93.345">  2  5  1 -1</clus>
<clus scale="   94.383">  1  5  2 -1</clus>
</clustering>
</event>
<event>
 9    1  0.1713970E-005  0.1044475E+03  0.7546771E-02  0.1273077E+00
          2   -1    0    0  502    0  0.00000000000E+00  0.00000000000E+00  0.75252393800E+02  0.75252393800E+02  0.00000000000E+00 0. -1.
         -2   -1    0    0    0  501 -0.00000000000E+00 -0.00000000000E+00 -0.21195252244E+03  0.21195252244E+03  0.00000000000E+00 0.  1.
         23    2    1    2    0    0  0.26203062438E+02 -0.50405793416E+02 -0.10868926381E+03  0.15290237445E+03  0.91315034648E+02 0.  0.
         23    2    1    2    0    0 -0.96344705083E+01  0.35814547112E+02 -0.50512252634E+01  0.10245026156E+03  0.95367900311E+02 0.  0.
        -13    1    3    3    0    0  0.19450498017E+01 -0.43556252021E+02 -0.24005799893E+01  0.43665696984E+02  0.00000000000E+00 0. -1.
         13    1    3    3    0    0  0.24258012637E+02 -0.68495413947E+01 -0.10628868382E+03  0.10923667746E+03  0.00000000000E+00 0.  1.
        -13    1    4    4    0    0 -0.30094533779E+02  0.14133024375E+02  0.37741406742E+02  0.50297486261E+02  0.00000000000E+00 0.  1.
         13    1    4    4    0    0  0.20460063270E+02  0.21681522737E+02 -0.42792632005E+02  0.52152775296E+02  0.00000000000E+00 0. -1.
         21    1    1    2  502  501 -0.16568591930E+02  0.14591246304E+02 -0.22959639562E+02  0.31852280234E+02  0.00000000000E+00 0.  1.
<scales pt_clust_5="13000.00000" pt_clust_6="13000.00000" pt_clust_7="13000.00000" pt_clust_8="13000.00000" pt_clust_9="22.07765"></scales>
<clustering>
<clus scale="   22.078">  2  9  1 -1</clus>
<clus scale="   91.315">  5  6 -1 -1</clus>
<clus scale="   95.368">  7  8 -1 -1</clus>
<clus scale="  100.761">  2  5  1 -1</clus>
<clus scale="  104.448">  1  5  2 -1</clus>
</clustering>
</event>
<event>
 9    1  0.1713970E-005  0.9572639E+02  0.7546771E-02  0.1290354E+00
         -1   -1    0    0    0  501 -0.00000000000E+00  0.00000000000E+00  0.23414458422E+03  0.23414458422E+03  0.00000000000E+00 0.  1.
          1   -1    0    0  502    0  0.00000000000E+00 -0.00000000000E+00 -0.89928552083E+02  0.89928552083E+02  0.00000000000E+00 0. -1.
         23    2    1    2    0    0 -0.38597576735E+02  0.13243558702E+02  0.44396939888E+02  0.10974425771E+03  0.91692688105E+02 0.  0.
         23    2    1    2    0    0  0.18115926787E+02 -0.10918112151E+02 -0.18293013940E+02  0.94431525350E+02  0.90195823876E+02 0.  0.
        -11    1    4    4    0    0 -0.28442200110E+02 -0.29320115181E+02 -0.17293426957E+02  0.44358657749E+02  0.00000000000E+00 0.  1.
         11    1    4    4    0    0  0.46558126897E+02  0.18402003030E+02 -0.99958698291E+00  0.50072867602E+02  0.00000000000E+00 0. -1.
        -13    1    3    3    0    0 -0.67138812081E+01 -0.30408447646E+02 -0.10341788711E+02  0.32813144971E+02  0.00000000000E+00 0. -1.
         13    1    3    3    0    0 -0.31883695527E+02  0.43652006348E+02  0.54738728599E+02  0.76931112739E+02  0.00000000000E+00 0.  1.
         21    1    1    2  502  501  0.20481649948E+02 -0.23254465508E+01  0.11811210619E+03  0.11989735324E+03  0.00000000000E+00 0.  1.
<scales pt_clust_5="13000.00000" pt_clust_6="13000.00000" pt_clust_7="13000.00000" pt_clust_8="13000.00000" pt_clust_9="20.61324"></scales>
<clustering>
<clus scale="   20.613">  1  9  2 -1</clus>
<clus scale="   90.196">  5  6 -1 -1</clus>
<clus scale="   91.693">  7  8 -1 -1</clus>
<clus scale="   94.294">  2  5  1 -1</clus>
<clus scale="   94.294">  2  5  1 -1</clus>
</clustering>
</event>
<event>
 9    1  0.1713970E-005  0.1000157E+03  0.7546771E-02  0.1280732E+00
          1   -1    0    0  502    0  0.00000000000E+00  0.00000000000E+00  0.10577988177E+03  0.10577988177E+03  0.00000000000E+00 0. -1.
         -1   -1    0    0    0  501 -0.00000000000E+00 -0.00000000000E+00 -0.17206975963E+03  0.17206975963E+03  0.00000000000E+00 0.  1.
         23    2    1    2    0    0 -0.54406153121E+02  0.17475431785E+02 -0.41922559982E+02  0.11666432000E+03  0.92669532821E+02 0.  0.
         23    2    1    2    0    0  0.26530650686E+02 -0.11493134636E+02  0.29206216964E+02  0.10049796561E+03  0.91710797694E+02 0.  0.
        -11    1    4    4    0    0 -0.34026789715E+02 -0.10436015106E+02  0.11168831698E+02  0.37302488270E+02  0.00000000000E+00 0.  1.
         11    1    4    4    0    0  0.60557440401E+02 -0.10571195297E+01  0.18037385267E+02  0.63195477345E+02  0.00000000000E+00 0. -1.
        -13    1    3    3    0    0 -0.48167974364E+02  0.52969843522E+02 -0.19440129595E+02  0.74188117079E+02  0.00000000000E+00 0.  1.
         13    1    3    3    0    0 -0.62381787563E+01 -0.35494411738E+02 -0.22482430387E+02  0.42476202925E+02  0.00000000000E+00 0. -1.
         21    1    1    2  502  501  0.27875502435E+02 -0.59822971489E+01 -0.53573534846E+02  0.60687355776E+02  0.00000000000E+00 0.  1.
<scales pt_clust_5="13000.00000" pt_clust_6="13000.00000" pt_clust_7="13000.00000" pt_clust_8="13000.00000" pt_clust_9="28.51020"></scales>
<clustering>
<clus scale="   28.510">  2  9  1 -1</clus>
<clus scale="   91.711">  5  6 -1 -1</clus>
<clus scale="   92.670">  7  8 -1 -1</clus>
<clus scale="   99.128">  1  5  2 -1</clus>
<clus scale="   99.128">  1  5  2 -1</clus>
</clustering>
</event>
<event>
 9    1  0.1713970E-005  0.1068788E+03  0.7546771E-02  0.1274532E+00
         -1   -1    0    0    0  501 -0.00000000000E+00  0.00000000000E+00  0.64013388339E+02  0.64013388339E+02  0.00000000000E+00 0.  1.
          1   -1    0    0  502    0  0.00000000000E+00 -0.00000000000E+00 -0.25818186293E+03  0.25818186293E+03  0.00000000000E+00 0. -1.
         23    2    1    2    0    0 -0.30209258484E+01 -0.12765046576E+02 -0.53078405272E+02  0.11967116007E+03  0.10645091375E+03 0.  0.
         23    2    1    2    0    0  0.10367635914E+02 -0.11623585943E+02 -0.14951669766E+03  0.17569523342E+03  0.90944909374E+02 0.  0.
        -11    1    4    4    0    0 -0.21825048498E+02  0.30035230004E+02 -0.42527627151E+02  0.56453935686E+02  0.00000000000E+00 0. -1.
         11    1    4    4    0    0  0.32192684412E+02 -0.41658815946E+02 -0.10698907051E+03  0.11924129773E+03  0.00000000000E+00 0.  1.
        -11    1    3    3    0    0  0.45602507806E+02  0.15292825913E+02 -0.38664297714E+02  0.61712131387E+02  0.00000000000E+00 0.  1.
         11    1    3    3    0    0 -0.48623433655E+02 -0.28057872489E+02 -0.14414107558E+02  0.57959028682E+02  0.00000000000E+00 0. -1.
         21    1    1    2  502  501 -0.73467100659E+01  0.24388632519E+02  0.84266283401E+01  0.26828857786E+02  0.00000000000E+00 0.  1.
<scales pt_clust_5="13000.00000" pt_clust_6="13000.00000" pt_clust_7="13000.00000" pt_clust_8="13000.00000" pt_clust_9="25.47115"></scales>
<clustering>
<clus scale="   25.471">  1  9  2 -1</clus>
<clus scale="   90.945">  5  6 -1 -1</clus>
<clus scale="   91.445">  2  5  1 -1</clus>
<clus scale="  106.451">  7  8 -1 -1</clus>
<clus scale="   91.445">  2  5  1 -1</clus>
</clustering>
</event>
<event>
 9    1  0.1713970E-005  0.2080640E+03  0.7546771E-02  0.1143198E+00
          2   -1    0    0  502    0  0.00000000000E+00  0.00000000000E+00  0.75223150579E+03  0.75223150579E+03  0.00000000000E+00 0. -1.
         -2   -1    0    0    0  501 -0.00000000000E+00 -0.00000000000E+00 -0.10935836110E+03  0.10935836110E+03  0.00000000000E+00 0.  1.
         23    2    1    2    0    0  0.17566850789E+03  0.43279763224E+02  0.53949025521E+02  0.20891609012E+03  0.89458777042E+02 0.  0.
         23    2    1    2    0    0 -0.18716221086E+03 -0.26431664280E+02  0.59545776446E+03  0.63125761075E+03  0.90486992567E+02 0.  0.
        -11    1    4    4    0    0 -0.99804916414E+02 -0.53835033101E+02  0.26260818242E+03  0.28604595715E+03  0.00000000000E+00 0.  1.
         11    1    4    4    0    0 -0.87357294451E+02  0.27403368821E+02  0.33284958204E+03  0.34521165359E+03  0.00000000000E+00 0. -1.
        -13    1    3    3    0    0  0.73393092859E+02 -0.21792900860E+02  0.82490881247E+00  0.76564724788E+02  0.00000000000E+00 0.  1.
         13    1    3    3    0    0  0.10227541503E+03  0.65072664084E+02  0.53124116709E+02  0.13235136534E+03  0.00000000000E+00 0. -1.
         21    1    1    2  502  501  0.11493702977E+02 -0.16848098944E+02 -0.65336452883E+01  0.21416166018E+02  0.00000000000E+00 0. -1.
<scales pt_clust_5="13000.00000" pt_clust_6="13000.00000" pt_clust_7="13000.00000" pt_clust_8="13000.00000" pt_clust_9="20.39519"></scales>
<clustering>
<clus scale="   20.395">  2  9  1 -1</clus>
<clus scale="   89.459">  7  8 -1 -1</clus>
<clus scale="   90.487">  5  6 -1 -1</clus>
<clus scale="  207.619">  2  7  1 -1</clus>
<clus scale="  208.064">  1  5  2 -1</clus>
</clustering>
</event>
<event>
 9    1  0.1713970E-005  0.1400526E+03  0.7546771E-02  0.1213728E+00
         -2   -1    0    0    0  501 -0.00000000000E+00  0.00000000000E+00  0.38002032538E+03  0.38002032538E+03  0.00000000000E+00 0.  1.
          2   -1    0    0  502    0  0.00000000000E+00 -0.00000000000E+00 -0.11418240366E+03  0.11418240366E+03  0.00000000000E+00 0. -1.
         23    2    1    2    0    0 -0.12926194390E+03 -0.15151182213E+02  0.26928043086E+03  0.31269970014E+03  0.91274002667E+02 0.  0.
         23    2    1    2    0    0  0.10163352547E+03  0.74138647766E+01 -0.34000815052E+02  0.13958637771E+03  0.89128909605E+02 0.  0.
        -11    1    3    3    0    0 -0.21642626799E+02 -0.32310208113E+02  0.13092621720E+03  0.13657974664E+03  0.00000000000E+00 0. -1.
         11    1    3    3    0    0 -0.10761931710E+03  0.17159025900E+02  0.13835421366E+03  0.17611995350E+03  0.00000000000E+00 0.  1.
        -13    1    4    4    0    0  0.60998272186E+02  0.10820073493E+02  0.25880528370E+02  0.67139146173E+02  0.00000000000E+00 0.  1.
         13    1    4    4    0    0  0.40635253281E+02 -0.34062087163E+01 -0.59881343421E+02  0.72447231534E+02  0.00000000000E+00 0. -1.
         21    1    1    2  502  501  0.27628418435E+02  0.77373174366E+01  0.30558305916E+02  0.41916651188E+02  0.00000000000E+00 0.  1.
<scales pt_clust_5="13000.00000" pt_clust_6="13000.00000" pt_clust_7="13000.00000" pt_clust_8="13000.00000" pt_clust_9="28.69139"></scales>
<clustering>
<clus scale="   28.691">  1  9  2 -1</clus>
<clus scale="   89.129">  7  8 -1 -1</clus>
<clus scale="   91.274">  5  6 -1 -1</clus>
<clus scale="  138.664">  2  7  1 -1</clus>
<clus scale="  138.664">  2  5  1 -1</clus>
</clustering>
</event>
<event>
 9    1  0.1713970E-005  0.1069399E+03  0.7546771E-02  0.1268965E+00
         -1   -1    0    0    0  501 -0.00000000000E+00  0.00000000000E+00  0.17611501608E+02  0.17611501608E+02  0.00000000000E+00 0.  1.
          1   -1    0    0  502    0  0.00000000000E+00 -0.00000000000E+00 -0.10134442201E+04  0.10134442201E+04  0.00000000000E+00 0. -1.
         23    2    1    2    0    0 -0.26742749241E+02 -0.58068781911E+02 -0.47453458233E+03  0.48720354728E+03  0.89983712868E+02 0.  0.
         23    2    1    2    0    0  0.60770592040E+01  0.33429524621E+02 -0.48409111341E+03  0.49467365995E+03  0.95934144052E+02 0.  0.
        -11    1    4    4    0    0 -0.22895164095E+01  0.66679248046E+02 -0.28983706003E+03  0.29741702267E+03  0.00000000000E+00 0.  1.
         11    1    4    4    0    0  0.83665756135E+01 -0.33249723424E+02 -0.19425405338E+03  0.19725663728E+03  0.00000000000E+00 0. -1.
        -13    1    3    3    0    0  0.26123497724E+02 -0.44535918302E+02 -0.16481790780E+03  0.17271603250E+03  0.00000000000E+00 0.  1.
         13    1    3    3    0    0 -0.52866246965E+02 -0.13532863610E+02 -0.30971667453E+03  0.31448751477E+03  0.00000000000E+00 0. -1.
         21    1    1    2  502  501  0.20665690037E+02  0.24639257290E+02 -0.37207022723E+02  0.49178514459E+02  0.00000000000E+00 0. -1.
<scales pt_clust_5="13000.00000" pt_clust_6="13000.00000" pt_clust_7="13000.00000" pt_clust_8="13000.00000" pt_clust_9="32.15842"></scales>
<clustering>
<clus scale="   32.158">  1  9  2 -1</clus>
<clus scale="   89.984">  7  8 -1 -1</clus>
<clus scale="   95.934">  5  6 -1 -1</clus>
<clus scale="  101.636">  1  7  2 -1</clus>
<clus scale="  106.940">  2  5  1 -1</clus>
</clustering>
</event>
<event>
 9    1  0.1713970E-005  0.1689650E+03  0.7546771E-02  0.1179500E+00
          2   -1    0    0  502    0  0.00000000000E+00  0.00000000000E+00  0.15445651979E+03  0.15445651979E+03  0.00000000000E+00 0. -1.
         -2   -1    0    0    0  501 -0.00000000000E+00 -0.00000000000E+00 -0.25627766233E+03  0.25627766233E+03  0.00000000000E+00 0.  1.
         23    2    1    2    0    0  0.15301611056E+03  0.10989028257E+02 -0.46920752470E+02  0.18684853876E+03  0.95792121760E+02 0.  0.
         23    2    1    2    0    0 -0.12947965621E+03 -0.95034190757E+01  0.53544858313E+01  0.15917998838E+03  0.91947277473E+02 0.  0.
        -11    1    3    3    0    0  0.40751214624E+02 -0.35410149466E+02 -0.35988144917E+02  0.64882098864E+02  0.00000000000E+00 0. -1.
         11    1    3    3    0    0  0.11226489594E+03  0.46399177722E+02 -0.10932607554E+02  0.12196643990E+03  0.00000000000E+00 0.  1.
        -13    1    4    4    0    0 -0.32369226271E+02 -0.44825320407E+02 -0.39215329159E+01  0.55429726496E+02  0.00000000000E+00 0.  1.
         13    1    4    4    0    0 -0.97110429938E+02  0.35321901332E+02  0.92760187471E+01  0.10375026188E+03  0.00000000000E+00 0. -1.
         21    1    1    2  502  501 -0.23536454350E+02 -0.14856091810E+01 -0.60254875897E+02  0.64705654987E+02  0.00000000000E+00 0.  1.
<scales pt_clust_5="13000.00000" pt_clust_6="13000.00000" pt_clust_7="13000.00000" pt_clust_8="13000.00000" pt_clust_9="23.58329"></scales>
<clustering>
<clus scale="   23.583">  2  9  1 -1</clus>
<clus scale="   91.947">  7  8 -1 -1</clus>
<clus scale="   95.792">  5  6 -1 -1</clus>
<clus scale="  166.815">  1  7  2 -1</clus>
<clus scale="  166.815">  1  5  2 -1</clus>
</clustering>
</event>
<event>
 9    1  0.1713970E-005  0.1196195E+03  0.7546771E-02  0.1244251E+00
         -2   -1    0    0    0  501 -0.00000000000E+00  0.00000000000E+00  0.31458790754E+03  0.31458790754E+03  0.00000000000E+00 0.  1.
          2   -1    0    0  502    0  0.00000000000E+00 -0.00000000000E+00 -0.13133954359E+03  0.13133954359E+03  0.00000000000E+00 0. -1.
         23    2    1    2    0    0  0.53483992906E+02  0.22127610792E+02  0.23088896171E+03  0.25537575220E+03  0.92503478405E+02 0.  0.
         23    2    1    2    0    0 -0.72205479171E+02 -0.29808002670E+02 -0.85785432764E+02  0.14737171624E+03  0.90868773673E+02 0.  0.
        -11    1    3    3    0    0  0.20142032265E+02 -0.16215409485E+02  0.84450459116E+01  0.27202201547E+02  0.00000000000E+00 0.  1.
         11    1    3    3    0    0  0.33341960641E+02  0.38343020277E+02  0.22244391579E+03  0.22817355065E+03  0.00000000000E+00 0. -1.
        -13    1    4    4    0    0 -0.32110974051E+02 -0.22942927843E+02  0.12175691377E+02  0.41300605964E+02  0.00000000000E+00 0.  1.
         13    1    4    4    0    0 -0.40094505120E+02 -0.68650748276E+01 -0.97961124140E+02  0.10607111028E+03  0.00000000000E+00 0. -1.
         21    1    1    2  502  501  0.18721486265E+02  0.76803918786E+01  0.38144835002E+02  0.43179982685E+02  0.00000000000E+00 0.  1.
<scales pt_clust_5="13000.00000" pt_clust_6="13000.00000" pt_clust_7="13000.00000" pt_clust_8="13000.00000" pt_clust_9="20.23567"></scales>
<clustering>
<clus scale="   20.236">  1  9  2 -1</clus>
<clus scale="   90.869">  7  8 -1 -1</clus>
<clus scale="   92.503">  5  6 -1 -1</clus>
<clus scale="  118.360">  2  7  1 -1</clus>
<clus scale="  118.360">  2  5  1 -1</clus>
</clustering>
</event>
<event>
 9    1  0.1713970E-005  0.1304240E+03  0.7546771E-02  0.1229611E+00
         -2   -1    0    0    0  501 -0.00000000000E+00  0.00000000000E+00  0.34859762449E+03  0.34859762449E+03  0.00000000000E+00 0.  1.
          2   -1    0    0  502    0  0.00000000000E+00 -0.00000000000E+00 -0.38509336282E+03  0.38509336282E+03  0.00000000000E+00 0. -1.
         23    2    1    2    0    0  0.14505411502E+03 -0.59410172557E+02  0.14231206392E+03  0.23305843963E+03  0.97433299541E+02 0.  0.
         23    2    1    2    0    0 -0.82261803770E+02  0.10107923535E+02 -0.31806657203E+03  0.34011279479E+03  0.87413925996E+02 0.  0.
        -11    1    3    3    0    0  0.73721170002E+02 -0.18115844684E+02  0.91669318419E+01  0.76465857574E+02  0.00000000000E+00 0. -1.
         11    1    3    3    0    0  0.71332945016E+02 -0.41294327873E+02  0.13314513208E+03  0.15659258206E+03  0.00000000000E+00 0.  1.
        -13    1    4    4    0    0  0.71827431740E+01  0.27784531709E+02 -0.62620892303E+02  0.68883584072E+02  0.00000000000E+00 0.  1.
         13    1    4    4    0    0 -0.89444546944E+02 -0.17676608174E+02 -0.25544567972E+03  0.27122921071E+03  0.00000000000E+00 0. -1.
         21    1    1    2  502  501 -0.62792311249E+02  0.49302249022E+02  0.13925876977E+03  0.16051975289E+03  0.00000000000E+00 0.  1.
<scales pt_clust_5="13000.00000" pt_clust_6="13000.00000" pt_clust_7="13000.00000" pt_clust_8="13000.00000" pt_clust_9="79.83474"></scales>
<clustering>
<clus scale="   79.835">  1  9  2 -1</clus>
<clus scale="   87.414">  7  8 -1 -1</clus>
<clus scale="   97.433">  5  6 -1 -1</clus>
<clus scale="  123.119">  2  7  1 -1</clus>
<clus scale="  123.119">  2  5  1 -1</clus>
</clustering>
</event>
<event>
 9    1  0.4347217E-005  0.2899194E+03  0.7546771E-02  0.1090482E+00
          2   -1    0    0  502    0  0.00000000000E+00  0.00000000000E+00  0.12827716879E+04  0.12827716879E+04  0.00000000000E+00 0. -1.
         -2   -1    0    0    0  501 -0.00000000000E+00 -0.00000000000E+00 -0.17313181899E+03  0.17313181899E+03  0.00000000000E+00 0.  1.
         23    2    1    2    0    0 -0.17844053037E+03 -0.17809021938E+03 -0.11554655270E+02  0.26791720676E+03  0.89938704141E+02 0.  0.
         23    2    1    2    0    0  0.20150994143E+03  0.19145139531E+03  0.11236822222E+04  0.11612111738E+04  0.92139895139E+02 0.  0.
        -11    1    3    3    0    0 -0.13782141305E+03 -0.15260065956E+03  0.25655382580E+02  0.20721945336E+03  0.00000000000E+00 0.  1.
         11    1    3    3    0    0 -0.40619117320E+02 -0.25489559819E+02 -0.37210037850E+02  0.60697753405E+02  0.00000000000E+00 0. -1.
        -13    1    4    4    0    0  0.20068145480E+03  0.16372612998E+03  0.10686073884E+04  0.10995458347E+04  0.00000000000E+00 0. -1.
         13    1    4    4    0    0  0.82848662308E+00  0.27725265338E+02  0.55074833798E+02  0.61665339097E+02  0.00000000000E+00 0.  1.
         21    1    1    2  502  501 -0.23069411056E+02 -0.13361175930E+02 -0.24876980711E+01  0.26775126338E+02  0.00000000000E+00 0.  1.
<scales pt_clust_5="13000.00000" pt_clust_6="13000.00000" pt_clust_7="13000.00000" pt_clust_8="13000.00000" pt_clust_9="26.65931"></scales>
<clustering>
<clus scale="   26.659">  2  9  1 -1</clus>
<clus scale="   89.939">  5  6 -1 -1</clus>
<clus scale="   92.140">  7  8 -1 -1</clus>
<clus scale="  289.227">  2  5  1 -1</clus>
<clus scale="  289.919">  1  5  2 -1</clus>
</clustering>
</event>
<event>
 9    1  0.1713970E-005  0.9785996E+02  0.7546771E-02  0.1287432E+00
         -1   -1    0    0    0  501 -0.00000000000E+00  0.00000000000E+00  0.33886395168E+02  0.33886395168E+02  0.00000000000E+00 0.  1.
          1   -1    0    0  502    0  0.00000000000E+00 -0.00000000000E+00 -0.46231427642E+03  0.46231427642E+03  0.00000000000E+00 0. -1.
         23    2    1    2    0    0 -0.13184447482E+02  0.30974832145E+02 -0.17245463685E+03  0.19761903219E+03  0.90440091949E+02 0.  0.
         23    2    1    2    0    0 -0.21536374205E+02 -0.14518832216E+02 -0.23483791875E+03  0.25472918926E+03  0.95202415291E+02 0.  0.
        -11    1    4    4    0    0 -0.58203405234E+02 -0.58013096766E+01 -0.11369196989E+03  0.12785599553E+03  0.00000000000E+00 0.  1.
         11    1    4    4    0    0  0.36667031029E+02 -0.87175225397E+01 -0.12114594886E+03  0.12687319373E+03  0.00000000000E+00 0. -1.
        -13    1    3    3    0    0  0.19699782225E+02 -0.14255011973E+02 -0.11461850394E+03  0.11716948507E+03  0.00000000000E+00 0. -1.
         13    1    3    3    0    0 -0.32884229707E+02  0.45229844119E+02 -0.57836132915E+02  0.80449547127E+02  0.00000000000E+00 0.  1.
         21    1    1    2  502  501  0.34720821687E+02 -0.16455999929E+02 -0.21135325656E+02  0.43852450136E+02  0.00000000000E+00 0. -1.
<scales pt_clust_5="13000.00000" pt_clust_6="13000.00000" pt_clust_7="13000.00000" pt_clust_8="13000.00000" pt_clust_9="38.42311"></scales>
<clustering>
<clus scale="   38.423">  1  9  2 -1</clus>
<clus scale="   90.440">  7  8 -1 -1</clus>
<clus scale="   93.233">  1  7  2 -1</clus>
<clus scale="   95.202">  5  6 -1 -1</clus>
<clus scale="   97.860">  2  5  1 -1</clus>
</clustering>
</event>
<event>
 9    1  0.1713970E-005  0.2458476E+03  0.7546771E-02  0.1116062E+00
          1   -1    0    0  502    0  0.00000000000E+00  0.00000000000E+00  0.20230942997E+03  0.20230942997E+03  0.00000000000E+00 0. -1.
         -1   -1    0    0    0  501 -0.00000000000E+00 -0.00000000000E+00 -0.53899589894E+03  0.53899589894E+03  0.00000000000E+00 0.  1.
         23    2    1    2    0    0 -0.22035193151E+03 -0.96384670625E+02 -0.30373140739E+03  0.39791750821E+03  0.90777734351E+02 0.  0.
         23    2    1    2    0    0  0.19473197775E+03  0.11187861922E+03  0.56230052099E+02  0.24931110213E+03  0.92503179897E+02 0.  0.
        -11    1    3    3    0    0 -0.32588665987E+02 -0.39547849310E+02 -0.24861929791E+02  0.56957607822E+02  0.00000000000E+00 0.  1.
         11    1    3    3    0    0 -0.18776326552E+03 -0.56836821315E+02 -0.27886947760E+03  0.34095990038E+03  0.00000000000E+00 0. -1.
        -13    1    4    4    0    0  0.53519159441E+02  0.17942074518E+02  0.56277724538E+02  0.79708222565E+02  0.00000000000E+00 0. -1.
         13    1    4    4    0    0  0.14121281831E+03  0.93936544702E+02 -0.47672439250E-01  0.16960287957E+03  0.00000000000E+00 0.  1.
         21    1    1    2  502  501  0.25619953759E+02 -0.15493948596E+02 -0.89185113687E+02  0.94076718571E+02  0.00000000000E+00 0.  1.
<scales pt_clust_5="13000.00000" pt_clust_6="13000.00000" pt_clust_7="13000.00000" pt_clust_8="13000.00000" pt_clust_9="29.94068"></scales>
<clustering>
<clus scale="   29.941">  2  9  1 -1</clus>
<clus scale="   90.778">  5  6 -1 -1</clus>
<clus scale="   92.503">  7  8 -1 -1</clus>
<clus scale="  245.204">  2  5  1 -1</clus>
<clus scale="  245.848">  1  5  2 -1</clus>
</clustering>
</event>
<event>
 9    1  0.1713970E-005  0.1015493E+03  0.7546771E-02  0.1278746E+00
         -1   -1    0    0    0  501 -0.00000000000E+00  0.00000000000E+00  0.11587744905E+03  0.11587744905E+03  0.00000000000E+00 0.  1.
          1   -1    0    0  502    0  0.00000000000E+00 -0.00000000000E+00 -0.45435255320E+03  0.45435255320E+03  0.00000000000E+00 0. -1.
         23    2    1    2    0    0  0.25059980027E+02 -0.32704469175E+02 -0.62383341197E+02  0.11536480637E+03  0.87862235274E+02 0.  0.
         23    2    1    2    0    0 -0.49983048103E+02  0.21928569533E+02 -0.35631941337E+03  0.37016717213E+03  0.84148937694E+02 0.  0.
        -11    1    3    3    0    0 -0.25140911740E+02  0.13326290938E+02 -0.13285663457E+02  0.31403253443E+02  0.00000000000E+00 0. -1.
         11    1    3    3    0    0  0.50200891767E+02 -0.46030760114E+02 -0.49097677740E+02  0.83961552929E+02  0.00000000000E+00 0.  1.
        -13    1    4    4    0    0 -0.60876036370E+02  0.44214299603E+02 -0.27895461535E+03  0.28892295429E+03  0.00000000000E+00 0. -1.
         13    1    4    4    0    0  0.10892988267E+02 -0.22285730069E+02 -0.77364798025E+02  0.81244217835E+02  0.00000000000E+00 0.  1.
         21    1    1    2  502  501  0.24923068076E+02  0.10775899642E+02  0.80227650422E+02  0.84698023753E+02  0.00000000000E+00 0.  1.
<scales pt_clust_5="13000.00000" pt_clust_6="13000.00000" pt_clust_7="13000.00000" pt_clust_8="13000.00000" pt_clust_9="27.15289"></scales>
<clustering>
<clus scale="   27.153">  1  9  2 -1</clus>
<clus scale="   84.149">  7  8 -1 -1</clus>
<clus scale="   87.862">  5  6 -1 -1</clus>
<clus scale="   98.354">  2  7  1 -1</clus>
<clus scale="   98.354">  2  5  1 -1</clus>
</clustering>
</event>
<event>
 9    1  0.1713970E-005  0.9741826E+02  0.7546771E-02  0.1287495E+00
          2   -1    0    0  502    0  0.00000000000E+00  0.00000000000E+00  0.55248783936E+02  0.55248783936E+02  0.00000000000E+00 0. -1.
         -2   -1    0    0    0  501 -0.00000000000E+00 -0.00000000000E+00 -0.25144316733E+03  0.25144316733E+03  0.00000000000E+00 0.  1.
         23    2    1    2    0    0 -0.19970065137E+01 -0.13637340092E+01 -0.87684699930E+02  0.12972945199E+03  0.95578639387E+02 0.  0.
         23    2    1    2    0    0  0.31512311652E+02 -0.24266443366E+02 -0.79351097563E+02  0.12819486286E+03  0.92495622165E+02 0.  0.
        -13    1    4    4    0    0  0.85452118105E+01  0.23306013784E+02  0.80274080923E+01  0.26088890434E+02  0.00000000000E+00 0. -1.
         13    1    4    4    0    0  0.22967099842E+02 -0.47572457150E+02 -0.87378505655E+02  0.10210597243E+03  0.00000000000E+00 0.  1.
        -13    1    3    3    0    0 -0.34100554726E+02 -0.33868045093E+02 -0.57646931093E+02  0.75053720598E+02  0.00000000000E+00 0.  1.
         13    1    3    3    0    0  0.32103548212E+02  0.32504311084E+02 -0.30037768837E+02  0.54675731395E+02  0.00000000000E+00 0. -1.
         21    1    1    2  502  501 -0.29515305139E+02  0.25630177375E+02 -0.29158585902E+02  0.48767636415E+02  0.00000000000E+00 0.  1.
<scales pt_clust_5="13000.00000" pt_clust_6="13000.00000" pt_clust_7="13000.00000" pt_clust_8="13000.00000" pt_clust_9="39.09040"></scales>
<clustering>
<clus scale="   39.090">  1  9  2 -1</clus>
<clus scale="   92.496">  5  6 -1 -1</clus>
<clus scale="   94.395">  1  5  2 -1</clus>
<clus scale="   95.579">  7  8 -1 -1</clus>
<clus scale="   39.090">  1  5  2 -1</clus>
</clustering>
</event>
<event>
 9    1  0.1713970E-005  0.1017913E+03  0.7546771E-02  0.1279285E+00
         -1   -1    0    0    0  501 -0.00000000000E+00  0.00000000000E+00  0.10430485474E+03  0.10430485474E+03  0.00000000000E+00 0.  1.
          1   -1    0    0  502    0  0.00000000000E+00 -0.00000000000E+00 -0.16012397915E+03  0.16012397915E+03  0.00000000000E+00 0. -1.
         23    2    1    2    0    0  0.33500650570E+02 -0.10826088594E+02 -0.28055057130E+02  0.10349072001E+03  0.93186614459E+02 0.  0.
         23    2    1    2    0    0 -0.18920795302E+02 -0.16121922532E+02 -0.58755402038E+02  0.11735795425E+03  0.98502686639E+02 0.  0.
        -11    1    4    4    0    0 -0.45009871451E+02 -0.43051904468E+02 -0.25720204213E+02  0.67386080990E+02  0.00000000000E+00 0.  1.
         11    1    4    4    0    0  0.26089076149E+02  0.26929981936E+02 -0.33035197826E+02  0.49971873257E+02  0.00000000000E+00 0. -1.
        -13    1    3    3    0    0  0.75848728193E+01  0.40319731988E+02 -0.19826194635E+02  0.45566315157E+02  0.00000000000E+00 0. -1.
         13    1    3    3    0    0  0.25915777750E+02 -0.51145820582E+02 -0.82288624950E+01  0.57924404851E+02  0.00000000000E+00 0.  1.
         21    1    1    2  502  501 -0.14579855267E+02  0.26948011126E+02  0.30991334763E+02  0.43580159633E+02  0.00000000000E+00 0.  1.
<scales pt_clust_5="13000.00000" pt_clust_6="13000.00000" pt_clust_7="13000.00000" pt_clust_8="13000.00000" pt_clust_9="30.63931"></scales>
<clustering>
<clus scale="   30.639">  1  9  2 -1</clus>
<clus scale="   93.187">  7  8 -1 -1</clus>
<clus scale="   96.656">  1  7  2 -1</clus>
<clus scale="   98.503">  5  6 -1 -1</clus>
<clus scale="  101.791">  2  5  1 -1</clus>
</clustering>
</event>
<event>
 9    1  0.1713970E-005  0.1691043E+03  0.7546771E-02  0.1179834E+00
         -3   -1    0    0    0  501 -0.00000000000E+00  0.00000000000E+00  0.73251404890E+02  0.73251404890E+02  0.00000000000E+00 0.  1.
          3   -1    0    0  502    0  0.00000000000E+00 -0.00000000000E+00 -0.81994422262E+03  0.81994422262E+03  0.00000000000E+00 0. -1.
         23    2    1    2    0    0  0.17522085711E+03  0.44046621657E+02 -0.15786660059E+03  0.25807091113E+03  0.95059339065E+02 0.  0.
         23    2    1    2    0    0 -0.12200308361E+03 -0.47518221150E+02 -0.54093662742E+03  0.56344768922E+03  0.87852887534E+02 0.  0.
        -13    1    3    3    0    0  0.52650599344E+02  0.22298419169E+02 -0.11136234136E+03  0.12518337023E+03  0.00000000000E+00 0. -1.
         13    1    3    3    0    0  0.12257025776E+03  0.21748202488E+02 -0.46504259232E+02  0.13288754090E+03  0.00000000000E+00 0.  1.
        -13    1    4    4    0    0 -0.29319469285E+01 -0.23468717575E+02 -0.29644622333E+02  0.37923352313E+02  0.00000000000E+00 0.  1.
         13    1    4    4    0    0 -0.11907113668E+03 -0.24049503576E+02 -0.51129200509E+03  0.52552433690E+03  0.00000000000E+00 0. -1.
         21    1    1    2  502  501 -0.53217773502E+02  0.34715994935E+01 -0.47889589717E+02  0.71677027162E+02  0.00000000000E+00 0. -1.
<scales pt_clust_5="13000.00000" pt_clust_6="13000.00000" pt_clust_7="13000.00000" pt_clust_8="13000.00000" pt_clust_9="53.33089"></scales>
<clustering>
<clus scale="   53.331">  1  9  2 -1</clus>
<clus scale="   87.853">  7  8 -1 -1</clus>
<clus scale="   95.059">  5  6 -1 -1</clus>
<clus scale="  165.161">  2  7  1 -1</clus>
<clus scale="  165.161">  2  5  1 -1</clus>
</clustering>
</event>
<event>
 9    1  0.1713970E-005  0.2093947E+03  0.7546771E-02  0.1142968E+00
         -2   -1    0    0    0  501 -0.00000000000E+00  0.00000000000E+00  0.14456984451E+03  0.14456984451E+03  0.00000000000E+00 0.  1.
          2   -1    0    0  502    0  0.00000000000E+00 -0.00000000000E+00 -0.46469697404E+03  0.46469697404E+03  0.00000000000E+00 0. -1.
         23    2    1    2    0    0  0.16380486875E+03 -0.67958213404E+02  0.48993953326E+01  0.20007643074E+03  0.92499839296E+02 0.  0.
         23    2    1    2    0    0 -0.16780549066E+03  0.91680253069E+02 -0.32418445480E+03  0.38511863625E+03  0.81589532108E+02 0.  0.
        -11    1    4    4    0    0 -0.68070134537E+02 -0.57458339295E+01 -0.11379219601E+03  0.13272234815E+03  0.00000000000E+00 0. -1.
         11    1    4    4    0    0 -0.99735356123E+02  0.97426086998E+02 -0.21039225879E+03  0.25239628810E+03  0.00000000000E+00 0.  1.
        -13    1    3    3    0    0  0.77312889521E+02 -0.25804300450E+02  0.48062306789E+02  0.94620981509E+02  0.00000000000E+00 0.  1.
         13    1    3    3    0    0  0.86491979224E+02 -0.42153912954E+02 -0.43162911456E+02  0.10545544923E+03  0.00000000000E+00 0. -1.
         21    1    1    2  502  501  0.40006219146E+01 -0.23722039665E+02 -0.84207005973E+00  0.24071751568E+02  0.00000000000E+00 0.  1.
<scales pt_clust_5="13000.00000" pt_clust_6="13000.00000" pt_clust_7="13000.00000" pt_clust_8="13000.00000" pt_clust_9="24.05702"></scales>
<clustering>
<clus scale="   24.057">  1  9  2 -1</clus>
<clus scale="   81.590">  5  6 -1 -1</clus>
<clus scale="   92.500">  7  8 -1 -1</clus>
<clus scale="  204.809">  2  5  1 -1</clus>
<clus scale="  204.809">  2  5  1 -1</clus>
</clustering>
</event>
<event>
 9    1  0.1713970E-005  0.9851056E+02  0.7546771E-02  0.1284803E+00
         -1   -1    0    0    0  501 -0.00000000000E+00  0.00000000000E+00  0.56398831274E+02  0.56398831274E+02  0.00000000000E+00 0.  1.
          1   -1    0    0  502    0  0.00000000000E+00 -0.00000000000E+00 -0.30973943939E+03  0.30973943939E+03  0.00000000000E+00 0. -1.
         23    2    1    2    0    0  0.24865513654E+02  0.11424975088E+02 -0.30268470719E+02  0.98391014107E+02  0.89530930478E+02 0.  0.
         23    2    1    2    0    0 -0.21318131384E+02 -0.31514678487E+02 -0.22610887020E+03  0.24712198444E+03  0.92176007318E+02 0.  0.
        -11    1    4    4    0    0 -0.49448924813E+02 -0.23296397564E+02 -0.20171896669E+03  0.20899392294E+03  0.00000000000E+00 0. -1.
         11    1    4    4    0    0  0.28130793429E+02 -0.82182809239E+01 -0.24389903505E+02  0.38128061494E+02  0.00000000000E+00 0.  1.
        -11    1    3    3    0    0  0.17045771829E+02 -0.29946649313E+02 -0.42340796110E+02  0.54590321098E+02  0.00000000000E+00 0. -1.
         11    1    3    3    0    0  0.78197418249E+01  0.41371624401E+02  0.12072325391E+02  0.43800693009E+02  0.00000000000E+00 0.  1.
         21    1    1    2  502  501 -0.35473822702E+01  0.20089703400E+02  0.30367328042E+01  0.20625272114E+02  0.00000000000E+00 0. -1.
<scales pt_clust_5="13000.00000" pt_clust_6="13000.00000" pt_clust_7="13000.00000" pt_clust_8="13000.00000" pt_clust_9="20.40049"></scales>
<clustering>
<clus scale="   20.400">  1  9  2 -1</clus>
<clus scale="   89.531">  7  8 -1 -1</clus>
<clus scale="   92.176">  5  6 -1 -1</clus>
<clus scale="   96.040">  1  7  2 -1</clus>
<clus scale="   98.511">  2  5  1 -1</clus>
</clustering>
</event>
<event>
 9    1  0.1713970E-005  0.1599148E+03  0.7546771E-02  0.1188883E+00
         -2   -1    0    0    0  501 -0.00000000000E+00  0.00000000000E+00  0.11687273619E+03  0.11687273619E+03  0.00000000000E+00 0.  1.
          2   -1    0    0  502    0  0.00000000000E+00 -0.00000000000E+00 -0.50851573364E+03  0.50851573364E+03  0.00000000000E+00 0. -1.
         23    2    1    2    0    0 -0.42927165398E+02 -0.10648566545E+03 -0.26902297044E+01  0.14580286219E+03  0.89829275920E+02 0.  0.
         23    2    1    2    0    0  0.10276722172E+03  0.92570999233E+02 -0.38389136976E+03  0.41794091585E+03  0.90396535335E+02 0.  0.
        -11    1    4    4    0    0  0.78888557101E+02  0.49191125533E+02 -0.33755821275E+03  0.35012671744E+03  0.00000000000E+00 0. -1.
         11    1    4    4    0    0  0.23878664621E+02  0.43379873700E+02 -0.46333157015E+02  0.67814198405E+02  0.00000000000E+00 0.  1.
        -13    1    3    3    0    0  0.24736359213E+02 -0.95306738795E+01  0.62447383401E+01  0.27234499603E+02  0.00000000000E+00 0. -1.
         13    1    3    3    0    0 -0.67663524611E+02 -0.96954991566E+02 -0.89349680445E+01  0.11856836259E+03  0.00000000000E+00 0.  1.
         21    1    1    2  502  501 -0.59840056324E+02  0.13914666212E+02 -0.50613979891E+01  0.61644691793E+02  0.00000000000E+00 0.  1.
<scales pt_clust_5="13000.00000" pt_clust_6="13000.00000" pt_clust_7="13000.00000" pt_clust_8="13000.00000" pt_clust_9="61.43655"></scales>
<clustering>
<clus scale="   61.437">  1  9  2 -1</clus>
<clus scale="   89.829">  7  8 -1 -1</clus>
<clus scale="   90.397">  5  6 -1 -1</clus>
<clus scale="  159.595">  1  7  2 -1</clus>
<clus scale="  159.915">  2  5  1 -1</clus>
</clustering>
</event>
