<event>
10    4  0.2759992E-005  0.3695623E+03  0.7546771E-02  0.1082833E+00
         21   -1    0    0  501  502  0.00000000000E+00  0.00000000000E+00  0.62782581305E+03  0.62782581305E+03  0.00000000000E+00 0. -1.
          4   -1    0    0  503    0 -0.00000000000E+00 -0.00000000000E+00 -0.15032869804E+03  0.15032869804E+03  0.00000000000E+00 0. -1.
         24    2    1    2    0    0  0.87954745086E+02 -0.12023508267E+03  0.33386077174E+02  0.17078002159E+03  0.76541971081E+02 0.  0.
         23    2    1    2    0    0  0.82327589095E+02  0.33593957986E+01  0.38056223820E+02  0.12765185071E+03  0.89764142903E+02 0.  0.
        -11    1    3    3    0    0  0.43004142994E+01 -0.69451119620E+02  0.15675140127E+02  0.71327845878E+02  0.00000000000E+00 0.  1.
         12    1    3    3    0    0  0.83654330787E+02 -0.50783963048E+02  0.17710937046E+02  0.99452175709E+02  0.00000000000E+00 0. -1.
        -13    1    4    4    0    0  0.51554963803E+02  0.40895807473E+02 -0.27064805998E+00  0.65806189769E+02  0.00000000000E+00 0. -1.
         13    1    4    4    0    0  0.30772625292E+02 -0.37536411674E+02  0.38326871880E+02  0.61845660938E+02  0.00000000000E+00 0.  1.
         21    1    1    2  503  502 -0.72110928182E+01 -0.33107194450E+02  0.55139237349E+02  0.64718016652E+02  0.00000000000E+00 0.  1.
          3    1    1    2  501    0 -0.16307124136E+03  0.14998288132E+03  0.35091557667E+03  0.41500462214E+03  0.00000000000E+00 0. -1.
<scales pt_clust_5="13000.00000" pt_clust_6="13000.00000" pt_clust_7="13000.00000" pt_clust_8="13000.00000" pt_clust_9="33.88342" pt_clust_10="13000.00000"></scales>
<clustering>
<clus scale="   33.883">  1  9  2 -1</clus>
<clus scale="   76.542">  5  6 -1 -1</clus>
<clus scale="   89.764">  7  8 -1 -1</clus>
<clus scale="  171.147">  2  5  1 -1</clus>
<clus scale="  153.514">  7 10 -1 -1</clus>
<clus scale="   33.883">  1  5  2 -1</clus>
</clustering>
</event>
<event>
10    4  0.2759992E-005  0.1871654E+03  0.7546771E-02  0.1187419E+00
          2   -1    0    0  503    0 -0.00000000000E+00  0.00000000000E+00  0.49861033879E+03  0.49861033879E+03  0.00000000000E+00 0. -1.
         21   -1    0    0  501  502  0.00000000000E+00 -0.00000000000E+00 -0.92059005629E+02  0.92059005629E+02  0.00000000000E+00 0. -1.
         24    2    1    2    0    0  0.49475126756E+02  0.44561419479E+02  0.54694426386E+02  0.11646700356E+03  0.78355436104E+02 0.  0.
         23    2    1    2    0    0  0.20299375774E+02 -0.10944551990E+02  0.11430220231E+03  0.14748765877E+03  0.90309291669E+02 0.  0.
        -13    1    3    3    0    0  0.44346048944E+02 -0.28440995149E+01  0.52434022859E+02  0.68731271719E+02  0.00000000000E+00 0.  1.
         14    1    3    3    0    0  0.51290778121E+01  0.47405518993E+02  0.22604035274E+01  0.47735731841E+02  0.00000000000E+00 0. -1.
        -11    1    4    4    0    0 -0.30214430358E+02 -0.83725615937E+01  0.12386170921E+02  0.33710959932E+02  0.00000000000E+00 0. -1.
         11    1    4    4    0    0  0.50513806132E+02 -0.25719903963E+01  0.10191603139E+03  0.11377669884E+03  0.00000000000E+00 0.  1.
         21    1    1    2  503  502 -0.14039333117E+03  0.10669980885E+02  0.15484342411E+03  0.20928598119E+03  0.00000000000E+00 0. -1.
          1    1    1    2  501    0  0.70618828645E+02 -0.44286848374E+02  0.82711280354E+02  0.11742870090E+03  0.00000000000E+00 0. -1.
<scales pt_clust_5="13000.00000" pt_clust_6="13000.00000" pt_clust_7="13000.00000" pt_clust_8="13000.00000" pt_clust_9="122.39761" pt_clust_10="13000.00000"></scales>
<clustering>
<clus scale="   78.355">  5  6 -1 -1</clus>
<clus scale="   90.309">  7  8 -1 -1</clus>
<clus scale="   83.357">  7 10 -1 -1</clus>
<clus scale="  102.826">  1  5  2 -1</clus>
<clus scale="  122.398">  2  9  1 -1</clus>
<clus scale="  122.398">  2  5  1 -1</clus>
</clustering>
</event>
<event>
10    4  0.2759992E-005  0.2641561E+03  0.7546771E-02  0.1149416E+00
         21   -1    0    0  501  502  0.00000000000E+00  0.00000000000E+00  0.22977046692E+03  0.22977046692E+03  0.00000000000E+00 0. -1.
          2   -1    0    0  503    0 -0.00000000000E+00 -0.00000000000E+00 -0.21022449059E+03  0.21022449059E+03  0.00000000000E+00 0. -1.
         24    2    1    2    0    0 -0.30878603969E+02  0.10713126200E+01 -0.58822065346E+02  0.10426766414E+03  0.80355923990E+02 0.  0.
         23    2    1    2    0    0 -0.77234552160E+02 -0.95801985317E+01 -0.31291468386E+02  0.12581143877E+03  0.93767829666E+02 0.  0.
        -11    1    3    3    0    0 -0.17029746297E+02 -0.29136001916E+02  0.32051330481E+01  0.33899730743E+02  0.00000000000E+00 0.  1.
         12    1    3    3    0    0 -0.13848857672E+02  0.30207314536E+02 -0.62027198394E+02  0.70367933399E+02  0.00000000000E+00 0. -1.
        -13    1    4    4    0    0  0.21444781922E+02 -0.66127173224E+01 -0.11130849879E+02  0.25050000421E+02  0.00000000000E+00 0.  1.
         13    1    4    4    0    0 -0.98679334081E+02 -0.29674812093E+01 -0.20160618507E+02  0.10076143835E+03  0.00000000000E+00 0. -1.
         21    1    1    2  503  502 -0.26331176722E+02  0.75978999805E+01  0.61105511694E+02  0.66969713387E+02  0.00000000000E+00 0. -1.
          1    1    1    2  501    0  0.13444433285E+03  0.91098593118E+00  0.48553998361E+02  0.14294614121E+03  0.00000000000E+00 0. -1.
<scales pt_clust_5="13000.00000" pt_clust_6="13000.00000" pt_clust_7="13000.00000" pt_clust_8="13000.00000" pt_clust_9="27.40545" pt_clust_10="13000.00000"></scales>
<clustering>
<clus scale="   27.405">  1  9  2 -1</clus>
<clus scale="   80.356">  5  6 -1 -1</clus>
<clus scale="   87.470">  2  5  1 -1</clus>
<clus scale="   93.768">  7  8 -1 -1</clus>
<clus scale="  108.629">  7 10 -1 -1</clus>
<clus scale="   27.405">  1  5  2 -1</clus>
</clustering>
</event>
<event>
10    4  0.2759992E-005  0.1771343E+03  0.7546771E-02  0.1191869E+00
          2   -1    0    0  503    0 -0.00000000000E+00  0.00000000000E+00  0.42432789204E+03  0.42432789204E+03  0.00000000000E+00 0. -1.
         21   -1    0    0  501  502  0.00000000000E+00 -0.00000000000E+00 -0.60160489486E+03  0.60160489486E+03  0.00000000000E+00 0.  1.
         24    2    1    2    0    0 -0.33024458196E+02  0.46854787458E+02 -0.87728066203E+02  0.13192020061E+03  0.80129518796E+02 0.  0.
         23    2    1    2    0    0  0.45817133980E+01 -0.41351500699E+02  0.10535741103E+03  0.14221546712E+03  0.85989047678E+02 0.  0.
        -13    1    3    3    0    0 -0.29646172222E+02 -0.16180168900E+01 -0.76485720716E+02  0.82046200275E+02  0.00000000000E+00 0.  1.
         14    1    3    3    0    0 -0.33782859747E+01  0.48472804348E+02 -0.11242345486E+02  0.49874000336E+02  0.00000000000E+00 0. -1.
        -13    1    4    4    0    0  0.19299792702E+02 -0.64518624122E+02  0.82508932538E+02  0.10650285820E+03  0.00000000000E+00 0. -1.
         13    1    4    4    0    0 -0.14718079304E+02  0.23167123422E+02  0.22848478494E+02  0.35712608916E+02  0.00000000000E+00 0.  1.
         21    1    1    2  503  502  0.51421522105E+02  0.32796388740E+02 -0.46957575215E+03  0.47351997113E+03  0.00000000000E+00 0.  1.
          1    1    1    2  501    0 -0.22978777307E+02 -0.38299675498E+02  0.27466940450E+03  0.27827714803E+03  0.00000000000E+00 0. -1.
<scales pt_clust_5="13000.00000" pt_clust_6="13000.00000" pt_clust_7="13000.00000" pt_clust_8="13000.00000" pt_clust_9="60.98997" pt_clust_10="13000.00000"></scales>
<clustering>
<clus scale="   60.990">  2  9  1 -1</clus>
<clus scale="   80.130">  5  6 -1 -1</clus>
<clus scale="   85.989">  7  8 -1 -1</clus>
<clus scale="   43.909">  7 10 -1 -1</clus>
<clus scale="  109.938">  1  5  2 -1</clus>
<clus scale="   60.990">  2  5  1 -1</clus>
</clustering>
</event>
<event>
10    4  0.2759992E-005  0.2835653E+03  0.7546771E-02  0.1129663E+00
         21   -1    0    0  503  502  0.00000000000E+00  0.00000000000E+00  0.12976026150E+03  0.12976026150E+03  0.00000000000E+00 0. -1.
          4   -1    0    0  502    0 -0.00000000000E+00 -0.00000000000E+00 -0.61123467520E+03  0.61123467520E+03  0.00000000000E+00 0. -1.
         24    2    1    2    0    0 -0.15202632065E+02 -0.78681882005E+02 -0.40876495025E+03  0.42457550381E+03  0.82180382743E+02 0.  0.
         23    2    1    2    0    0  0.48078003946E+02 -0.72931950264E+02 -0.94770094205E+02  0.15746468190E+03  0.90460994129E+02 0.  0.
        -11    1    3    3    0    0 -0.38626497282E+02 -0.30749178248E+02 -0.10336332922E+03  0.11454909901E+03  0.00000000000E+00 0.  1.
         12    1    3    3    0    0  0.23423865218E+02 -0.47932703757E+02 -0.30540162103E+03  0.31002640481E+03  0.00000000000E+00 0. -1.
        -13    1    4    4    0    0  0.46275819004E+02 -0.19561649508E+02 -0.90979391424E+02  0.10392958780E+03  0.00000000000E+00 0.  1.
         13    1    4    4    0    0  0.18021849421E+01 -0.53370300756E+02 -0.37907027803E+01  0.53535094105E+02  0.00000000000E+00 0. -1.
         21    1    1    2  503  501 -0.84252542803E+01  0.19591956853E+02  0.11609217822E+02  0.24281754909E+02  0.00000000000E+00 0. -1.
          3    1    1    2  501    0 -0.24450117601E+02  0.13202187542E+03  0.10451412943E+02  0.13467299607E+03  0.00000000000E+00 0. -1.
<scales pt_clust_5="13000.00000" pt_clust_6="13000.00000" pt_clust_7="13000.00000" pt_clust_8="13000.00000" pt_clust_9="21.32674" pt_clust_10="13000.00000"></scales>
<clustering>
<clus scale="   21.327">  1  9  2 -1</clus>
<clus scale="   82.180">  5  6 -1 -1</clus>
<clus scale="   90.461">  7  8 -1 -1</clus>
<clus scale="  113.921">  2  5  1 -1</clus>
<clus scale="  119.945">  7 10 -1 -1</clus>
<clus scale="   21.327">  1  5  2 -1</clus>
</clustering>
</event>
<event>
10    4  0.2759992E-005  0.2394320E+03  0.7546771E-02  0.1164224E+00
         -3   -1    0    0    0  501 -0.00000000000E+00  0.00000000000E+00  0.34447264150E+03  0.34447264150E+03  0.00000000000E+00 0.  1.
         21   -1    0    0  503  502  0.00000000000E+00 -0.00000000000E+00 -0.14901383876E+03  0.14901383876E+03  0.00000000000E+00 0.  1.
         24    2    1    2    0    0 -0.81867219278E+01 -0.23900436622E+02  0.51554628744E+02  0.99293491719E+02  0.81012742617E+02 0.  0.
         23    2    1    2    0    0 -0.82094502075E+01 -0.46988628688E+02 -0.54731436416E+01  0.10300390575E+03  0.91129155596E+02 0.  0.
        -13    1    3    3    0    0  0.12975004422E+02  0.26552821260E+02  0.23797003301E+02  0.37943384439E+02  0.00000000000E+00 0.  1.
         14    1    3    3    0    0 -0.21161726350E+02 -0.50453257882E+02  0.27757625443E+02  0.61350107280E+02  0.00000000000E+00 0. -1.
        -11    1    4    4    0    0 -0.27109191212E+02 -0.24239577416E+02  0.36587427458E+02  0.51585901266E+02  0.00000000000E+00 0. -1.
         11    1    4    4    0    0  0.18899741005E+02 -0.22749051272E+02 -0.42060571099E+02  0.51418004483E+02  0.00000000000E+00 0.  1.
         21    1    1    2  503  501 -0.25174524570E+02  0.48698305368E+02 -0.57245374802E+02  0.79261053294E+02  0.00000000000E+00 0.  1.
         -4    1    1    2    0  502  0.41570696706E+02  0.22190759942E+02  0.20662269245E+03  0.21192802950E+03  0.00000000000E+00 0.  1.
<scales pt_clust_5="13000.00000" pt_clust_6="13000.00000" pt_clust_7="13000.00000" pt_clust_8="13000.00000" pt_clust_9="54.82045" pt_clust_10="13000.00000"></scales>
<clustering>
<clus scale="   54.820">  2  9  1 -1</clus>
<clus scale="   81.013">  5  6 -1 -1</clus>
<clus scale="   83.052">  1  5  2 -1</clus>
<clus scale="   91.129">  7  8 -1 -1</clus>
<clus scale="   32.743">  7 10 -1 -1</clus>
<clus scale="   54.820">  2  5  1 -1</clus>
</clustering>
</event>
<event>
10    4  0.2759992E-005  0.2285940E+03  0.7546771E-02  0.1164813E+00
         21   -1    0    0  503  502  0.00000000000E+00  0.00000000000E+00  0.11110137875E+03  0.11110137875E+03  0.00000000000E+00 0. -1.
         -1   -1    0    0    0  501 -0.00000000000E+00 -0.00000000000E+00 -0.87736884793E+03  0.87736884793E+03  0.00000000000E+00 0.  1.
         24    2    1    2    0    0 -0.47005709566E+02 -0.13381441003E+02 -0.35276318004E+03  0.36510941454E+03  0.80463803659E+02 0.  0.
         23    2    1    2    0    0  0.89268687569E+02  0.72219816768E+02 -0.27652281563E+03  0.31370427465E+03  0.93599700101E+02 0.  0.
        -11    1    3    3    0    0 -0.20640969412E+02  0.32598465319E+02 -0.19186485456E+03  0.19570598349E+03  0.00000000000E+00 0.  1.
         12    1    3    3    0    0 -0.26364740155E+02 -0.45979906321E+02 -0.16089832548E+03  0.16940343105E+03  0.00000000000E+00 0. -1.
        -11    1    4    4    0    0  0.42066516919E+02  0.45530719809E+02 -0.46808594336E+02  0.77676784149E+02  0.00000000000E+00 0.  1.
         11    1    4    4    0    0  0.47202170650E+02  0.26689096960E+02 -0.22971422129E+03  0.23602749050E+03  0.00000000000E+00 0. -1.
         21    1    1    2  503  501 -0.14015750617E+03 -0.86367761314E+02 -0.40636735784E+02  0.16957258336E+03  0.00000000000E+00 0. -1.
         -2    1    1    2    0  502  0.97894528171E+02  0.27529385548E+02 -0.96344737735E+02  0.14008395413E+03  0.00000000000E+00 0.  1.
<scales pt_clust_5="13000.00000" pt_clust_6="13000.00000" pt_clust_7="13000.00000" pt_clust_8="13000.00000" pt_clust_9="174.18849" pt_clust_10="13000.00000"></scales>
<clustering>
<clus scale="   80.464">  5  6 -1 -1</clus>
<clus scale="   93.600">  7  8 -1 -1</clus>
<clus scale="   94.144">  2  5  1 -1</clus>
<clus scale="   90.548">  7 10 -1 -1</clus>
<clus scale="  174.188">  1  9  2 -1</clus>
<clus scale="  174.188">  1  5  2 -1</clus>
</clustering>
</event>
<event>
10    4  0.2759992E-005  0.3010192E+03  0.7546771E-02  0.1127068E+00
          2   -1    0    0  502    0 -0.00000000000E+00  0.00000000000E+00  0.93345393555E+03  0.93345393555E+03  0.00000000000E+00 0. -1.
         21   -1    0    0  503  502  0.00000000000E+00 -0.00000000000E+00 -0.12771148122E+03  0.12771148122E+03  0.00000000000E+00 0.  1.
         24    2    1    2    0    0  0.21434722363E+01 -0.51570395353E+02 -0.63261583839E+02  0.11377500330E+03  0.79237763947E+02 0.  0.
         23    2    1    2    0    0  0.89763742230E+02  0.14945365840E+03  0.55460254011E+03  0.58848751821E+03  0.91321717900E+02 0.  0.
        -11    1    3    3    0    0 -0.22553087023E+02 -0.51124824660E+02 -0.12407094751E+02  0.57239194884E+02  0.00000000000E+00 0.  1.
         12    1    3    3    0    0  0.24696559259E+02 -0.44557069284E+00 -0.50854489088E+02  0.56535808413E+02  0.00000000000E+00 0. -1.
        -13    1    4    4    0    0  0.10881030379E+03  0.13070327376E+03  0.48161218841E+03  0.51075760201E+03  0.00000000000E+00 0. -1.
         13    1    4    4    0    0 -0.19046561557E+02  0.18750384645E+02  0.72990351701E+02  0.77729916203E+02  0.00000000000E+00 0.  1.
         21    1    1    2  503  501 -0.37114264236E+02 -0.78355529385E+01  0.13814351520E+02  0.40369552976E+02  0.00000000000E+00 0.  1.
          1    1    1    2  501    0 -0.54792950231E+02 -0.90047710111E+02  0.30058714653E+03  0.31853334229E+03  0.00000000000E+00 0. -1.
<scales pt_clust_5="13000.00000" pt_clust_6="13000.00000" pt_clust_7="13000.00000" pt_clust_8="13000.00000" pt_clust_9="37.93237" pt_clust_10="13000.00000"></scales>
<clustering>
<clus scale="   37.932">  2  9  1 -1</clus>
<clus scale="   79.238">  5  6 -1 -1</clus>
<clus scale="   91.322">  7  8 -1 -1</clus>
<clus scale="  101.517">  1  5  2 -1</clus>
<clus scale="  130.732">  7 10 -1 -1</clus>
<clus scale="   37.932">  2  5  1 -1</clus>
</clustering>
</event>
<event>
10    4  0.2759992E-005  0.3690905E+03  0.7546771E-02  0.1091152E+00
         21   -1    0    0  503  502  0.00000000000E+00  0.00000000000E+00  0.30820334137E+03  0.30820334137E+03  0.00000000000E+00 0. -1.
          2   -1    0    0  502    0 -0.00000000000E+00 -0.00000000000E+00 -0.59171545357E+03  0.59171545357E+03  0.00000000000E+00 0. -1.
         24    2    1    2    0    0  0.13991305613E+02 -0.10131117262E+03 -0.12177125952E+03  0.18126539866E+03  0.87001119386E+02 0.  0.
         23    2    1    2    0    0  0.62187282327E+02 -0.24875084369E+02  0.16702881465E+02  0.11439137267E+03  0.91216073072E+02 0.  0.
        -11    1    3    3    0    0  0.20888972680E+02  0.86810694049E+01 -0.11553611236E+02  0.25400710192E+02  0.00000000000E+00 0.  1.
         12    1    3    3    0    0 -0.68976670673E+01 -0.10999224203E+03 -0.11021764828E+03  0.15586468847E+03  0.00000000000E+00 0. -1.
        -11    1    4    4    0    0  0.80732786072E+02 -0.53196574424E+01 -0.30684029011E+01  0.80966021260E+02  0.00000000000E+00 0.  1.
         11    1    4    4    0    0 -0.18545503745E+02 -0.19555426927E+02  0.19771284366E+02  0.33425351411E+02  0.00000000000E+00 0. -1.
         21    1    1    2  503  501 -0.40338465165E+02 -0.19943050860E+02  0.19580049058E+03  0.20090482613E+03  0.00000000000E+00 0. -1.
          1    1    1    2  501    0 -0.35840122774E+02  0.14612930785E+03 -0.37424422473E+03  0.40335719748E+03  0.00000000000E+00 0. -1.
<scales pt_clust_5="13000.00000" pt_clust_6="13000.00000" pt_clust_7="13000.00000" pt_clust_8="13000.00000" pt_clust_9="44.99908" pt_clust_10="13000.00000"></scales>
<clustering>
<clus scale="   44.999">  1  9  2 -1</clus>
<clus scale="   87.001">  5  6 -1 -1</clus>
<clus scale="   91.216">  7  8 -1 -1</clus>
<clus scale="  137.717">  2  5  1 -1</clus>
<clus scale="   61.859">  7 10 -1 -1</clus>
<clus scale="   44.999">  1  5  2 -1</clus>
</clustering>
</event>
<event>
10    4  0.2759992E-005  0.2380969E+03  0.7546771E-02  0.1135365E+00
         21   -1    0    0  503  502  0.00000000000E+00  0.00000000000E+00  0.30345987597E+03  0.30345987597E+03  0.00000000000E+00 0. -1.
          2   -1    0    0  502    0 -0.00000000000E+00 -0.00000000000E+00 -0.18353822606E+03  0.18353822606E+03  0.00000000000E+00 0. -1.
         24    2    1    2    0    0 -0.12848992090E+03 -0.87653275049E+02 -0.34781484955E+02  0.17884317978E+03  0.81131836282E+02 0.  0.
         23    2    1    2    0    0 -0.12689497139E+02  0.99496072002E+00  0.43228702908E+02  0.10082124298E+03  0.90189738868E+02 0.  0.
        -13    1    3    3    0    0 -0.44463347101E+02 -0.29870431600E+02  0.26612126712E+02  0.59811681197E+02  0.00000000000E+00 0.  1.
         14    1    3    3    0    0 -0.84026573797E+02 -0.57782843449E+02 -0.61393611668E+02  0.11903149858E+03  0.00000000000E+00 0. -1.
        -11    1    4    4    0    0 -0.25781215581E+02  0.40501222360E+02  0.14157921385E+02  0.50054638420E+02  0.00000000000E+00 0.  1.
         11    1    4    4    0    0  0.13091718442E+02 -0.39506261640E+02  0.29070781523E+02  0.50766604563E+02  0.00000000000E+00 0. -1.
         21    1    1    2  503  501  0.38296720017E+02  0.74203974809E+01  0.48504956810E+01  0.39309392913E+02  0.00000000000E+00 0. -1.
          1    1    1    2  501    0  0.10288269802E+03  0.79237916848E+02  0.10662393628E+03  0.16802428636E+03  0.00000000000E+00 0. -1.
<scales pt_clust_5="13000.00000" pt_clust_6="13000.00000" pt_clust_7="13000.00000" pt_clust_8="13000.00000" pt_clust_9="39.00901" pt_clust_10="13000.00000"></scales>
<clustering>
<clus scale="   39.009">  1  9  2 -1</clus>
<clus scale="   81.132">  5  6 -1 -1</clus>
<clus scale="   90.190">  7  8 -1 -1</clus>
<clus scale="  147.125">  7 10 -1 -1</clus>
<clus scale="  167.399">  2  5  1 -1</clus>
<clus scale="   39.009">  1  5  2 -1</clus>
</clustering>
</event>
<event>
10    4  0.2759992E-005  0.3621338E+03  0.7546771E-02  0.1071867E+00
          2   -1    0    0  503    0 -0.00000000000E+00  0.00000000000E+00  0.76803046829E+03  0.76803046829E+03  0.00000000000E+00 0. -1.
         21   -1    0    0  501  502  0.00000000000E+00 -0.00000000000E+00 -0.35477476802E+03  0.35477476802E+03  0.00000000000E+00 0. -1.
         24    2    1    2    0    0  0.37716941987E+02 -0.19239071113E+03 -0.11931608980E+03  0.24248610782E+03  0.78271513075E+02 0.  0.
         23    2    1    2    0    0 -0.82445112097E+02  0.14747009802E+03  0.20851564528E+03  0.28397187786E+03  0.92825787197E+02 0.  0.
        -13    1    3    3    0    0  0.18479186471E+02 -0.50992305331E+02  0.33056613033E+01  0.54338043139E+02  0.00000000000E+00 0.  1.
         14    1    3    3    0    0  0.19237755516E+02 -0.14139840580E+03 -0.12262175110E+03  0.18814806468E+03  0.00000000000E+00 0. -1.
        -11    1    4    4    0    0  0.49522590382E+01  0.35984917567E+02  0.59813550050E+01  0.36813255351E+02  0.00000000000E+00 0.  1.
         11    1    4    4    0    0 -0.87397371135E+02  0.11148518046E+03  0.20253429028E+03  0.24715862251E+03  0.00000000000E+00 0. -1.
         21    1    1    2  503  502 -0.63419015951E+02 -0.49898972106E+02 -0.11151161712E+03  0.13764708408E+03  0.00000000000E+00 0. -1.
          1    1    1    2  501    0  0.10814718606E+03  0.94819585211E+02  0.43556776191E+03  0.45870016656E+03  0.00000000000E+00 0. -1.
<scales pt_clust_5="13000.00000" pt_clust_6="13000.00000" pt_clust_7="13000.00000" pt_clust_8="13000.00000" pt_clust_9="80.69621" pt_clust_10="13000.00000"></scales>
<clustering>
<clus scale="   78.272">  5  6 -1 -1</clus>
<clus scale="   80.696">  2  9  1 -1</clus>
<clus scale="   92.826">  7  8 -1 -1</clus>
<clus scale="  139.780">  7 10 -1 -1</clus>
<clus scale="  244.773">  1  5  2 -1</clus>
<clus scale="   80.696">  2  5  1 -1</clus>
</clustering>
</event>
<event>
10    4  0.2759992E-005  0.7286683E+03  0.7546771E-02  0.9694136E-01
          2   -1    0    0  502    0 -0.00000000000E+00  0.00000000000E+00  0.17244565527E+04  0.17244565527E+04  0.00000000000E+00 0. -1.
         21   -1    0    0  503  502  0.00000000000E+00 -0.00000000000E+00 -0.77762927452E+03  0.77762927452E+03  0.00000000000E+00 0. -1.
         24    2    1    2    0    0 -0.31439426315E+03  0.59650736404E+03  0.35426596802E+03  0.76586057039E+03  0.79832631961E+02 0.  0.
         23    2    1    2    0    0 -0.77530242100E+01 -0.15910380168E+03  0.13000759238E+03  0.22306555615E+03  0.86499359359E+02 0.  0.
        -11    1    3    3    0    0 -0.68790590475E+02  0.17892855216E+03  0.69459274748E+02  0.20389252797E+03  0.00000000000E+00 0.  1.
         12    1    3    3    0    0 -0.24560367267E+03  0.41757881188E+03  0.28480669327E+03  0.56196804241E+03  0.00000000000E+00 0. -1.
        -13    1    4    4    0    0 -0.33410204649E+02 -0.37789438009E+02  0.67325324939E+02  0.84124804772E+02  0.00000000000E+00 0. -1.
         13    1    4    4    0    0  0.25657180439E+02 -0.12131436368E+03  0.62682267439E+02  0.13894075138E+03  0.00000000000E+00 0.  1.
         21    1    1    2  503  501  0.13037841463E+03  0.43575252827E+02 -0.44638827731E+03  0.46707582659E+03  0.00000000000E+00 0. -1.
          1    1    1    2  501    0  0.19176887273E+03 -0.48097881518E+03  0.90894199512E+03  0.10460838741E+04  0.00000000000E+00 0. -1.
<scales pt_clust_5="13000.00000" pt_clust_6="13000.00000" pt_clust_7="13000.00000" pt_clust_8="13000.00000" pt_clust_9="137.46757" pt_clust_10="13000.00000"></scales>
<clustering>
<clus scale="   79.833">  5  6 -1 -1</clus>
<clus scale="   86.499">  7  8 -1 -1</clus>
<clus scale="  137.468">  2  9  1 -1</clus>
<clus scale="  520.295">  7 10 -1 -1</clus>
<clus scale="  670.503">  1  5  2 -1</clus>
<clus scale="  137.468">  2  5  1 -1</clus>
</clustering>
</event>
<event>
10    4  0.2759992E-005  0.1523853E+03  0.7546771E-02  0.1211815E+00
         21   -1    0    0  503  502  0.00000000000E+00  0.00000000000E+00  0.37625100886E+02  0.37625100886E+02  0.00000000000E+00 0. -1.
          2   -1    0    0  502    0 -0.00000000000E+00 -0.00000000000E+00 -0.65017971215E+03  0.65017971215E+03  0.00000000000E+00 0. -1.
         24    2    1    2    0    0 -0.13493837533E+02 -0.65803638306E+02 -0.24001004105E+03  0.26160196246E+03  0.79489398597E+02 0.  0.
         23    2    1    2    0    0 -0.29362927058E+01  0.47552520459E+02 -0.18780075277E+03  0.21433635397E+03  0.91657437640E+02 0.  0.
        -13    1    3    3    0    0  0.21072117174E+02 -0.52088656983E+01 -0.12664982524E+03  0.12849647714E+03  0.00000000000E+00 0.  1.
         14    1    3    3    0    0 -0.34565954707E+02 -0.60594772607E+02 -0.11336021581E+03  0.13310548531E+03  0.00000000000E+00 0. -1.
        -13    1    4    4    0    0  0.44531307572E+01  0.71315337698E+02 -0.98858256234E+02  0.12197812341E+03  0.00000000000E+00 0. -1.
         13    1    4    4    0    0 -0.73894234630E+01 -0.23762817239E+02 -0.88942496534E+02  0.92358230559E+02  0.00000000000E+00 0.  1.
         21    1    1    2  503  501 -0.17548595370E+02 -0.28927155998E+02 -0.25578289768E+02  0.42414413365E+02  0.00000000000E+00 0. -1.
          1    1    1    2  501    0  0.33978725609E+02  0.47178273845E+02 -0.15916552767E+03  0.16945208324E+03  0.00000000000E+00 0. -1.
<scales pt_clust_5="13000.00000" pt_clust_6="13000.00000" pt_clust_7="13000.00000" pt_clust_8="13000.00000" pt_clust_9="33.83391" pt_clust_10="13000.00000"></scales>
<clustering>
<clus scale="   33.834">  1  9  2 -1</clus>
<clus scale="   79.489">  5  6 -1 -1</clus>
<clus scale="   91.657">  7  8 -1 -1</clus>
<clus scale="   52.203">  7 10 -1 -1</clus>
<clus scale="  112.114">  2  5  1 -1</clus>
<clus scale="   33.834">  1  5  2 -1</clus>
</clustering>
</event>
<event>
10    4  0.2759992E-005  0.5345045E+03  0.7546771E-02  0.1034399E+00
          2   -1    0    0  503    0 -0.00000000000E+00  0.00000000000E+00  0.39868192278E+03  0.39868192278E+03  0.00000000000E+00 0. -1.
         21   -1    0    0  501  502  0.00000000000E+00 -0.00000000000E+00 -0.52823082005E+03  0.52823082005E+03  0.00000000000E+00 0. -1.
         24    2    1    2    0    0 -0.18272743610E+03 -0.90034580634E+02  0.40737908433E+02  0.22282120470E+03  0.80586416128E+02 0.  0.
         23    2    1    2    0    0 -0.10732239806E+03  0.76246139129E+02  0.14342388851E+03  0.21330356933E+03  0.87157501309E+02 0.  0.
        -11    1    3    3    0    0 -0.56084516368E+02 -0.69198573712E+02  0.33277323302E+01  0.89134669924E+02  0.00000000000E+00 0.  1.
         12    1    3    3    0    0 -0.12664291974E+03 -0.20836006922E+02  0.37410176103E+02  0.13368653477E+03  0.00000000000E+00 0. -1.
        -11    1    4    4    0    0 -0.97388116286E+02  0.95320016553E+02  0.12110681054E+03  0.18231075204E+03  0.00000000000E+00 0. -1.
         11    1    4    4    0    0 -0.99342817775E+01 -0.19073877424E+02  0.22317077976E+02  0.30992817294E+02  0.00000000000E+00 0.  1.
         21    1    1    2  503  502  0.47054312222E+01 -0.21373404360E+02 -0.16623131004E+03  0.16766577449E+03  0.00000000000E+00 0. -1.
          1    1    1    2  501    0  0.28534440295E+03  0.35161845866E+02 -0.14747938418E+03  0.32312219431E+03  0.00000000000E+00 0. -1.
<scales pt_clust_5="13000.00000" pt_clust_6="13000.00000" pt_clust_7="13000.00000" pt_clust_8="13000.00000" pt_clust_9="21.88523" pt_clust_10="13000.00000"></scales>
<clustering>
<clus scale="   21.885">  2  9  1 -1</clus>
<clus scale="   80.586">  5  6 -1 -1</clus>
<clus scale="   87.158">  7  8 -1 -1</clus>
<clus scale="  220.356">  1  5  2 -1</clus>
<clus scale="  227.501">  7 10 -1 -1</clus>
<clus scale="   21.885">  2  5  1 -1</clus>
</clustering>
</event>
<event>
10    4  0.2987782E-005  0.2356454E+03  0.7546771E-02  0.1160453E+00
          2   -1    0    0  503    0 -0.00000000000E+00  0.00000000000E+00  0.13832965739E+04  0.13832965739E+04  0.00000000000E+00 0. -1.
         21   -1    0    0  501  502  0.00000000000E+00 -0.00000000000E+00 -0.13127569072E+03  0.13127569072E+03  0.00000000000E+00 0.  1.
         24    2    1    2    0    0  0.36962842315E+02 -0.34707568046E+02  0.43246584363E+03  0.44279401333E+03  0.80429878439E+02 0.  0.
         23    2    1    2    0    0  0.37707989926E+02 -0.10478597066E+03  0.60895441402E+03  0.62611619084E+03  0.93776403938E+02 0.  0.
        -11    1    3    3    0    0  0.33570918969E+02  0.93274340033E+01  0.76044194880E+02  0.83646441649E+02  0.00000000000E+00 0.  1.
         12    1    3    3    0    0  0.33919233460E+01 -0.44035002050E+02  0.35642164875E+03  0.35914757168E+03  0.00000000000E+00 0. -1.
        -13    1    4    4    0    0 -0.26644835082E+02 -0.76274864416E+01  0.86900060931E+02  0.91212643727E+02  0.00000000000E+00 0.  1.
         13    1    4    4    0    0  0.64352825008E+02 -0.97158484223E+02  0.52205435309E+03  0.53490354712E+03  0.00000000000E+00 0. -1.
         21    1    1    2  503  502 -0.12728918165E+02  0.17013015542E+03 -0.48611952896E+02  0.17739621502E+03  0.00000000000E+00 0.  1.
          1    1    1    2  501    0 -0.61941914077E+02 -0.30636616705E+02  0.25921257846E+03  0.26826584545E+03  0.00000000000E+00 0. -1.
<scales pt_clust_5="13000.00000" pt_clust_6="13000.00000" pt_clust_7="13000.00000" pt_clust_8="13000.00000" pt_clust_9="168.07737" pt_clust_10="13000.00000"></scales>
<clustering>
<clus scale="   80.430">  5  6 -1 -1</clus>
<clus scale="   93.776">  7  8 -1 -1</clus>
<clus scale="   69.104">  7 10 -1 -1</clus>
<clus scale="   95.078">  1  5  2 -1</clus>
<clus scale="  168.077">  2  9  1 -1</clus>
<clus scale="  168.077">  2  5  1 -1</clus>
</clustering>
</event>
<event>
10    4  0.2759992E-005  0.2528016E+03  0.7546771E-02  0.1144191E+00
         -1   -1    0    0    0  501 -0.00000000000E+00  0.00000000000E+00  0.35509322698E+03  0.35509322698E+03  0.00000000000E+00 0.  1.
         21   -1    0    0  501  502  0.00000000000E+00 -0.00000000000E+00 -0.20766279907E+03  0.20766279907E+03  0.00000000000E+00 0. -1.
         24    2    1    2    0    0  0.67007413510E+02 -0.11235187769E+03  0.53105980521E+02  0.16182383322E+03  0.79080781138E+02 0.  0.
         23    2    1    2    0    0  0.26835257351E+02 -0.15798609895E+02 -0.23219639475E+02  0.10881727509E+03  0.10164802305E+03 0.  0.
        -13    1    3    3    0    0  0.74942153592E+02 -0.72210922585E+02  0.60300595540E+02  0.12027845006E+03  0.00000000000E+00 0.  1.
         14    1    3    3    0    0 -0.79347400820E+01 -0.40140955108E+02 -0.71946150187E+01  0.41545383166E+02  0.00000000000E+00 0. -1.
        -11    1    4    4    0    0 -0.34551254039E+02 -0.11609710964E+02  0.11433489975E+02  0.38200775350E+02  0.00000000000E+00 0.  1.
         11    1    4    4    0    0  0.61386511391E+02 -0.41888989308E+01 -0.34653129450E+02  0.70616499741E+02  0.00000000000E+00 0. -1.
         21    1    1    2  503  502 -0.64828392582E+02  0.93854129106E+02 -0.45641016410E+02  0.12285935216E+03  0.00000000000E+00 0. -1.
         -2    1    1    2    0  503 -0.29014278279E+02  0.34296358481E+02  0.16318510327E+03  0.16925556558E+03  0.00000000000E+00 0.  1.
<scales pt_clust_5="13000.00000" pt_clust_6="13000.00000" pt_clust_7="13000.00000" pt_clust_8="13000.00000" pt_clust_9="114.06716" pt_clust_10="13000.00000"></scales>
<clustering>
<clus scale="   79.081">  5  6 -1 -1</clus>
<clus scale="  101.648">  7  8 -1 -1</clus>
<clus scale="   44.923">  7 10 -1 -1</clus>
<clus scale="  114.067">  2  9  1 -1</clus>
<clus scale="  113.027">  1  5  2 -1</clus>
<clus scale="  114.067">  2  5  1 -1</clus>
</clustering>
</event>
<event>
10    4  0.2759992E-005  0.2178825E+03  0.7546771E-02  0.1169069E+00
          2   -1    0    0  503    0 -0.00000000000E+00  0.00000000000E+00  0.92516426410E+02  0.92516426410E+02  0.00000000000E+00 0. -1.
         21   -1    0    0  501  502  0.00000000000E+00 -0.00000000000E+00 -0.52787082115E+03  0.52787082115E+03  0.00000000000E+00 0.  1.
         24    2    1    2    0    0  0.41208508961E+01  0.46555066450E+02 -0.31047026955E+03  0.32413139249E+03  0.80529595187E+02 0.  0.
         23    2    1    2    0    0 -0.88741518348E+02 -0.69376471611E+02 -0.12237268687E+02  0.14614979776E+03  0.92313924996E+02 0.  0.
        -13    1    3    3    0    0  0.92005020777E+01  0.54134492606E+02 -0.10529021244E+03  0.11874856363E+03  0.00000000000E+00 0.  1.
         14    1    3    3    0    0 -0.50796511817E+01 -0.75794261559E+01 -0.20518005711E+03  0.20538282886E+03  0.00000000000E+00 0. -1.
        -13    1    4    4    0    0 -0.48375415229E+02  0.16179605647E+02 -0.56203622862E+01  0.51318114830E+02  0.00000000000E+00 0.  1.
         13    1    4    4    0    0 -0.40366103120E+02 -0.85556077259E+02 -0.66169064006E+01  0.94831682930E+02  0.00000000000E+00 0. -1.
         21    1    1    2  503  502  0.19927583324E+02  0.10812307557E+02 -0.65076547480E+02  0.68912782586E+02  0.00000000000E+00 0. -1.
          1    1    1    2  501    0  0.64693084128E+02  0.12009097603E+02 -0.47570309020E+02  0.81193274719E+02  0.00000000000E+00 0. -1.
<scales pt_clust_5="13000.00000" pt_clust_6="13000.00000" pt_clust_7="13000.00000" pt_clust_8="13000.00000" pt_clust_9="22.67189" pt_clust_10="13000.00000"></scales>
<clustering>
<clus scale="   22.672">  2  9  1 -1</clus>
<clus scale="   80.530">  5  6 -1 -1</clus>
<clus scale="   92.314">  7  8 -1 -1</clus>
<clus scale="   68.818">  7 10 -1 -1</clus>
<clus scale="   98.586">  1  5  2 -1</clus>
<clus scale="   22.672">  2  5  1 -1</clus>
</clustering>
</event>
<event>
10    4  0.2759992E-005  0.1847938E+03  0.7546771E-02  0.1193547E+00
          2   -1    0    0  502    0 -0.00000000000E+00  0.00000000000E+00  0.11440516543E+03  0.11440516543E+03  0.00000000000E+00 0. -1.
         21   -1    0    0  503  502  0.00000000000E+00 -0.00000000000E+00 -0.24247444981E+03  0.24247444981E+03  0.00000000000E+00 0.  1.
         24    2    1    2    0    0  0.55491741368E+02 -0.11465897275E+02 -0.28426284731E+02  0.10305758893E+03  0.81252771101E+02 0.  0.
         23    2    1    2    0    0  0.45638017131E+02 -0.10229219490E+02 -0.39896971593E+02  0.11059903151E+03  0.91939718778E+02 0.  0.
        -13    1    3    3    0    0  0.58659718897E+02 -0.38889412421E+02 -0.27108418738E+02  0.75420258459E+02  0.00000000000E+00 0.  1.
         14    1    3    3    0    0 -0.31679775298E+01  0.27423515146E+02 -0.13178659926E+01  0.27637330468E+02  0.00000000000E+00 0. -1.
        -11    1    4    4    0    0 -0.21915291122E+02 -0.15762125997E+02 -0.32753272564E+02  0.42444098112E+02  0.00000000000E+00 0.  1.
         11    1    4    4    0    0  0.67553308253E+02  0.55329065068E+01 -0.71436990291E+01  0.68154933395E+02  0.00000000000E+00 0. -1.
         21    1    1    2  503  501 -0.30379785214E+02 -0.20268633608E+01 -0.61453375527E+02  0.68582482373E+02  0.00000000000E+00 0.  1.
          1    1    1    2  501    0 -0.70749973285E+02  0.23721980126E+02  0.17073474681E+01  0.74640512433E+02  0.00000000000E+00 0. -1.
<scales pt_clust_5="13000.00000" pt_clust_6="13000.00000" pt_clust_7="13000.00000" pt_clust_8="13000.00000" pt_clust_9="30.44732" pt_clust_10="13000.00000"></scales>
<clustering>
<clus scale="   30.447">  2  9  1 -1</clus>
<clus scale="   81.253">  5  6 -1 -1</clus>
<clus scale="   91.940">  7  8 -1 -1</clus>
<clus scale="   80.443">  7 10 -1 -1</clus>
<clus scale="   93.318">  1  5  2 -1</clus>
<clus scale="   30.447">  2  5  1 -1</clus>
</clustering>
</event>
<event>
10    4  0.2759992E-005  0.6221614E+03  0.7546771E-02  0.9949042E-01
          2   -1    0    0  502    0 -0.00000000000E+00  0.00000000000E+00  0.32779055338E+04  0.32779055338E+04  0.00000000000E+00 0. -1.
         21   -1    0    0  503  502  0.00000000000E+00 -0.00000000000E+00 -0.12798570052E+03  0.12798570052E+03  0.00000000000E+00 0. -1.
         24    2    1    2    0    0 -0.25622687069E+03  0.41415821746E+03  0.11023056494E+04  0.12078334252E+04  0.81268690311E+02 0.  0.
         23    2    1    2    0    0 -0.10587090388E+02 -0.31034821808E+03  0.79809422788E+03  0.86093628435E+03  0.88480428221E+02 0.  0.
        -11    1    3    3    0    0 -0.49659095613E+01  0.30003554905E+02  0.11637257955E+03  0.12028071680E+03  0.00000000000E+00 0.  1.
         12    1    3    3    0    0 -0.25126096113E+03  0.38415466256E+03  0.98593306988E+03  0.10875527084E+04  0.00000000000E+00 0. -1.
        -13    1    4    4    0    0 -0.81373759546E+01 -0.15984080588E+03  0.29267268453E+03  0.33357547929E+03  0.00000000000E+00 0. -1.
         13    1    4    4    0    0 -0.24497144334E+01 -0.15050741220E+03  0.50542154335E+03  0.52736080506E+03  0.00000000000E+00 0.  1.
         21    1    1    2  503  501  0.24997249411E+02 -0.40610307545E+02 -0.13538017014E+02  0.49571538827E+02  0.00000000000E+00 0. -1.
          1    1    1    2  501    0  0.24181671167E+03 -0.63199691837E+02  0.12630579730E+04  0.12875499859E+04  0.00000000000E+00 0. -1.
<scales pt_clust_5="13000.00000" pt_clust_6="13000.00000" pt_clust_7="13000.00000" pt_clust_8="13000.00000" pt_clust_9="47.68710" pt_clust_10="13000.00000"></scales>
<clustering>
<clus scale="   47.687">  2  9  1 -1</clus>
<clus scale="   81.269">  5  6 -1 -1</clus>
<clus scale="   88.480">  7  8 -1 -1</clus>
<clus scale="  254.349">  7 10 -1 -1</clus>
<clus scale="  468.028">  1  5  2 -1</clus>
<clus scale="   47.687">  2  5  1 -1</clus>
</clustering>
</event>
<event>
10    4  0.2759992E-005  0.2409350E+03  0.7546771E-02  0.1153590E+00
          2   -1    0    0  503    0 -0.00000000000E+00  0.00000000000E+00  0.30847458797E+03  0.30847458797E+03  0.00000000000E+00 0. -1.
         21   -1    0    0  501  502  0.00000000000E+00 -0.00000000000E+00 -0.19164077011E+03  0.19164077011E+03  0.00000000000E+00 0.  1.
         24    2    1    2    0    0 -0.74894054042E+02 -0.18921190525E+02  0.23241527034E+02  0.11326161538E+03  0.79504051197E+02 0.  0.
         23    2    1    2    0    0  0.54446498130E+02  0.10529681452E+03  0.96436374228E+02  0.17905747899E+03  0.93326128177E+02 0.  0.
        -11    1    3    3    0    0 -0.61483712664E+02  0.89572755347E+01  0.43886782884E+02  0.76069240957E+02  0.00000000000E+00 0.  1.
         12    1    3    3    0    0 -0.13410341378E+02 -0.27878466060E+02 -0.20645255850E+02  0.37192374418E+02  0.00000000000E+00 0. -1.
        -13    1    4    4    0    0  0.35181690346E+02  0.94342590055E+02  0.11302871824E+03  0.15137293940E+03  0.00000000000E+00 0. -1.
         13    1    4    4    0    0  0.19264807784E+02  0.10954224462E+02 -0.16592344013E+02  0.27684539591E+02  0.00000000000E+00 0.  1.
         21    1    1    2  503  502  0.23218642639E+02 -0.13751367964E+01 -0.85857260562E+02  0.88952040777E+02  0.00000000000E+00 0.  1.
          1    1    1    2  501    0 -0.27710867262E+01 -0.85000487196E+02  0.83013177163E+02  0.11884422295E+03  0.00000000000E+00 0. -1.
<scales pt_clust_5="13000.00000" pt_clust_6="13000.00000" pt_clust_7="13000.00000" pt_clust_8="13000.00000" pt_clust_9="23.25933" pt_clust_10="13000.00000"></scales>
<clustering>
<clus scale="   23.259">  2  9  1 -1</clus>
<clus scale="   79.504">  5  6 -1 -1</clus>
<clus scale="   93.326">  7  8 -1 -1</clus>
<clus scale="   85.246">  7 10 -1 -1</clus>
<clus scale="  104.449">  1  5  2 -1</clus>
<clus scale="   23.259">  2  5  1 -1</clus>
</clustering>
</event>
<event>
10    4  0.2759992E-005  0.1719311E+03  0.7546771E-02  0.1203463E+00
          2   -1    0    0  503    0 -0.00000000000E+00  0.00000000000E+00  0.64290714599E+02  0.64290714599E+02  0.00000000000E+00 0. -1.
         21   -1    0    0  501  502  0.00000000000E+00 -0.00000000000E+00 -0.34161991927E+03  0.34161991927E+03  0.00000000000E+00 0.  1.
         24    2    1    2    0    0 -0.10161085802E+02 -0.14260674681E+02 -0.75073832745E+02  0.11864861847E+03  0.90193124987E+02 0.  0.
         23    2    1    2    0    0  0.40749619336E+02  0.64193907172E+02 -0.16155377963E+03  0.20015202421E+03  0.90442356708E+02 0.  0.
        -11    1    3    3    0    0 -0.40729026117E+02 -0.35787653950E+02 -0.39911040704E+02  0.67323851002E+02  0.00000000000E+00 0.  1.
         12    1    3    3    0    0  0.30567940315E+02  0.21526979269E+02 -0.35162792041E+02  0.51324767468E+02  0.00000000000E+00 0. -1.
        -13    1    4    4    0    0  0.18921729868E+02 -0.18664488565E+02 -0.69411956588E+02  0.74326406559E+02  0.00000000000E+00 0. -1.
         13    1    4    4    0    0  0.21827889468E+02  0.82858395737E+02 -0.92141823045E+02  0.12582561765E+03  0.00000000000E+00 0.  1.
         21    1    1    2  503  502 -0.28222278266E+02 -0.23795168476E+01 -0.22366724314E+02  0.36089187404E+02  0.00000000000E+00 0. -1.
          1    1    1    2  501    0 -0.23662552687E+01 -0.47553715643E+02 -0.18334867984E+02  0.51020803791E+02  0.00000000000E+00 0. -1.
<scales pt_clust_5="13000.00000" pt_clust_6="13000.00000" pt_clust_7="13000.00000" pt_clust_8="13000.00000" pt_clust_9="28.32243" pt_clust_10="13000.00000"></scales>
<clustering>
<clus scale="   28.322">  2  9  1 -1</clus>
<clus scale="   90.193">  5  6 -1 -1</clus>
<clus scale="   90.442">  7  8 -1 -1</clus>
<clus scale="   48.133">  7 10 -1 -1</clus>
<clus scale="   93.367">  1  5  2 -1</clus>
<clus scale="   28.322">  2  5  1 -1</clus>
</clustering>
</event>
<event>
10    4  0.2759992E-005  0.7456437E+03  0.7546771E-02  0.9899061E-01
          2   -1    0    0  503    0 -0.00000000000E+00  0.00000000000E+00  0.27688736343E+04  0.27688736343E+04  0.00000000000E+00 0. -1.
         21   -1    0    0  501  502  0.00000000000E+00 -0.00000000000E+00 -0.12251549793E+03  0.12251549793E+03  0.00000000000E+00 0. -1.
         24    2    1    2    0    0 -0.30496060539E+03  0.51483162504E+02  0.12163284342E+04  0.12577005536E+04  0.81880009100E+02 0.  0.
         23    2    1    2    0    0  0.33010832210E+03 -0.29676490771E+03  0.73458347259E+03  0.86310824443E+03  0.91115578402E+02 0.  0.
        -11    1    3    3    0    0 -0.10443128400E+03  0.54095044034E+02  0.38750545861E+03  0.40496005645E+03  0.00000000000E+00 0.  1.
         12    1    3    3    0    0 -0.20052932139E+03 -0.26118815293E+01  0.82882297555E+03  0.85274049714E+03  0.00000000000E+00 0. -1.
        -13    1    4    4    0    0  0.26733331599E+02 -0.30995079202E+02  0.28247150933E+02  0.49731956416E+02  0.00000000000E+00 0.  1.
         13    1    4    4    0    0  0.30337499050E+03 -0.26576982851E+03  0.70633632166E+03  0.81337628802E+03  0.00000000000E+00 0. -1.
         21    1    1    2  503  502 -0.49411233796E+00 -0.34610280922E+02  0.22374735210E+02  0.41215827885E+02  0.00000000000E+00 0. -1.
          1    1    1    2  501    0 -0.24653604377E+02  0.27989202613E+03  0.67307149438E+03  0.72936450630E+03  0.00000000000E+00 0. -1.
<scales pt_clust_5="13000.00000" pt_clust_6="13000.00000" pt_clust_7="13000.00000" pt_clust_8="13000.00000" pt_clust_9="34.61381" pt_clust_10="13000.00000"></scales>
<clustering>
<clus scale="   34.614">  2  9  1 -1</clus>
<clus scale="   81.880">  5  6 -1 -1</clus>
<clus scale="   91.116">  7  8 -1 -1</clus>
<clus scale="  272.408">  7 10 -1 -1</clus>
<clus scale="  319.060">  1  5  2 -1</clus>
<clus scale="   34.614">  2  5  1 -1</clus>
</clustering>
</event>
<event>
10    4  0.2759992E-005  0.2506302E+03  0.7546771E-02  0.1147286E+00
          2   -1    0    0  502    0 -0.00000000000E+00  0.00000000000E+00  0.24335969170E+03  0.24335969170E+03  0.00000000000E+00 0. -1.
         21   -1    0    0  503  502  0.00000000000E+00 -0.00000000000E+00 -0.26576418947E+03  0.26576418947E+03  0.00000000000E+00 0. -1.
         24    2    1    2    0    0 -0.28124037486E+02  0.81270340576E+02 -0.78764930720E+02  0.14106708689E+03  0.79373666613E+02 0.  0.
         23    2    1    2    0    0 -0.44231993964E+02  0.51310283193E+02  0.41857765742E+02  0.12008321902E+03  0.89881546969E+02 0.  0.
        -11    1    3    3    0    0 -0.17904909588E+02  0.12877446512E+02 -0.67489491144E+02  0.71001731182E+02  0.00000000000E+00 0.  1.
         12    1    3    3    0    0 -0.10219127898E+02  0.68392894064E+02 -0.11275439576E+02  0.70065355712E+02  0.00000000000E+00 0. -1.
        -13    1    4    4    0    0 -0.26050730959E+02  0.11408085500E+02 -0.26498903942E+02  0.38871286426E+02  0.00000000000E+00 0. -1.
         13    1    4    4    0    0 -0.18181263005E+02  0.39902197693E+02  0.68356669683E+02  0.81211932593E+02  0.00000000000E+00 0.  1.
         21    1    1    2  503  501 -0.14007611592E+02 -0.30523635096E+02 -0.78318690322E+02  0.85215742300E+02  0.00000000000E+00 0.  1.
          1    1    1    2  501    0  0.86363643042E+02 -0.10205698867E+03  0.92821357534E+02  0.16275783296E+03  0.00000000000E+00 0. -1.
<scales pt_clust_5="13000.00000" pt_clust_6="13000.00000" pt_clust_7="13000.00000" pt_clust_8="13000.00000" pt_clust_9="33.58430" pt_clust_10="13000.00000"></scales>
<clustering>
<clus scale="   33.584">  2  9  1 -1</clus>
<clus scale="   79.374">  5  6 -1 -1</clus>
<clus scale="   89.882">  7  8 -1 -1</clus>
<clus scale="  107.728">  1  5  2 -1</clus>
<clus scale="   91.607">  7 10 -1 -1</clus>
<clus scale="   33.584">  2  5  1 -1</clus>
</clustering>
</event>
<event>
10    4  0.2759992E-005  0.4257998E+03  0.7546771E-02  0.1040248E+00
         -1   -1    0    0    0  501 -0.00000000000E+00  0.00000000000E+00  0.22119674144E+03  0.22119674144E+03  0.00000000000E+00 0.  1.
         21   -1    0    0  501  502  0.00000000000E+00 -0.00000000000E+00 -0.10826138792E+04  0.10826138792E+04  0.00000000000E+00 0.  1.
         24    2    1    2    0    0 -0.89002630764E+02  0.35691469352E+03 -0.59394557511E+02  0.38069597150E+03  0.78052178199E+02 0.  0.
         23    2    1    2    0    0  0.15009919734E+02 -0.25247369791E+03 -0.60988988158E+03  0.66790569260E+03  0.10081706564E+03 0.  0.
        -11    1    3    3    0    0 -0.44543605790E+02  0.29718977032E+03 -0.36037573850E+02  0.30266251689E+03  0.00000000000E+00 0.  1.
         12    1    3    3    0    0 -0.44459024974E+02  0.59724923192E+02 -0.23356983662E+02  0.78033454605E+02  0.00000000000E+00 0. -1.
        -13    1    4    4    0    0 -0.24800919869E+01 -0.23110333478E+03 -0.45243542026E+03  0.50804794233E+03  0.00000000000E+00 0.  1.
         13    1    4    4    0    0  0.17490011721E+02 -0.21370363129E+02 -0.15745446132E+03  0.15985775027E+03  0.00000000000E+00 0. -1.
         21    1    1    2  503  502  0.29658987536E+02 -0.31203074169E+02 -0.15678434281E+03  0.16258726127E+03  0.00000000000E+00 0. -1.
         -2    1    1    2    0  503  0.44333723494E+02 -0.73237921441E+02 -0.35348355886E+02  0.92621695297E+02  0.00000000000E+00 0.  1.
<scales pt_clust_5="13000.00000" pt_clust_6="13000.00000" pt_clust_7="13000.00000" pt_clust_8="13000.00000" pt_clust_9="43.04982" pt_clust_10="13000.00000"></scales>
<clustering>
<clus scale="   43.050">  2  9  1 -1</clus>
<clus scale="   78.052">  5  6 -1 -1</clus>
<clus scale="  100.817">  7  8 -1 -1</clus>
<clus scale="   88.529">  7 10 -1 -1</clus>
<clus scale="  367.339">  1  5  2 -1</clus>
<clus scale="   43.050">  2  5  1 -1</clus>
</clustering>
</event>
<event>
10    4  0.2759992E-005  0.2282836E+03  0.7546771E-02  0.1157874E+00
          2   -1    0    0  502    0 -0.00000000000E+00  0.00000000000E+00  0.63027145725E+03  0.63027145725E+03  0.00000000000E+00 0. -1.
         21   -1    0    0  503  502  0.00000000000E+00 -0.00000000000E+00 -0.16697992748E+03  0.16697992748E+03  0.00000000000E+00 0. -1.
         24    2    1    2    0    0 -0.73388754252E+02 -0.20111302050E+01  0.43276516088E+03  0.44656772749E+03  0.82140713826E+02 0.  0.
         23    2    1    2    0    0 -0.25119668760E+02  0.14319538348E+01  0.10452406509E+03  0.13877163164E+03  0.87745297968E+02 0.  0.
        -13    1    3    3    0    0 -0.15673785076E+02 -0.12626962106E+02  0.16056224444E+02  0.25747039713E+02  0.00000000000E+00 0.  1.
         14    1    3    3    0    0 -0.57714969176E+02  0.10615831901E+02  0.41670893644E+03  0.42082068777E+03  0.00000000000E+00 0. -1.
        -11    1    4    4    0    0 -0.45590776556E+02  0.41183517953E+00  0.16648250274E+02  0.48537127566E+02  0.00000000000E+00 0. -1.
         11    1    4    4    0    0  0.20471107796E+02  0.10201186553E+01  0.87875814815E+02  0.90234504076E+02  0.00000000000E+00 0.  1.
         21    1    1    2  503  501 -0.13694878428E+02 -0.46452559506E+02 -0.76133765743E+02  0.90231592394E+02  0.00000000000E+00 0. -1.
          1    1    1    2  501    0  0.11220330144E+03  0.47031735876E+02  0.21360695475E+01  0.12168043321E+03  0.00000000000E+00 0. -1.
<scales pt_clust_5="13000.00000" pt_clust_6="13000.00000" pt_clust_7="13000.00000" pt_clust_8="13000.00000" pt_clust_9="48.42923" pt_clust_10="13000.00000"></scales>
<clustering>
<clus scale="   48.429">  2  9  1 -1</clus>
<clus scale="   82.141">  5  6 -1 -1</clus>
<clus scale="   87.745">  7  8 -1 -1</clus>
<clus scale="  103.373">  7 10 -1 -1</clus>
<clus scale="  111.058">  1  5  2 -1</clus>
<clus scale="   48.429">  2  5  1 -1</clus>
</clustering>
</event>
<event>
10    4  0.2759992E-005  0.4453127E+03  0.7546771E-02  0.1068491E+00
          2   -1    0    0  502    0 -0.00000000000E+00  0.00000000000E+00  0.26314963793E+04  0.26314963793E+04  0.00000000000E+00 0. -1.
         21   -1    0    0  503  502  0.00000000000E+00 -0.00000000000E+00 -0.43765271809E+02  0.43765271809E+02  0.00000000000E+00 0. -1.
         24    2    1    2    0    0  0.12136184892E+03  0.84791730349E+01  0.98163979589E+03  0.99186814721E+03  0.73383498306E+02 0.  0.
         23    2    1    2    0    0  0.12146318020E+03 -0.61526892666E+02  0.82819096609E+03  0.84369640139E+03  0.85932989746E+02 0.  0.
        -11    1    3    3    0    0  0.42568647086E+02  0.20486869518E+02  0.17380454025E+03  0.18011057645E+03  0.00000000000E+00 0.  1.
         12    1    3    3    0    0  0.78793201829E+02 -0.12007696484E+02  0.80783525564E+03  0.81175757076E+03  0.00000000000E+00 0. -1.
        -11    1    4    4    0    0  0.68170679008E+02  0.12684792884E+02  0.38314237301E+03  0.38936643852E+03  0.00000000000E+00 0.  1.
         11    1    4    4    0    0  0.53292501188E+02 -0.74211685550E+02  0.44504859308E+03  0.45432996287E+03  0.00000000000E+00 0. -1.
         21    1    1    2  503  501  0.20367280035E+02 -0.15714520733E+02  0.15067175555E+02  0.29812615402E+02  0.00000000000E+00 0. -1.
          1    1    1    2  501    0 -0.26319230915E+03  0.68762240364E+02  0.76283317000E+03  0.80988448716E+03  0.00000000000E+00 0. -1.
<scales pt_clust_5="13000.00000" pt_clust_6="13000.00000" pt_clust_7="13000.00000" pt_clust_8="13000.00000" pt_clust_9="25.72493" pt_clust_10="13000.00000"></scales>
<clustering>
<clus scale="   25.725">  2  9  1 -1</clus>
<clus scale="   73.383">  5  6 -1 -1</clus>
<clus scale="   85.933">  7  8 -1 -1</clus>
<clus scale="  144.416">  1  5  2 -1</clus>
<clus scale="  204.404">  7 10 -1 -1</clus>
<clus scale="   25.725">  2  5  1 -1</clus>
</clustering>
</event>
<event>
10    4  0.2759992E-005  0.2440185E+03  0.7546771E-02  0.1145137E+00
          2   -1    0    0  503    0 -0.00000000000E+00  0.00000000000E+00  0.20779140974E+03  0.20779140974E+03  0.00000000000E+00 0. -1.
         21   -1    0    0  501  502  0.00000000000E+00 -0.00000000000E+00 -0.35673015176E+03  0.35673015176E+03  0.00000000000E+00 0.  1.
         24    2    1    2    0    0  0.91117413402E+01  0.92707784495E+02 -0.25792021039E+02  0.12629624725E+03  0.81288108503E+02 0.  0.
         23    2    1    2    0    0 -0.25764444892E+02  0.30906601227E+02 -0.29169795564E+02  0.10423586127E+03  0.91625395939E+02 0.  0.
        -13    1    3    3    0    0  0.28504704188E+02  0.99170576787E+02 -0.21018430707E+02  0.10530477620E+03  0.00000000000E+00 0.  1.
         14    1    3    3    0    0 -0.19392962847E+02 -0.64627922921E+01 -0.47735903320E+01  0.20991471051E+02  0.00000000000E+00 0. -1.
        -13    1    4    4    0    0 -0.71924364168E+01  0.55851900891E+02  0.67583937268E+01  0.56717209562E+02  0.00000000000E+00 0.  1.
         13    1    4    4    0    0 -0.18572008475E+02 -0.24945299665E+02 -0.35928189290E+02  0.47518651705E+02  0.00000000000E+00 0. -1.
         21    1    1    2  503  502  0.28074207540E+02 -0.70726017497E+01 -0.18401333435E+03  0.18627691763E+03  0.00000000000E+00 0.  1.
          1    1    1    2  501    0 -0.11421503988E+02 -0.11654178397E+03  0.90036408940E+02  0.14771253535E+03  0.00000000000E+00 0. -1.
<scales pt_clust_5="13000.00000" pt_clust_6="13000.00000" pt_clust_7="13000.00000" pt_clust_8="13000.00000" pt_clust_9="28.95139" pt_clust_10="13000.00000"></scales>
<clustering>
<clus scale="   28.951">  2  9  1 -1</clus>
<clus scale="   81.288">  5  6 -1 -1</clus>
<clus scale="   91.625">  7  8 -1 -1</clus>
<clus scale="  117.921">  7 10 -1 -1</clus>
<clus scale="  122.865">  1  5  2 -1</clus>
<clus scale="   28.951">  2  5  1 -1</clus>
</clustering>
</event>
<event>
10    4  0.2759992E-005  0.1763791E+03  0.7546771E-02  0.1204415E+00
          4   -1    0    0  503    0 -0.00000000000E+00  0.00000000000E+00  0.50870355721E+03  0.50870355721E+03  0.00000000000E+00 0. -1.
         21   -1    0    0  501  502  0.00000000000E+00 -0.00000000000E+00 -0.44108906422E+02  0.44108906422E+02  0.00000000000E+00 0. -1.
         24    2    1    2    0    0 -0.95182529831E+01  0.20186881662E+02  0.75192865570E+02  0.11132297093E+03  0.78998287907E+02 0.  0.
         23    2    1    2    0    0 -0.28052613596E+02 -0.58890306818E+02  0.22480704905E+03  0.25196587682E+03  0.93239350141E+02 0.  0.
        -11    1    3    3    0    0  0.25603151826E+02 -0.88506271397E+01  0.48675844340E+01  0.27523596466E+02  0.00000000000E+00 0.  1.
         12    1    3    3    0    0 -0.35121404809E+02  0.29037508802E+02  0.70325281136E+02  0.83799374461E+02  0.00000000000E+00 0. -1.
        -13    1    4    4    0    0 -0.34744640800E+01 -0.80640484405E+02  0.16727713461E+03  0.18573260185E+03  0.00000000000E+00 0. -1.
         13    1    4    4    0    0 -0.24578149516E+02  0.21750177587E+02  0.57529914441E+02  0.66233274977E+02  0.00000000000E+00 0.  1.
         21    1    1    2  503  502 -0.19039081689E+02  0.87877489901E+01  0.12285105330E+02  0.24302982880E+02  0.00000000000E+00 0.  1.
          3    1    1    2  501    0  0.56609948268E+02  0.29915676166E+02  0.15230963084E+03  0.16522063300E+03  0.00000000000E+00 0. -1.
<scales pt_clust_5="13000.00000" pt_clust_6="13000.00000" pt_clust_7="13000.00000" pt_clust_8="13000.00000" pt_clust_9="20.96929" pt_clust_10="13000.00000"></scales>
<clustering>
<clus scale="   20.969">  2  9  1 -1</clus>
<clus scale="   78.998">  5  6 -1 -1</clus>
<clus scale="   84.722">  1  5  2 -1</clus>
<clus scale="   93.239">  7  8 -1 -1</clus>
<clus scale="   61.649">  7 10 -1 -1</clus>
<clus scale="   20.969">  2  5  1 -1</clus>
</clustering>
</event>
<event>
10    4  0.2759992E-005  0.7266985E+03  0.7546771E-02  0.1008267E+00
          2   -1    0    0  502    0 -0.00000000000E+00  0.00000000000E+00  0.16617092800E+04  0.16617092800E+04  0.00000000000E+00 0. -1.
         21   -1    0    0  503  502  0.00000000000E+00 -0.00000000000E+00 -0.19089847066E+03  0.19089847066E+03  0.00000000000E+00 0. -1.
         24    2    1    2    0    0 -0.82156385598E+01 -0.15670281586E+03  0.60025343379E+02  0.18599058575E+03  0.79788388418E+02 0.  0.
         23    2    1    2    0    0  0.66198415100E+02 -0.24743707034E+03  0.42634709117E+03  0.50560242696E+03  0.90855038701E+02 0.  0.
        -11    1    3    3    0    0 -0.32267468344E+02 -0.23699036824E+02  0.62290530872E+01  0.40517094690E+02  0.00000000000E+00 0.  1.
         12    1    3    3    0    0  0.24051829784E+02 -0.13300377903E+03  0.53796290292E+02  0.14547349106E+03  0.00000000000E+00 0. -1.
        -13    1    4    4    0    0  0.61582653548E+02 -0.19445117420E+03  0.39313427247E+03  0.44289754860E+03  0.00000000000E+00 0. -1.
         13    1    4    4    0    0  0.46157615527E+01 -0.52985896137E+02  0.33212818708E+02  0.62704878364E+02  0.00000000000E+00 0.  1.
         21    1    1    2  503  501  0.27597983062E+01 -0.45376343272E+02 -0.26750665401E+02  0.52746820898E+02  0.00000000000E+00 0. -1.
          1    1    1    2  501    0 -0.60742574847E+02  0.44951622947E+03  0.10111890402E+04  0.11082679170E+04  0.00000000000E+00 0. -1.
<scales pt_clust_5="13000.00000" pt_clust_6="13000.00000" pt_clust_7="13000.00000" pt_clust_8="13000.00000" pt_clust_9="45.46019" pt_clust_10="13000.00000"></scales>
<clustering>
<clus scale="   45.460">  2  9  1 -1</clus>
<clus scale="   79.788">  5  6 -1 -1</clus>
<clus scale="   90.855">  7  8 -1 -1</clus>
<clus scale="  193.016">  1  5  2 -1</clus>
<clus scale="  325.335">  7 10 -1 -1</clus>
<clus scale="   45.460">  2  5  1 -1</clus>
</clustering>
</event>
<event>
10    4  0.2759992E-005  0.6490124E+03  0.7546771E-02  0.1002446E+00
          2   -1    0    0  502    0 -0.00000000000E+00  0.00000000000E+00  0.12556769601E+04  0.12556769601E+04  0.00000000000E+00 0. -1.
         21   -1    0    0  503  502  0.00000000000E+00 -0.00000000000E+00 -0.30668958511E+03  0.30668958511E+03  0.00000000000E+00 0. -1.
         24    2    1    2    0    0  0.44233759525E+02  0.32000692321E+03  0.70807049087E+03  0.78226102132E+03  0.78787239161E+02 0.  0.
         23    2    1    2    0    0  0.16612637952E+03  0.93118922475E+02  0.19387002057E+03  0.28569520109E+03  0.88130898956E+02 0.  0.
        -11    1    3    3    0    0  0.12843959210E+02  0.35457571144E+02  0.37705544800E+02  0.53328367201E+02  0.00000000000E+00 0.  1.
         12    1    3    3    0    0  0.31389800315E+02  0.28454935207E+03  0.67036494607E+03  0.72893265412E+03  0.00000000000E+00 0. -1.
        -11    1    4    4    0    0  0.12307270480E+03  0.57223352371E+02  0.76922922024E+02  0.15600813651E+03  0.00000000000E+00 0.  1.
         11    1    4    4    0    0  0.43053674720E+02  0.35895570104E+02  0.11694709855E+03  0.12968706458E+03  0.00000000000E+00 0. -1.
         21    1    1    2  503  501 -0.96159450259E+02 -0.43943499610E+02  0.98755111452E+01  0.10618472938E+03  0.00000000000E+00 0. -1.
          1    1    1    2  501    0 -0.11420068879E+03 -0.36918234608E+03  0.37171352434E+02  0.38822559346E+03  0.00000000000E+00 0. -1.
<scales pt_clust_5="13000.00000" pt_clust_6="13000.00000" pt_clust_7="13000.00000" pt_clust_8="13000.00000" pt_clust_9="105.72451" pt_clust_10="13000.00000"></scales>
<clustering>
<clus scale="   78.787">  5  6 -1 -1</clus>
<clus scale="   88.131">  7  8 -1 -1</clus>
<clus scale="  105.725">  2  9  1 -1</clus>
<clus scale="  324.873">  1  5  2 -1</clus>
<clus scale="  275.676">  7 10 -1 -1</clus>
<clus scale="  105.725">  2  5  1 -1</clus>
</clustering>
</event>
<event>
10    4  0.2759992E-005  0.2210481E+03  0.7546771E-02  0.1164201E+00
         21   -1    0    0  503  502  0.00000000000E+00  0.00000000000E+00  0.21998690130E+03  0.21998690130E+03  0.00000000000E+00 0. -1.
         -3   -1    0    0    0  501 -0.00000000000E+00 -0.00000000000E+00 -0.62207854075E+03  0.62207854075E+03  0.00000000000E+00 0.  1.
         24    2    1    2    0    0 -0.65454971456E+02  0.26378868857E+02 -0.34636198449E+03  0.36210211399E+03  0.78556467918E+02 0.  0.
         23    2    1    2    0    0  0.51888508204E+02 -0.40099908051E+02 -0.84436798000E+02  0.13981769281E+03  0.90105462971E+02 0.  0.
        -13    1    3    3    0    0 -0.77221044678E+02  0.10682098447E+02 -0.31929487812E+03  0.32867372296E+03  0.00000000000E+00 0.  1.
         14    1    3    3    0    0  0.11766073223E+02  0.15696770409E+02 -0.27067106366E+02  0.33428391038E+02  0.00000000000E+00 0. -1.
        -11    1    4    4    0    0  0.10560225321E+02 -0.42819608038E+02 -0.87809795726E+02  0.98262899493E+02  0.00000000000E+00 0.  1.
         11    1    4    4    0    0  0.41328282882E+02  0.27196999870E+01  0.33729977261E+01  0.41554793318E+02  0.00000000000E+00 0. -1.
         21    1    1    2  503  501 -0.13816045126E+03  0.25359961741E+02  0.99673265315E+02  0.17223878126E+03  0.00000000000E+00 0. -1.
         -4    1    1    2    0  502  0.15172691451E+03 -0.11638922546E+02 -0.70966122275E+02  0.16790685398E+03  0.00000000000E+00 0.  1.
<scales pt_clust_5="13000.00000" pt_clust_6="13000.00000" pt_clust_7="13000.00000" pt_clust_8="13000.00000" pt_clust_9="149.84688" pt_clust_10="13000.00000"></scales>
<clustering>
<clus scale="   78.556">  5  6 -1 -1</clus>
<clus scale="   90.105">  7  8 -1 -1</clus>
<clus scale="  105.600">  2  5  1 -1</clus>
<clus scale="  122.540">  7 10 -1 -1</clus>
<clus scale="  149.847">  1  9  2 -1</clus>
<clus scale="  149.847">  1  5  2 -1</clus>
</clustering>
</event>
<event>
10    4  0.2759992E-005  0.2054481E+03  0.7546771E-02  0.1171127E+00
         21   -1    0    0  503  502  0.00000000000E+00  0.00000000000E+00  0.12854034623E+03  0.12854034623E+03  0.00000000000E+00 0. -1.
          2   -1    0    0  502    0 -0.00000000000E+00 -0.00000000000E+00 -0.27076073099E+03  0.27076073099E+03  0.00000000000E+00 0. -1.
         24    2    1    2    0    0 -0.62179719928E+02 -0.55761746955E+02  0.35780606241E+01  0.11584477138E+03  0.80196748964E+02 0.  0.
         23    2    1    2    0    0 -0.35200904103E+02 -0.26251317838E+01 -0.11047635264E+03  0.14681577421E+03  0.90021397990E+02 0.  0.
        -13    1    3    3    0    0  0.16078171780E+02 -0.26093993187E+02 -0.71348227108E+01  0.31469187840E+02  0.00000000000E+00 0.  1.
         14    1    3    3    0    0 -0.78257891708E+02 -0.29667753768E+02  0.10712883335E+02  0.84375583540E+02  0.00000000000E+00 0. -1.
        -13    1    4    4    0    0 -0.35039348240E+02  0.28779726381E+02 -0.10574428058E+03  0.11505599268E+03  0.00000000000E+00 0.  1.
         13    1    4    4    0    0 -0.16155586356E+00 -0.31404858165E+02 -0.47320720611E+01  0.31759781527E+02  0.00000000000E+00 0. -1.
         21    1    1    2  503  501  0.22370916508E+02 -0.85589323114E+01  0.10498342087E+02  0.26152025051E+02  0.00000000000E+00 0. -1.
          1    1    1    2  501    0  0.75009707524E+02  0.66945811050E+02 -0.45820434823E+02  0.11048850658E+03  0.00000000000E+00 0. -1.
<scales pt_clust_5="13000.00000" pt_clust_6="13000.00000" pt_clust_7="13000.00000" pt_clust_8="13000.00000" pt_clust_9="23.95231" pt_clust_10="13000.00000"></scales>
<clustering>
<clus scale="   23.952">  1  9  2 -1</clus>
<clus scale="   80.197">  5  6 -1 -1</clus>
<clus scale="   90.021">  7  8 -1 -1</clus>
<clus scale="  103.952">  7 10 -1 -1</clus>
<clus scale="  112.185">  2  5  1 -1</clus>
<clus scale="   23.952">  1  5  2 -1</clus>
</clustering>
</event>
<event>
10    4  0.2759992E-005  0.4372558E+03  0.7546771E-02  0.1083161E+00
          4   -1    0    0  503    0 -0.00000000000E+00  0.00000000000E+00  0.13320366996E+04  0.13320366996E+04  0.00000000000E+00 0. -1.
         21   -1    0    0  501  502  0.00000000000E+00 -0.00000000000E+00 -0.21815088850E+03  0.21815088850E+03  0.00000000000E+00 0. -1.
         24    2    1    2    0    0  0.47376946766E+02  0.76874931798E+00 -0.15270647961E+03  0.17863036794E+03  0.79651574841E+02 0.  0.
         23    2    1    2    0    0  0.15527361292E+03  0.39901515813E+02  0.88443451804E+03  0.90362828396E+03  0.92831207287E+02 0.  0.
        -13    1    3    3    0    0  0.52449524502E+01 -0.35110552130E+02 -0.43033347893E+02  0.55786462766E+02  0.00000000000E+00 0.  1.
         14    1    3    3    0    0  0.42131994315E+02  0.35879301448E+02 -0.10967313172E+03  0.12284390517E+03  0.00000000000E+00 0. -1.
        -13    1    4    4    0    0  0.12622067491E+03 -0.10760820408E+02  0.62332338502E+03  0.63606563839E+03  0.00000000000E+00 0. -1.
         13    1    4    4    0    0  0.29052938006E+02  0.50662336222E+02  0.26111113302E+03  0.26756264557E+03  0.00000000000E+00 0.  1.
         21    1    1    2  503  502  0.45291292724E+01 -0.49066291898E+02  0.25759561941E+02  0.55601879860E+02  0.00000000000E+00 0. -1.
          3    1    1    2  501    0 -0.20717968895E+03  0.83960267670E+01  0.35639821078E+03  0.41232705638E+03  0.00000000000E+00 0. -1.
<scales pt_clust_5="13000.00000" pt_clust_6="13000.00000" pt_clust_7="13000.00000" pt_clust_8="13000.00000" pt_clust_9="49.27488" pt_clust_10="13000.00000"></scales>
<clustering>
<clus scale="   49.275">  2  9  1 -1</clus>
<clus scale="   79.652">  5  6 -1 -1</clus>
<clus scale="   92.831">  7  8 -1 -1</clus>
<clus scale="  102.427">  1  5  2 -1</clus>
<clus scale="  191.408">  7 10 -1 -1</clus>
<clus scale="   49.275">  2  5  1 -1</clus>
</clustering>
</event>
<event>
10    4  0.2759992E-005  0.9013942E+03  0.7546771E-02  0.1014663E+00
          2   -1    0    0  503    0 -0.00000000000E+00  0.00000000000E+00  0.68596833815E+03  0.68596833815E+03  0.00000000000E+00 0. -1.
         21   -1    0    0  501  502  0.00000000000E+00 -0.00000000000E+00 -0.51487183030E+03  0.51487183030E+03  0.00000000000E+00 0. -1.
         24    2    1    2    0    0  0.14076358548E+02  0.22320215796E+02  0.14308361733E+03  0.16544293061E+03  0.78753449686E+02 0.  0.
         23    2    1    2    0    0 -0.27610084724E+03  0.24283491526E+03 -0.88615101778E+02  0.38922749656E+03  0.91896321442E+02 0.  0.
        -11    1    3    3    0    0 -0.26067771189E+02 -0.13058205325E+02  0.42983733715E+02  0.51938875471E+02  0.00000000000E+00 0.  1.
         12    1    3    3    0    0  0.40144129737E+02  0.35378421121E+02  0.10009988362E+03  0.11350405514E+03  0.00000000000E+00 0. -1.
        -11    1    4    4    0    0 -0.24003265419E+02  0.59831090277E+02 -0.34254080418E+02  0.73001768059E+02  0.00000000000E+00 0.  1.
         11    1    4    4    0    0 -0.25209758182E+03  0.18300382498E+03 -0.54361021359E+02  0.31622572850E+03  0.00000000000E+00 0. -1.
         21    1    1    2  503  502 -0.60924832676E+02  0.11580424125E+03 -0.90754679261E+01  0.13116715155E+03  0.00000000000E+00 0.  1.
          1    1    1    2  501    0  0.32294932137E+03 -0.38095937230E+03  0.12570346022E+03  0.51500258973E+03  0.00000000000E+00 0. -1.
<scales pt_clust_5="13000.00000" pt_clust_6="13000.00000" pt_clust_7="13000.00000" pt_clust_8="13000.00000" pt_clust_9="132.39424" pt_clust_10="13000.00000"></scales>
<clustering>
<clus scale="   78.753">  5  6 -1 -1</clus>
<clus scale="   83.057">  1  5  2 -1</clus>
<clus scale="   91.896">  7  8 -1 -1</clus>
<clus scale="  132.394">  2  9  1 -1</clus>
<clus scale="  438.341">  7 10 -1 -1</clus>
<clus scale="  132.394">  2  5  1 -1</clus>
</clustering>
</event>
<event>
10    4  0.2759992E-005  0.2461536E+03  0.7546771E-02  0.1136745E+00
         21   -1    0    0  503  502  0.00000000000E+00  0.00000000000E+00  0.91167819898E+02  0.91167819898E+02  0.00000000000E+00 0. -1.
          4   -1    0    0  502    0 -0.00000000000E+00 -0.00000000000E+00 -0.73236424466E+03  0.73236424466E+03  0.00000000000E+00 0. -1.
         24    2    1    2    0    0  0.34250482687E+02 -0.12031708675E+03 -0.37444272844E+03  0.40308157826E+03  0.81351735816E+02 0.  0.
         23    2    1    2    0    0  0.29146346815E+02 -0.50391073412E+01 -0.19221966246E+03  0.21487165939E+03  0.91359341286E+02 0.  0.
        -11    1    3    3    0    0 -0.23222417142E+02 -0.37356239893E+02 -0.73385118370E+02  0.85557845433E+02  0.00000000000E+00 0.  1.
         12    1    3    3    0    0  0.57472899828E+02 -0.82960846860E+02 -0.30105761007E+03  0.31752373282E+03  0.00000000000E+00 0. -1.
        -13    1    4    4    0    0 -0.17464472254E+02  0.17307885829E+02 -0.13717381023E+03  0.13936005495E+03  0.00000000000E+00 0.  1.
         13    1    4    4    0    0  0.46610819069E+02 -0.22346993170E+02 -0.55045852224E+02  0.75511604440E+02  0.00000000000E+00 0. -1.
         21    1    1    2  503  501  0.11414278291E+02  0.17076380914E+02  0.30790593958E+02  0.37012824943E+02  0.00000000000E+00 0. -1.
          3    1    1    2  501    0 -0.74811107793E+02  0.10827981318E+03 -0.10532462782E+03  0.16856600196E+03  0.00000000000E+00 0. -1.
<scales pt_clust_5="13000.00000" pt_clust_6="13000.00000" pt_clust_7="13000.00000" pt_clust_8="13000.00000" pt_clust_9="20.53993" pt_clust_10="13000.00000"></scales>
<clustering>
<clus scale="   20.540">  1  9  2 -1</clus>
<clus scale="   81.352">  5  6 -1 -1</clus>
<clus scale="   91.359">  7  8 -1 -1</clus>
<clus scale="  136.194">  7 10 -1 -1</clus>
<clus scale="  146.498">  2  5  1 -1</clus>
<clus scale="   20.540">  1  5  2 -1</clus>
</clustering>
</event>
<event>
10    4  0.2759992E-005  0.1638413E+03  0.7546771E-02  0.1204719E+00
         21   -1    0    0  503  502  0.00000000000E+00  0.00000000000E+00  0.62868966202E+02  0.62868966202E+02  0.00000000000E+00 0. -1.
          2   -1    0    0  502    0 -0.00000000000E+00 -0.00000000000E+00 -0.42973306785E+03  0.42973306785E+03  0.00000000000E+00 0. -1.
         24    2    1    2    0    0 -0.17549303456E+02 -0.79618401052E+02 -0.70351846487E+02  0.13451024137E+03  0.80601209003E+02 0.  0.
         23    2    1    2    0    0  0.10337642121E+02  0.63875046578E+01 -0.10452723275E+03  0.13903968627E+03  0.90875876401E+02 0.  0.
        -13    1    3    3    0    0  0.26467008007E+02 -0.21410334168E+02 -0.13385998420E+01  0.34069000155E+02  0.00000000000E+00 0.  1.
         14    1    3    3    0    0 -0.44016311463E+02 -0.58208066884E+02 -0.69013246645E+02  0.10044124122E+03  0.00000000000E+00 0. -1.
        -11    1    4    4    0    0  0.42537308125E+02  0.13153810980E+02 -0.94789910043E+02  0.10472617806E+03  0.00000000000E+00 0. -1.
         11    1    4    4    0    0 -0.32199666004E+02 -0.67663063220E+01 -0.97373227050E+01  0.34313508207E+02  0.00000000000E+00 0.  1.
         21    1    1    2  503  501  0.89704088523E+00  0.23755753444E+02 -0.34383763636E+01  0.24020052791E+02  0.00000000000E+00 0. -1.
          1    1    1    2  501    0  0.63146204493E+01  0.49475142950E+02 -0.18854664605E+03  0.19503205362E+03  0.00000000000E+00 0. -1.
<scales pt_clust_5="13000.00000" pt_clust_6="13000.00000" pt_clust_7="13000.00000" pt_clust_8="13000.00000" pt_clust_9="23.77268" pt_clust_10="13000.00000"></scales>
<clustering>
<clus scale="   23.773">  1  9  2 -1</clus>
<clus scale="   80.601">  5  6 -1 -1</clus>
<clus scale="   90.876">  7  8 -1 -1</clus>
<clus scale="   51.337">  7 10 -1 -1</clus>
<clus scale="  105.009">  2  5  1 -1</clus>
<clus scale="   23.773">  1  5  2 -1</clus>
</clustering>
</event>
<event>
10    4  0.2759992E-005  0.1197513E+04  0.7546771E-02  0.9647075E-01
         21   -1    0    0  501  502  0.00000000000E+00  0.00000000000E+00  0.87754138961E+03  0.87754138961E+03  0.00000000000E+00 0. -1.
          2   -1    0    0  503    0 -0.00000000000E+00 -0.00000000000E+00 -0.16924003926E+04  0.16924003926E+04  0.00000000000E+00 0. -1.
         24    2    1    2    0    0 -0.15825845912E+03 -0.11115561158E+01  0.10628057175E+03  0.20650689211E+03  0.79388671228E+02 0.  0.
         23    2    1    2    0    0  0.15757809988E+02  0.11377626600E+03  0.32844571767E+01  0.14542256576E+03  0.89126806816E+02 0.  0.
        -13    1    3    3    0    0 -0.69134116811E+02  0.35088938153E+02  0.67472704306E+02  0.10277804004E+03  0.00000000000E+00 0.  1.
         14    1    3    3    0    0 -0.89124342307E+02 -0.36200494269E+02  0.38807867443E+02  0.10372885207E+03  0.00000000000E+00 0. -1.
        -11    1    4    4    0    0 -0.27243222158E+02  0.10524135694E+02 -0.13757087561E+02  0.32283247108E+02  0.00000000000E+00 0.  1.
         11    1    4    4    0    0  0.43001032146E+02  0.10325213031E+03  0.17041544738E+02  0.11313931865E+03  0.00000000000E+00 0. -1.
         21    1    1    2  503  502 -0.71563282005E+03  0.57129102630E+03 -0.35905831169E+03  0.98357848750E+03  0.00000000000E+00 0. -1.
          1    1    1    2  501    0  0.85813346918E+03 -0.68395573619E+03 -0.56536572026E+03  0.12344338369E+04  0.00000000000E+00 0. -1.
<scales pt_clust_5="13000.00000" pt_clust_6="13000.00000" pt_clust_7="13000.00000" pt_clust_8="13000.00000" pt_clust_9="966.83004" pt_clust_10="13000.00000"></scales>
<clustering>
<clus scale="   79.389">  5  6 -1 -1</clus>
<clus scale="   89.127">  7  8 -1 -1</clus>
<clus scale="  177.058">  2  5  1 -1</clus>
<clus scale="  966.830">  1  9  2 -1</clus>
<clus scale="  315.654">  7 10 -1 -1</clus>
<clus scale="  966.830">  1  5  2 -1</clus>
</clustering>
</event>
<event>
10    4  0.2759992E-005  0.2369453E+03  0.7546771E-02  0.1163545E+00
         21   -1    0    0  501  502  0.00000000000E+00  0.00000000000E+00  0.64641486106E+02  0.64641486106E+02  0.00000000000E+00 0. -1.
          2   -1    0    0  503    0 -0.00000000000E+00 -0.00000000000E+00 -0.58749719794E+03  0.58749719794E+03  0.00000000000E+00 0. -1.
         24    2    1    2    0    0 -0.40227860843E+02 -0.98827806853E+01 -0.15611836414E+03  0.18050446206E+03  0.80578949239E+02 0.  0.
         23    2    1    2    0    0  0.58930692546E+02  0.27690746916E+02 -0.69549525576E+02  0.13269319064E+03  0.92362017873E+02 0.  0.
        -13    1    3    3    0    0 -0.21449958030E+02  0.17027992918E+02 -0.76252626758E+01  0.28428821171E+02  0.00000000000E+00 0.  1.
         14    1    3    3    0    0 -0.18777902813E+02 -0.26910773603E+02 -0.14849310146E+03  0.15207564089E+03  0.00000000000E+00 0. -1.
        -11    1    4    4    0    0  0.43622262257E+02  0.50650115089E+02 -0.79035779806E+02  0.10351323786E+03  0.00000000000E+00 0.  1.
         11    1    4    4    0    0  0.15308430288E+02 -0.22959368173E+02  0.94862542303E+01  0.29179952778E+02  0.00000000000E+00 0. -1.
         21    1    1    2  503  502  0.32636624039E+02  0.26886043644E+01  0.37563119154E+01  0.32961912889E+02  0.00000000000E+00 0. -1.
          1    1    1    2  501    0 -0.51339455742E+02 -0.20496570595E+02 -0.30094413403E+03  0.30597911846E+03  0.00000000000E+00 0. -1.
<scales pt_clust_5="13000.00000" pt_clust_6="13000.00000" pt_clust_7="13000.00000" pt_clust_8="13000.00000" pt_clust_9="32.74718" pt_clust_10="13000.00000"></scales>
<clustering>
<clus scale="   32.747">  1  9  2 -1</clus>
<clus scale="   80.579">  5  6 -1 -1</clus>
<clus scale="   87.049">  2  5  1 -1</clus>
<clus scale="   92.362">  7  8 -1 -1</clus>
<clus scale="   75.674">  7 10 -1 -1</clus>
<clus scale="   32.747">  1  5  2 -1</clus>
</clustering>
</event>
<event>
10    4  0.2759992E-005  0.3348551E+03  0.7546771E-02  0.1076168E+00
          2   -1    0    0  503    0 -0.00000000000E+00  0.00000000000E+00  0.16125158792E+04  0.16125158792E+04  0.00000000000E+00 0. -1.
         21   -1    0    0  501  502  0.00000000000E+00 -0.00000000000E+00 -0.20219218073E+03  0.20219218073E+03  0.00000000000E+00 0.  1.
         24    2    1    2    0    0  0.25128736561E+03  0.12513962077E+03  0.90338690617E+02  0.30569631778E+03  0.80522635842E+02 0.  0.
         23    2    1    2    0    0 -0.25195417454E+03 -0.72142842942E+02  0.13516662993E+04  0.13798949817E+04  0.91776249221E+02 0.  0.
        -11    1    3    3    0    0  0.11405460649E+03  0.93404027591E+02  0.21703323355E+02  0.14900939526E+03  0.00000000000E+00 0.  1.
         12    1    3    3    0    0  0.13723275912E+03  0.31735593176E+02  0.68635367262E+02  0.15668692252E+03  0.00000000000E+00 0. -1.
        -13    1    4    4    0    0 -0.47250497171E+02  0.80249057788E+01  0.12887016115E+03  0.13749373452E+03  0.00000000000E+00 0.  1.
         13    1    4    4    0    0 -0.20470367736E+03 -0.80167748721E+02  0.12227961382E+04  0.12424012472E+04  0.00000000000E+00 0. -1.
         21    1    1    2  503  502 -0.11632420160E+02 -0.23666160115E+02 -0.72629022668E+02  0.77268203467E+02  0.00000000000E+00 0.  1.
          1    1    1    2  501    0  0.12299229087E+02 -0.29330617710E+02  0.40947731184E+02  0.51848556976E+02  0.00000000000E+00 0. -1.
<scales pt_clust_5="13000.00000" pt_clust_6="13000.00000" pt_clust_7="13000.00000" pt_clust_8="13000.00000" pt_clust_9="26.37044" pt_clust_10="13000.00000"></scales>
<clustering>
<clus scale="   26.370">  2  9  1 -1</clus>
<clus scale="   80.523">  5  6 -1 -1</clus>
<clus scale="   91.776">  7  8 -1 -1</clus>
<clus scale="   32.558">  7 10 -1 -1</clus>
<clus scale="  275.368">  1  5  2 -1</clus>
<clus scale="   26.370">  2  5  1 -1</clus>
</clustering>
</event>
<event>
10    4  0.2759992E-005  0.9886141E+03  0.7546771E-02  0.9915396E-01
          2   -1    0    0  503    0 -0.00000000000E+00  0.00000000000E+00  0.11262736472E+04  0.11262736472E+04  0.00000000000E+00 0. -1.
         21   -1    0    0  501  502  0.00000000000E+00 -0.00000000000E+00 -0.38287960825E+03  0.38287960825E+03  0.00000000000E+00 0. -1.
         24    2    1    2    0    0 -0.57202476215E+02  0.57224428684E+02 -0.81555949517E+02  0.14027389803E+03  0.80489968585E+02 0.  0.
         23    2    1    2    0    0 -0.12837604013E+02 -0.50388153561E+03  0.73670195258E+03  0.90129988371E+03  0.12470087185E+03 0.  0.
        -11    1    3    3    0    0 -0.67909968543E+02  0.41537683450E+02 -0.29559126788E+02  0.84916929704E+02  0.00000000000E+00 0.  1.
         12    1    3    3    0    0  0.10707492329E+02  0.15686745234E+02 -0.51996822729E+02  0.55356968323E+02  0.00000000000E+00 0. -1.
        -13    1    4    4    0    0 -0.54905927685E+02 -0.18183757141E+03  0.21626430449E+03  0.28783643388E+03  0.00000000000E+00 0.  1.
         13    1    4    4    0    0  0.42068323672E+02 -0.32204396420E+03  0.52043764809E+03  0.61346344983E+03  0.00000000000E+00 0. -1.
         21    1    1    2  503  502  0.11254255280E+02  0.94238006123E+02  0.52620840722E+02  0.10851918235E+03  0.00000000000E+00 0. -1.
          1    1    1    2  501    0  0.58785824948E+02  0.35241910080E+03  0.35627195205E+02  0.35906029140E+03  0.00000000000E+00 0. -1.
<scales pt_clust_5="13000.00000" pt_clust_6="13000.00000" pt_clust_7="13000.00000" pt_clust_8="13000.00000" pt_clust_9="94.90764" pt_clust_10="13000.00000"></scales>
<clustering>
<clus scale="   80.490">  5  6 -1 -1</clus>
<clus scale="   94.908">  2  9  1 -1</clus>
<clus scale="  124.701">  7  8 -1 -1</clus>
<clus scale="  129.896">  1  5  2 -1</clus>
<clus scale="  422.037">  7 10 -1 -1</clus>
<clus scale="   94.908">  2  5  1 -1</clus>
</clustering>
</event>
<event>
10    4  0.2759992E-005  0.2572183E+03  0.7546771E-02  0.1143855E+00
          2   -1    0    0  503    0 -0.00000000000E+00  0.00000000000E+00  0.98760950494E+02  0.98760950494E+02  0.00000000000E+00 0. -1.
         21   -1    0    0  501  502  0.00000000000E+00 -0.00000000000E+00 -0.11428927960E+04  0.11428927960E+04  0.00000000000E+00 0. -1.
         24    2    1    2    0    0 -0.16873822465E+01 -0.75869638562E+02  0.14854656710E+02  0.10918476111E+03  0.77081787206E+02 0.  0.
         23    2    1    2    0    0 -0.55068120682E+02  0.80866864037E+02 -0.19094873850E+03  0.23307376924E+03  0.91049511583E+02 0.  0.
        -13    1    3    3    0    0 -0.29641234620E+02 -0.64712395214E+01  0.16122584796E+02  0.34357204066E+02  0.00000000000E+00 0.  1.
         14    1    3    3    0    0  0.27953852373E+02 -0.69398399040E+02 -0.12679280864E+01  0.74827557046E+02  0.00000000000E+00 0. -1.
        -13    1    4    4    0    0 -0.27426951259E+02  0.73967595538E+01 -0.13169236340E+03  0.13472129856E+03  0.00000000000E+00 0.  1.
         13    1    4    4    0    0 -0.27641169423E+02  0.73470104483E+02 -0.59256375101E+02  0.98352470685E+02  0.00000000000E+00 0. -1.
         21    1    1    2  503  502  0.53767654831E+02 -0.10099540810E+03 -0.26340211493E+03  0.28717887685E+03  0.00000000000E+00 0. -1.
          1    1    1    2  501    0  0.29878480970E+01  0.95998182620E+02 -0.60463564878E+03  0.61221633928E+03  0.00000000000E+00 0. -1.
<scales pt_clust_5="13000.00000" pt_clust_6="13000.00000" pt_clust_7="13000.00000" pt_clust_8="13000.00000" pt_clust_9="136.35978" pt_clust_10="13000.00000"></scales>
<clustering>
<clus scale="   77.082">  5  6 -1 -1</clus>
<clus scale="   91.050">  7  8 -1 -1</clus>
<clus scale="   96.045">  7 10 -1 -1</clus>
<clus scale="  108.170">  1  5  2 -1</clus>
<clus scale="  136.360">  2  9  1 -1</clus>
<clus scale="  136.360">  2  5  1 -1</clus>
</clustering>
</event>
<event>
10    4  0.2759992E-005  0.2550215E+03  0.7546771E-02  0.1141473E+00
          2   -1    0    0  502    0 -0.00000000000E+00  0.00000000000E+00  0.62617849353E+03  0.62617849353E+03  0.00000000000E+00 0. -1.
         21   -1    0    0  503  502  0.00000000000E+00 -0.00000000000E+00 -0.87487533453E+02  0.87487533453E+02  0.00000000000E+00 0.  1.
         24    2    1    2    0    0  0.33558059712E+02 -0.81751181255E+02  0.27172581488E+03  0.29720137338E+03  0.81757806097E+02 0.  0.
         23    2    1    2    0    0 -0.87510509744E+02 -0.57211563130E+01  0.44178962379E+02  0.13463698935E+03  0.92111439239E+02 0.  0.
        -11    1    3    3    0    0  0.43281041372E+02 -0.10128498964E+02  0.14078919129E+03  0.14763953202E+03  0.00000000000E+00 0.  1.
         12    1    3    3    0    0 -0.97229816605E+01 -0.71622682291E+02  0.13093662359E+03  0.14956184135E+03  0.00000000000E+00 0. -1.
        -13    1    4    4    0    0 -0.60721076248E+02 -0.40836969830E+02  0.14602891719E+01  0.73190434143E+02  0.00000000000E+00 0.  1.
         13    1    4    4    0    0 -0.26789433496E+02  0.35115813517E+02  0.42718673207E+02  0.61446555205E+02  0.00000000000E+00 0. -1.
         21    1    1    2  503  501  0.26014399113E+02  0.33214097120E+02 -0.81452552332E+01  0.42968248644E+02  0.00000000000E+00 0. -1.
          1    1    1    2  501    0  0.27938050919E+02  0.54258240448E+02  0.23093143805E+03  0.23885941561E+03  0.00000000000E+00 0. -1.
<scales pt_clust_5="13000.00000" pt_clust_6="13000.00000" pt_clust_7="13000.00000" pt_clust_8="13000.00000" pt_clust_9="42.18916" pt_clust_10="13000.00000"></scales>
<clustering>
<clus scale="   42.189">  2  9  1 -1</clus>
<clus scale="   81.758">  5  6 -1 -1</clus>
<clus scale="   92.111">  7  8 -1 -1</clus>
<clus scale="   63.683">  7 10 -1 -1</clus>
<clus scale="  117.521">  1  5  2 -1</clus>
<clus scale="   42.189">  2  5  1 -1</clus>
</clustering>
</event>
<event>
10    4  0.2759992E-005  0.2627701E+03  0.7546771E-02  0.1136849E+00
          4   -1    0    0  503    0 -0.00000000000E+00  0.00000000000E+00  0.16955504712E+03  0.16955504712E+03  0.00000000000E+00 0. -1.
         21   -1    0    0  501  502  0.00000000000E+00 -0.00000000000E+00 -0.88816311551E+03  0.88816311551E+03  0.00000000000E+00 0. -1.
         24    2    1    2    0    0 -0.47012896194E+02 -0.77984044649E+02  0.46285415124E+01  0.12021273585E+03  0.78345100906E+02 0.  0.
         23    2    1    2    0    0 -0.97076745912E+02 -0.12030581808E+03 -0.25397099460E+02  0.18157218266E+03  0.91793574911E+02 0.  0.
        -11    1    3    3    0    0  0.19964581677E+02 -0.35733150623E+02  0.18118901413E+01  0.40972253061E+02  0.00000000000E+00 0.  1.
         12    1    3    3    0    0 -0.66977477870E+02 -0.42250894026E+02  0.28166513711E+01  0.79240482790E+02  0.00000000000E+00 0. -1.
        -11    1    4    4    0    0 -0.19762707007E+02 -0.30005221116E+02 -0.48613616554E+02  0.60449661677E+02  0.00000000000E+00 0. -1.
         11    1    4    4    0    0 -0.77314038905E+02 -0.90300596960E+02  0.23216517094E+02  0.12112252098E+03  0.00000000000E+00 0.  1.
         21    1    1    2  503  502  0.12159999736E+03  0.17903129245E+03 -0.69290338922E+03  0.72591588344E+03  0.00000000000E+00 0. -1.
          3    1    1    2  501    0  0.22489644740E+02  0.19258570270E+02 -0.49361212302E+01  0.30017360680E+02  0.00000000000E+00 0. -1.
<scales pt_clust_5="13000.00000" pt_clust_6="13000.00000" pt_clust_7="13000.00000" pt_clust_8="13000.00000" pt_clust_9="202.41513" pt_clust_10="13000.00000"></scales>
<clustering>
<clus scale="   78.345">  5  6 -1 -1</clus>
<clus scale="   91.794">  7  8 -1 -1</clus>
<clus scale="   29.609">  7 10 -1 -1</clus>
<clus scale="  120.124">  1  5  2 -1</clus>
<clus scale="  202.415">  2  9  1 -1</clus>
<clus scale="  202.415">  2  5  1 -1</clus>
</clustering>
</event>
<event>
10    4  0.2759992E-005  0.3098739E+03  0.7546771E-02  0.1119487E+00
         21   -1    0    0  503  502  0.00000000000E+00  0.00000000000E+00  0.18089308607E+03  0.18089308607E+03  0.00000000000E+00 0.  1.
         -1   -1    0    0    0  501 -0.00000000000E+00 -0.00000000000E+00 -0.81709261011E+03  0.81709261011E+03  0.00000000000E+00 0.  1.
         24    2    1    2    0    0  0.71037934505E+02 -0.45223661427E+02 -0.36182559295E+03  0.37993063250E+03  0.79611293827E+02 0.  0.
         23    2    1    2    0    0  0.77941853498E+02  0.73508580013E+02 -0.29348270273E+03  0.32325102432E+03  0.82949888870E+02 0.  0.
        -11    1    3    3    0    0  0.35468372757E+02 -0.55445175277E+02 -0.30567276882E+03  0.31267877211E+03  0.00000000000E+00 0.  1.
         12    1    3    3    0    0  0.35569561748E+02  0.10221513850E+02 -0.56152824127E+02  0.67251860389E+02  0.00000000000E+00 0. -1.
        -13    1    4    4    0    0  0.81294995281E+02  0.22577801574E+02 -0.17733979345E+03  0.19638746325E+03  0.00000000000E+00 0.  1.
         13    1    4    4    0    0 -0.33531417828E+01  0.50930778440E+02 -0.11614290928E+03  0.12686356108E+03  0.00000000000E+00 0. -1.
         21    1    1    2  503  501 -0.20014650333E+02  0.30953765194E+02  0.11682159448E+03  0.12249900711E+03  0.00000000000E+00 0.  1.
         -2    1    1    2    0  502 -0.12896513767E+03 -0.59238683780E+02 -0.97712822844E+02  0.17230503225E+03  0.00000000000E+00 0.  1.
<scales pt_clust_5="13000.00000" pt_clust_6="13000.00000" pt_clust_7="13000.00000" pt_clust_8="13000.00000" pt_clust_9="36.86084" pt_clust_10="13000.00000"></scales>
<clustering>
<clus scale="   36.861">  1  9  2 -1</clus>
<clus scale="   79.611">  5  6 -1 -1</clus>
<clus scale="   82.950">  7  8 -1 -1</clus>
<clus scale="  112.361">  2  5  1 -1</clus>
<clus scale="  130.843">  7 10 -1 -1</clus>
<clus scale="   36.861">  1  5  2 -1</clus>
</clustering>
</event>
<event>
10    4  0.2759992E-005  0.3029757E+03  0.7546771E-02  0.1102004E+00
         21   -1    0    0  503  502  0.00000000000E+00  0.00000000000E+00  0.78937523381E+02  0.78937523381E+02  0.00000000000E+00 0. -1.
          2   -1    0    0  502    0 -0.00000000000E+00 -0.00000000000E+00 -0.96560775085E+03  0.96560775085E+03  0.00000000000E+00 0. -1.
         24    2    1    2    0    0  0.18099980630E+02  0.18060459497E+03 -0.23562836463E+03  0.30684713247E+03  0.75424183535E+02 0.  0.
         23    2    1    2    0    0 -0.77556712170E+02 -0.56395356022E+02 -0.13167230777E+03  0.18625078962E+03  0.90312126641E+02 0.  0.
        -13    1    3    3    0    0 -0.16723507681E+02  0.93492598708E+02 -0.75785519831E+02  0.12150714686E+03  0.00000000000E+00 0.  1.
         14    1    3    3    0    0  0.34823488311E+02  0.87111996263E+02 -0.15984284480E+03  0.18533998561E+03  0.00000000000E+00 0. -1.
        -13    1    4    4    0    0 -0.78721600381E+02 -0.34807523339E+01 -0.78899460638E+02  0.11150933097E+03  0.00000000000E+00 0.  1.
         13    1    4    4    0    0  0.11648882109E+01 -0.52914603688E+02 -0.52772847130E+02  0.74741458657E+02  0.00000000000E+00 0. -1.
         21    1    1    2  503  501  0.20847344561E+02 -0.21901299483E+02 -0.12170774378E+02  0.32594576900E+02  0.00000000000E+00 0. -1.
          1    1    1    2  501    0  0.38609386979E+02 -0.10230793947E+03 -0.50719878069E+03  0.51885277524E+03  0.00000000000E+00 0. -1.
<scales pt_clust_5="13000.00000" pt_clust_6="13000.00000" pt_clust_7="13000.00000" pt_clust_8="13000.00000" pt_clust_9="30.23704" pt_clust_10="13000.00000"></scales>
<clustering>
<clus scale="   30.237">  1  9  2 -1</clus>
<clus scale="   75.424">  5  6 -1 -1</clus>
<clus scale="   90.312">  7  8 -1 -1</clus>
<clus scale="  111.717">  7 10 -1 -1</clus>
<clus scale="  187.542">  2  5  1 -1</clus>
<clus scale="   30.237">  1  5  2 -1</clus>
</clustering>
</event>
<event>
10    4  0.2759992E-005  0.2667872E+03  0.7546771E-02  0.1121010E+00
          2   -1    0    0  503    0 -0.00000000000E+00  0.00000000000E+00  0.11176531689E+04  0.11176531689E+04  0.00000000000E+00 0. -1.
         21   -1    0    0  501  502  0.00000000000E+00 -0.00000000000E+00 -0.50482112172E+02  0.50482112172E+02  0.00000000000E+00 0. -1.
         24    2    1    2    0    0 -0.69144630325E+02  0.13321144069E+03  0.44506830695E+03  0.47652911616E+03  0.80423459624E+02 0.  0.
         23    2    1    2    0    0 -0.26889455949E+02 -0.26564256461E+02  0.10061364953E+03  0.14166676432E+03  0.92291186348E+02 0.  0.
        -13    1    3    3    0    0 -0.64491280844E+02  0.39052806308E+02  0.21796359584E+03  0.23063472440E+03  0.00000000000E+00 0.  1.
         14    1    3    3    0    0 -0.46533494811E+01  0.94158634382E+02  0.22710471111E+03  0.24589439176E+03  0.00000000000E+00 0. -1.
        -11    1    4    4    0    0 -0.31575105736E+02 -0.57004264025E+02  0.48882005845E+02  0.81461180416E+02  0.00000000000E+00 0. -1.
         11    1    4    4    0    0  0.46856497873E+01  0.30440007564E+02  0.51731643688E+02  0.60205583903E+02  0.00000000000E+00 0.  1.
         21    1    1    2  503  502  0.32269679731E+02  0.12282153816E+02  0.61102688796E+02  0.70183488873E+02  0.00000000000E+00 0.  1.
          1    1    1    2  501    0  0.63764406543E+02 -0.11892933805E+03  0.46038641146E+03  0.47975591174E+03  0.00000000000E+00 0. -1.
<scales pt_clust_5="13000.00000" pt_clust_6="13000.00000" pt_clust_7="13000.00000" pt_clust_8="13000.00000" pt_clust_9="34.52801" pt_clust_10="13000.00000"></scales>
<clustering>
<clus scale="   34.528">  2  9  1 -1</clus>
<clus scale="   80.423">  5  6 -1 -1</clus>
<clus scale="   92.291">  7  8 -1 -1</clus>
<clus scale="  136.069">  7 10 -1 -1</clus>
<clus scale="  169.489">  1  5  2 -1</clus>
<clus scale="   34.528">  2  5  1 -1</clus>
</clustering>
</event>
<event>
10    4  0.2759992E-005  0.2158011E+03  0.7546771E-02  0.1165532E+00
          2   -1    0    0  502    0 -0.00000000000E+00  0.00000000000E+00  0.70735716265E+03  0.70735716265E+03  0.00000000000E+00 0. -1.
         21   -1    0    0  503  502  0.00000000000E+00 -0.00000000000E+00 -0.63608725302E+02  0.63608725302E+02  0.00000000000E+00 0. -1.
         24    2    1    2    0    0 -0.64485398444E+02 -0.36339864066E+02  0.39068913050E+03  0.40597316738E+03  0.81836810859E+02 0.  0.
         23    2    1    2    0    0 -0.10075362136E+02  0.55422714523E+02  0.20616895484E+03  0.23338960166E+03  0.93765014888E+02 0.  0.
        -13    1    3    3    0    0 -0.68809937168E+02 -0.53381288086E+02  0.26214992355E+03  0.27623712963E+03  0.00000000000E+00 0.  1.
         14    1    3    3    0    0  0.43245387238E+01  0.17041424020E+02  0.12853920694E+03  0.12973603774E+03  0.00000000000E+00 0. -1.
        -11    1    4    4    0    0  0.15120475872E+01  0.77770400934E+02  0.11520087552E+03  0.13900274555E+03  0.00000000000E+00 0.  1.
         11    1    4    4    0    0 -0.11587409723E+02 -0.22347686411E+02  0.90968079315E+02  0.94386856109E+02  0.00000000000E+00 0. -1.
         21    1    1    2  503  501 -0.75824099360E+01  0.19725989051E+02 -0.11052464312E+02  0.23848785124E+02  0.00000000000E+00 0. -1.
          1    1    1    2  501    0  0.82143170516E+02 -0.38808839508E+02  0.57942816325E+02  0.10775433379E+03  0.00000000000E+00 0. -1.
<scales pt_clust_5="13000.00000" pt_clust_6="13000.00000" pt_clust_7="13000.00000" pt_clust_8="13000.00000" pt_clust_9="21.13309" pt_clust_10="13000.00000"></scales>
<clustering>
<clus scale="   21.133">  2  9  1 -1</clus>
<clus scale="   81.837">  5  6 -1 -1</clus>
<clus scale="   93.765">  7  8 -1 -1</clus>
<clus scale="   82.978">  7 10 -1 -1</clus>
<clus scale="  110.059">  1  5  2 -1</clus>
<clus scale="   21.133">  2  5  1 -1</clus>
</clustering>
</event>
<event>
10    4  0.2759992E-005  0.4438132E+03  0.7546771E-02  0.1045837E+00
         21   -1    0    0  503  502  0.00000000000E+00  0.00000000000E+00  0.25672136785E+03  0.25672136785E+03  0.00000000000E+00 0. -1.
          2   -1    0    0  502    0 -0.00000000000E+00 -0.00000000000E+00 -0.15505254450E+04  0.15505254450E+04  0.00000000000E+00 0. -1.
         24    2    1    2    0    0 -0.26522704715E+03  0.29190841779E+02 -0.39350902715E+03  0.48225630435E+03  0.80773119634E+02 0.  0.
         23    2    1    2    0    0  0.15015089952E+03 -0.17311944153E+03 -0.85738723601E+03  0.89057829865E+03  0.74170074031E+02 0.  0.
        -11    1    3    3    0    0 -0.44078143870E+02 -0.25150011389E+02 -0.80779735932E+02  0.95397964219E+02  0.00000000000E+00 0.  1.
         12    1    3    3    0    0 -0.22114890328E+03  0.54340853168E+02 -0.31272929122E+03  0.38685834013E+03  0.00000000000E+00 0. -1.
        -13    1    4    4    0    0 -0.16840640614E+01 -0.26214171379E+02 -0.56736786889E+02  0.62522650610E+02  0.00000000000E+00 0.  1.
         13    1    4    4    0    0  0.15183496358E+03 -0.14690527015E+03 -0.80065044913E+03  0.82805564804E+03  0.00000000000E+00 0. -1.
         21    1    1    2  503  501  0.88339300407E+01  0.22317829647E+02  0.16748269032E+03  0.16919389882E+03  0.00000000000E+00 0. -1.
          1    1    1    2  501    0  0.10624221759E+03  0.12161077010E+03 -0.21039050429E+03  0.26521831102E+03  0.00000000000E+00 0. -1.
<scales pt_clust_5="13000.00000" pt_clust_6="13000.00000" pt_clust_7="13000.00000" pt_clust_8="13000.00000" pt_clust_9="24.00258" pt_clust_10="13000.00000"></scales>
<clustering>
<clus scale="   24.003">  1  9  2 -1</clus>
<clus scale="   74.170">  7  8 -1 -1</clus>
<clus scale="   80.773">  5  6 -1 -1</clus>
<clus scale="  168.517">  7 10 -1 -1</clus>
<clus scale="  275.987">  2  5  1 -1</clus>
<clus scale="   24.003">  1  5  2 -1</clus>
</clustering>
</event>
<event>
10    4  0.2759992E-005  0.2767609E+03  0.7546771E-02  0.1139793E+00
         21   -1    0    0  503  502  0.00000000000E+00  0.00000000000E+00  0.14043919933E+03  0.14043919933E+03  0.00000000000E+00 0.  1.
         -1   -1    0    0    0  501 -0.00000000000E+00 -0.00000000000E+00 -0.42477463390E+03  0.42477463390E+03  0.00000000000E+00 0.  1.
         24    2    1    2    0    0 -0.17001940231E+02 -0.57799446615E+02 -0.17735348782E+03  0.20384848670E+03  0.80436955987E+02 0.  0.
         23    2    1    2    0    0 -0.94274523337E+02 -0.79870726851E+02 -0.59505273002E+02  0.16416376203E+03  0.90232169936E+02 0.  0.
        -13    1    3    3    0    0 -0.26969383754E+02 -0.34472753102E+02 -0.17257046400E+03  0.17803450062E+03  0.00000000000E+00 0.  1.
         14    1    3    3    0    0  0.99674435227E+01 -0.23326693513E+02 -0.47830238222E+01  0.25813986083E+02  0.00000000000E+00 0. -1.
        -13    1    4    4    0    0 -0.87080651696E+02 -0.15774002794E+02 -0.33946750561E+02  0.94785235863E+02  0.00000000000E+00 0.  1.
         13    1    4    4    0    0 -0.71938716408E+01 -0.64096724057E+02 -0.25558522441E+02  0.69378526169E+02  0.00000000000E+00 0. -1.
         21    1    1    2  503  501  0.13975326843E+02  0.71414386157E+02 -0.27550981777E+02  0.77809902374E+02  0.00000000000E+00 0.  1.
         -2    1    1    2    0  502  0.97301136726E+02  0.66255787309E+02 -0.19925691969E+02  0.11939168212E+03  0.00000000000E+00 0.  1.
<scales pt_clust_5="13000.00000" pt_clust_6="13000.00000" pt_clust_7="13000.00000" pt_clust_8="13000.00000" pt_clust_9="72.76898" pt_clust_10="13000.00000"></scales>
<clustering>
<clus scale="   72.769">  1  9  2 -1</clus>
<clus scale="   80.437">  5  6 -1 -1</clus>
<clus scale="   90.232">  7  8 -1 -1</clus>
<clus scale="   95.743">  2  5  1 -1</clus>
<clus scale="  119.739">  7 10 -1 -1</clus>
<clus scale="   72.769">  1  5  2 -1</clus>
</clustering>
</event>
<event>
10    4  0.2759992E-005  0.2411384E+03  0.7546771E-02  0.1144023E+00
         21   -1    0    0  501  502  0.00000000000E+00  0.00000000000E+00  0.13092374388E+03  0.13092374388E+03  0.00000000000E+00 0. -1.
          2   -1    0    0  503    0 -0.00000000000E+00 -0.00000000000E+00 -0.83389225507E+03  0.83389225507E+03  0.00000000000E+00 0. -1.
         24    2    1    2    0    0  0.35672812908E+02 -0.96338509681E+02 -0.30582409639E+03  0.33260458894E+03  0.80893612992E+02 0.  0.
         23    2    1    2    0    0  0.67998017951E+02 -0.52690994439E+02 -0.16452509768E+03  0.20633999175E+03  0.90042284990E+02 0.  0.
        -11    1    3    3    0    0  0.60555064394E+02 -0.66153900946E+02 -0.18474253769E+03  0.20536080363E+03  0.00000000000E+00 0.  1.
         12    1    3    3    0    0 -0.24882251486E+02 -0.30184608735E+02 -0.12108155870E+03  0.12724378532E+03  0.00000000000E+00 0. -1.
        -13    1    4    4    0    0  0.86106362153E+02 -0.41979015677E+02 -0.10003502963E+03  0.13850469491E+03  0.00000000000E+00 0. -1.
         13    1    4    4    0    0 -0.18108344202E+02 -0.10711978763E+02 -0.64490068054E+02  0.67835296833E+02  0.00000000000E+00 0.  1.
         21    1    1    2  503  502 -0.91316582462E+02  0.17478018649E+03 -0.58225718609E+01  0.19728338543E+03  0.00000000000E+00 0. -1.
          1    1    1    2  501    0 -0.12354248397E+02 -0.25750682375E+02 -0.22679674525E+03  0.22858803283E+03  0.00000000000E+00 0. -1.
<scales pt_clust_5="13000.00000" pt_clust_6="13000.00000" pt_clust_7="13000.00000" pt_clust_8="13000.00000" pt_clust_9="177.10858" pt_clust_10="13000.00000"></scales>
<clustering>
<clus scale="   80.894">  5  6 -1 -1</clus>
<clus scale="   90.042">  7  8 -1 -1</clus>
<clus scale="   28.561">  7 10 -1 -1</clus>
<clus scale="  130.757">  2  5  1 -1</clus>
<clus scale="  177.109">  1  9  2 -1</clus>
<clus scale="  177.109">  1  5  2 -1</clus>
</clustering>
</event>
<event>
10    4  0.2759992E-005  0.4462597E+03  0.7546771E-02  0.1055003E+00
          2   -1    0    0  503    0 -0.00000000000E+00  0.00000000000E+00  0.10391227237E+04  0.10391227237E+04  0.00000000000E+00 0. -1.
         21   -1    0    0  501  502  0.00000000000E+00 -0.00000000000E+00 -0.11130812858E+03  0.11130812858E+03  0.00000000000E+00 0. -1.
         24    2    1    2    0    0 -0.10335356001E+03  0.17110477495E+03  0.27861593682E+03  0.35213308114E+03  0.80075365773E+02 0.  0.
         23    2    1    2    0    0 -0.10990689004E+03  0.47497374362E+02  0.17641811107E+03  0.23120978320E+03  0.89437625671E+02 0.  0.
        -13    1    3    3    0    0 -0.16873889293E+02  0.32361341788E+02  0.10281653064E+02  0.37916974720E+02  0.00000000000E+00 0.  1.
         14    1    3    3    0    0 -0.86479670713E+02  0.13874343316E+03  0.26833428376E+03  0.31421610642E+03  0.00000000000E+00 0. -1.
        -11    1    4    4    0    0 -0.22171084114E+02  0.53038159738E+02  0.44562548240E+02  0.72735301366E+02  0.00000000000E+00 0.  1.
         11    1    4    4    0    0 -0.87735805922E+02 -0.55407853764E+01  0.13185556283E+03  0.15847448184E+03  0.00000000000E+00 0. -1.
         21    1    1    2  503  502  0.11575646279E+01 -0.22395848587E+02  0.20448326026E+02  0.30348773074E+02  0.00000000000E+00 0.  1.
          1    1    1    2  501    0  0.21210288541E+03 -0.19620630072E+03  0.45233222118E+03  0.53673921485E+03  0.00000000000E+00 0. -1.
<scales pt_clust_5="13000.00000" pt_clust_6="13000.00000" pt_clust_7="13000.00000" pt_clust_8="13000.00000" pt_clust_9="22.42574" pt_clust_10="13000.00000"></scales>
<clustering>
<clus scale="   22.426">  2  9  1 -1</clus>
<clus scale="   80.075">  5  6 -1 -1</clus>
<clus scale="   89.438">  7  8 -1 -1</clus>
<clus scale="  209.044">  1  5  2 -1</clus>
<clus scale="  164.977">  7 10 -1 -1</clus>
<clus scale="   22.426">  2  5  1 -1</clus>
</clustering>
</event>
<event>
10    4  0.2759992E-005  0.6170994E+03  0.7546771E-02  0.1042962E+00
         21   -1    0    0  503  502  0.00000000000E+00  0.00000000000E+00  0.13371991707E+03  0.13371991707E+03  0.00000000000E+00 0.  1.
          2   -1    0    0  502    0 -0.00000000000E+00 -0.00000000000E+00 -0.12112474644E+04  0.12112474644E+04  0.00000000000E+00 0. -1.
         24    2    1    2    0    0 -0.80105335818E+02 -0.11325943463E+02 -0.36600439166E+03  0.38248908898E+03  0.76115350974E+02 0.  0.
         23    2    1    2    0    0 -0.10236298999E+03 -0.25172571309E+03 -0.20257395028E+03  0.35098378679E+03  0.91155893453E+02 0.  0.
        -13    1    3    3    0    0 -0.35573939354E+02  0.16085280871E+02 -0.56983141376E+02  0.69074740846E+02  0.00000000000E+00 0.  1.
         14    1    3    3    0    0 -0.44531396465E+02 -0.27411224333E+02 -0.30902125028E+03  0.31341434814E+03  0.00000000000E+00 0. -1.
        -11    1    4    4    0    0 -0.87995961677E+02 -0.19586869778E+03 -0.19970022661E+03  0.29323713365E+03  0.00000000000E+00 0.  1.
         11    1    4    4    0    0 -0.14367028312E+02 -0.55857015312E+02 -0.28737236664E+01  0.57746653148E+02  0.00000000000E+00 0. -1.
         21    1    1    2  503  501 -0.13208637149E+02  0.25707929321E+02 -0.25850111616E+02  0.38776203989E+02  0.00000000000E+00 0. -1.
          1    1    1    2  501    0  0.19567696296E+03  0.23734372723E+03 -0.48309909375E+03  0.57271830167E+03  0.00000000000E+00 0. -1.
<scales pt_clust_5="13000.00000" pt_clust_6="13000.00000" pt_clust_7="13000.00000" pt_clust_8="13000.00000" pt_clust_9="28.90269" pt_clust_10="13000.00000"></scales>
<clustering>
<clus scale="   28.903">  1  9  2 -1</clus>
<clus scale="   76.115">  5  6 -1 -1</clus>
<clus scale="   91.156">  7  8 -1 -1</clus>
<clus scale="  111.542">  2  5  1 -1</clus>
<clus scale="  276.474">  7 10 -1 -1</clus>
<clus scale="   28.903">  1  5  2 -1</clus>
</clustering>
</event>
<event>
10    4  0.2759992E-005  0.2181855E+03  0.7546771E-02  0.1146200E+00
          2   -1    0    0  502    0 -0.00000000000E+00  0.00000000000E+00  0.14833335174E+04  0.14833335174E+04  0.00000000000E+00 0. -1.
         21   -1    0    0  503  502  0.00000000000E+00 -0.00000000000E+00 -0.75995752625E+02  0.75995752625E+02  0.00000000000E+00 0. -1.
         24    2    1    2    0    0 -0.14520023620E+03 -0.11566290764E+03  0.53387085804E+03  0.57102214561E+03  0.81161449665E+02 0.  0.
         23    2    1    2    0    0  0.44862626439E+02 -0.99639819668E+01  0.46733024524E+03  0.47850175094E+03  0.91947981747E+02 0.  0.
        -13    1    3    3    0    0 -0.11014379051E+02 -0.41695247528E+02  0.18545803143E+03  0.19040612289E+03  0.00000000000E+00 0.  1.
         14    1    3    3    0    0 -0.13418585715E+03 -0.73967660114E+02  0.34841282661E+03  0.38061602272E+03  0.00000000000E+00 0. -1.
        -11    1    4    4    0    0  0.37888492998E+02 -0.46704027694E+02  0.35638045561E+03  0.36141919324E+03  0.00000000000E+00 0.  1.
         11    1    4    4    0    0  0.69741334403E+01  0.36740045727E+02  0.11094978964E+03  0.11708255770E+03  0.00000000000E+00 0. -1.
         21    1    1    2  503  501  0.48443337179E+02  0.40029317529E+02 -0.24678544311E+02  0.67513952101E+02  0.00000000000E+00 0. -1.
          1    1    1    2  501    0  0.51894272583E+02  0.85597572079E+02  0.43081520584E+03  0.44229142142E+03  0.00000000000E+00 0. -1.
<scales pt_clust_5="13000.00000" pt_clust_6="13000.00000" pt_clust_7="13000.00000" pt_clust_8="13000.00000" pt_clust_9="62.84189" pt_clust_10="13000.00000"></scales>
<clustering>
<clus scale="   62.842">  2  9  1 -1</clus>
<clus scale="   81.161">  5  6 -1 -1</clus>
<clus scale="   91.948">  7  8 -1 -1</clus>
<clus scale="  111.559">  7 10 -1 -1</clus>
<clus scale="  167.570">  1  5  2 -1</clus>
<clus scale="   62.842">  2  5  1 -1</clus>
</clustering>
</event>
<event>
10    4  0.2759992E-005  0.2933931E+03  0.7546771E-02  0.1095459E+00
         21   -1    0    0  501  502  0.00000000000E+00  0.00000000000E+00  0.11805238018E+04  0.11805238018E+04  0.00000000000E+00 0.  1.
          2   -1    0    0  503    0 -0.00000000000E+00 -0.00000000000E+00 -0.10878740614E+03  0.10878740614E+03  0.00000000000E+00 0. -1.
         24    2    1    2    0    0 -0.97017907277E+02 -0.22118165999E+03  0.77614949556E+03  0.81680629040E+03  0.80191492899E+02 0.  0.
         23    2    1    2    0    0  0.57321318312E+02  0.70582775624E+02  0.13842463496E+03  0.18922772614E+03  0.91531912626E+02 0.  0.
        -13    1    3    3    0    0 -0.74776721833E+02 -0.21491577630E+03  0.73717569167E+03  0.77149747208E+03  0.00000000000E+00 0.  1.
         14    1    3    3    0    0 -0.22241185444E+02 -0.62658836870E+01  0.38973803893E+02  0.45308818327E+02  0.00000000000E+00 0. -1.
        -11    1    4    4    0    0  0.41078115324E+01  0.72628563215E+02  0.99544751795E+02  0.12329209188E+03  0.00000000000E+00 0.  1.
         11    1    4    4    0    0  0.53213506779E+02 -0.20457875901E+01  0.38879883169E+02  0.65935634265E+02  0.00000000000E+00 0. -1.
         21    1    1    2  503  502 -0.14208145853E+02  0.21587713919E+02  0.14004939186E+03  0.14241394932E+03  0.00000000000E+00 0.  1.
          1    1    1    2  501    0  0.53904734819E+02  0.12901117044E+03  0.17112873271E+02  0.14086324207E+03  0.00000000000E+00 0. -1.
<scales pt_clust_5="13000.00000" pt_clust_6="13000.00000" pt_clust_7="13000.00000" pt_clust_8="13000.00000" pt_clust_9="25.84378" pt_clust_10="13000.00000"></scales>
<clustering>
<clus scale="   25.844">  1  9  2 -1</clus>
<clus scale="   80.191">  5  6 -1 -1</clus>
<clus scale="   91.532">  7  8 -1 -1</clus>
<clus scale="  140.927">  7 10 -1 -1</clus>
<clus scale="  244.849">  2  5  1 -1</clus>
<clus scale="   25.844">  1  5  2 -1</clus>
</clustering>
</event>
<event>
10    4  0.2759992E-005  0.1442150E+03  0.7546771E-02  0.1227495E+00
         21   -1    0    0  501  502  0.00000000000E+00  0.00000000000E+00  0.55880123183E+02  0.55880123183E+02  0.00000000000E+00 0. -1.
          2   -1    0    0  503    0 -0.00000000000E+00 -0.00000000000E+00 -0.58712808450E+03  0.58712808450E+03  0.00000000000E+00 0. -1.
         24    2    1    2    0    0  0.42711820094E+02 -0.24439975942E+02 -0.20203169264E+03  0.22511434478E+03  0.86244138299E+02 0.  0.
         23    2    1    2    0    0 -0.13823534550E+02 -0.31131515769E+02 -0.15966317104E+03  0.18212455386E+03  0.80726473657E+02 0.  0.
        -11    1    3    3    0    0 -0.20347891408E+02 -0.29706144884E+02 -0.71754160366E+02  0.80281699399E+02  0.00000000000E+00 0.  1.
         12    1    3    3    0    0  0.63059711502E+02  0.52661689414E+01 -0.13027753228E+03  0.14483264538E+03  0.00000000000E+00 0. -1.
        -11    1    4    4    0    0  0.19518523919E+02 -0.57205068383E+01 -0.37608335930E+01  0.20684313955E+02  0.00000000000E+00 0.  1.
         11    1    4    4    0    0 -0.33342058469E+02 -0.25411008931E+02 -0.15590233745E+03  0.16144023990E+03  0.00000000000E+00 0. -1.
         21    1    1    2  503  502 -0.14276590456E+02  0.14990967316E+02  0.27291654805E+02  0.34254701255E+02  0.00000000000E+00 0. -1.
          1    1    1    2  501    0 -0.14611695088E+02  0.40580524396E+02 -0.19684475244E+03  0.20151460780E+03  0.00000000000E+00 0. -1.
<scales pt_clust_5="13000.00000" pt_clust_6="13000.00000" pt_clust_7="13000.00000" pt_clust_8="13000.00000" pt_clust_9="20.70145" pt_clust_10="13000.00000"></scales>
<clustering>
<clus scale="   20.701">  1  9  2 -1</clus>
<clus scale="   80.726">  7  8 -1 -1</clus>
<clus scale="   44.899">  7 10 -1 -1</clus>
<clus scale="   86.244">  5  6 -1 -1</clus>
<clus scale="   95.146">  2  5  1 -1</clus>
<clus scale="   20.701">  1  5  2 -1</clus>
</clustering>
</event>
<event>
10    4  0.2759992E-005  0.2401854E+03  0.7546771E-02  0.1145098E+00
         21   -1    0    0  501  502  0.00000000000E+00  0.00000000000E+00  0.22841730943E+03  0.22841730943E+03  0.00000000000E+00 0.  1.
          2   -1    0    0  503    0 -0.00000000000E+00 -0.00000000000E+00 -0.19138465921E+03  0.19138465921E+03  0.00000000000E+00 0. -1.
         24    2    1    2    0    0  0.92959336552E+02  0.42194244701E+01  0.67853249691E+02  0.14048685667E+03  0.80456519996E+02 0.  0.
         23    2    1    2    0    0 -0.82978770560E+02 -0.62353467197E+02 -0.58344278451E+02  0.14887018312E+03  0.89357961928E+02 0.  0.
        -11    1    3    3    0    0  0.93851382419E+02 -0.21544857966E+02  0.46115737790E+02  0.10676574431E+03  0.00000000000E+00 0.  1.
         12    1    3    3    0    0 -0.89204586773E+00  0.25764282436E+02  0.21737511901E+02  0.33721112362E+02  0.00000000000E+00 0. -1.
        -11    1    4    4    0    0 -0.64905599791E+02 -0.55174872387E+00 -0.47278752063E+01  0.65079905615E+02  0.00000000000E+00 0.  1.
         11    1    4    4    0    0 -0.18073170769E+02 -0.61801718473E+02 -0.53616403245E+02  0.83790277507E+02  0.00000000000E+00 0. -1.
         21    1    1    2  503  502  0.15129099487E+02 -0.29178779952E+02 -0.63653679415E+01  0.33478482041E+02  0.00000000000E+00 0.  1.
          1    1    1    2  501    0 -0.25109665478E+02  0.87312822679E+02  0.33889046924E+02  0.96966446805E+02  0.00000000000E+00 0. -1.
<scales pt_clust_5="13000.00000" pt_clust_6="13000.00000" pt_clust_7="13000.00000" pt_clust_8="13000.00000" pt_clust_9="32.86779" pt_clust_10="13000.00000"></scales>
<clustering>
<clus scale="   32.868">  1  9  2 -1</clus>
<clus scale="   80.457">  5  6 -1 -1</clus>
<clus scale="   89.358">  7  8 -1 -1</clus>
<clus scale="   81.063">  7 10 -1 -1</clus>
<clus scale="  128.960">  2  5  1 -1</clus>
<clus scale="   32.868">  1  5  2 -1</clus>
</clustering>
</event>
<event>
10    4  0.2759992E-005  0.1350090E+03  0.7546771E-02  0.1243481E+00
         21   -1    0    0  501  502  0.00000000000E+00  0.00000000000E+00  0.60790509162E+02  0.60790509162E+02  0.00000000000E+00 0. -1.
         -3   -1    0    0    0  501 -0.00000000000E+00 -0.00000000000E+00 -0.33585730415E+03  0.33585730415E+03  0.00000000000E+00 0.  1.
         24    2    1    2    0    0  0.35783764635E+02 -0.46852081257E+00 -0.24193791063E+02  0.91073366363E+02  0.80176812181E+02 0.  0.
         23    2    1    2    0    0  0.15730541785E+02 -0.29145548828E+02 -0.15292916570E+03  0.17976162319E+03  0.88487278680E+02 0.  0.
        -13    1    3    3    0    0 -0.90954604145E+01  0.31215392846E+02 -0.12952927828E+02  0.34998664117E+02  0.00000000000E+00 0.  1.
         14    1    3    3    0    0  0.44879225049E+02 -0.31683913658E+02 -0.11240863234E+02  0.56074702246E+02  0.00000000000E+00 0. -1.
        -11    1    4    4    0    0 -0.13645969880E+02 -0.54040640506E+02 -0.96655696325E+02  0.11157475948E+03  0.00000000000E+00 0.  1.
         11    1    4    4    0    0  0.29376511665E+02  0.24895091678E+02 -0.56273469379E+02  0.68186863715E+02  0.00000000000E+00 0. -1.
         21    1    1    2  503  502 -0.19479718842E+02  0.10305354545E+02 -0.11775574994E+01  0.22069128214E+02  0.00000000000E+00 0.  1.
         -4    1    1    2    0  503 -0.32034587578E+02  0.19308715095E+02 -0.96766280718E+02  0.10374369554E+03  0.00000000000E+00 0.  1.
<scales pt_clust_5="13000.00000" pt_clust_6="13000.00000" pt_clust_7="13000.00000" pt_clust_8="13000.00000" pt_clust_9="22.03769" pt_clust_10="13000.00000"></scales>
<clustering>
<clus scale="   22.038">  1  9  2 -1</clus>
<clus scale="   80.177">  5  6 -1 -1</clus>
<clus scale="   83.611">  2  5  1 -1</clus>
<clus scale="   88.487">  7  8 -1 -1</clus>
<clus scale="   33.144">  7 10 -1 -1</clus>
<clus scale="   22.038">  1  5  2 -1</clus>
</clustering>
</event>
<event>
10    4  0.2759992E-005  0.4546180E+03  0.7546771E-02  0.1077569E+00
         -3   -1    0    0    0  501 -0.00000000000E+00  0.00000000000E+00  0.10610497643E+04  0.10610497643E+04  0.00000000000E+00 0.  1.
         21   -1    0    0  503  502  0.00000000000E+00 -0.00000000000E+00 -0.12720418934E+03  0.12720418934E+03  0.00000000000E+00 0.  1.
         24    2    1    2    0    0  0.44351989349E+02 -0.45999849045E+02  0.20178999204E+03  0.22569481729E+03  0.78331759780E+02 0.  0.
         23    2    1    2    0    0  0.13679319215E+03 -0.67847489845E+02  0.19774438212E+03  0.26884689121E+03  0.99298292800E+02 0.  0.
        -13    1    3    3    0    0  0.16081391760E+02  0.16204028478E+02  0.16385919402E+02  0.28101246494E+02  0.00000000000E+00 0.  1.
         14    1    3    3    0    0  0.28270597589E+02 -0.62203877523E+02  0.18540407264E+03  0.19759357079E+03  0.00000000000E+00 0. -1.
        -13    1    4    4    0    0  0.76338194417E+02 -0.89207061869E+02  0.13824613727E+03  0.18137644358E+03  0.00000000000E+00 0.  1.
         13    1    4    4    0    0  0.60454997737E+02  0.21359572023E+02  0.59498244853E+02  0.87470447633E+02  0.00000000000E+00 0. -1.
         21    1    1    2  503  501  0.39160183328E+02 -0.27662648531E+02 -0.40057144812E+02  0.62476531054E+02  0.00000000000E+00 0.  1.
         -4    1    1    2    0  502 -0.22030536483E+03  0.14150998742E+03  0.57436834558E+03  0.63123571407E+03  0.00000000000E+00 0.  1.
<scales pt_clust_5="13000.00000" pt_clust_6="13000.00000" pt_clust_7="13000.00000" pt_clust_8="13000.00000" pt_clust_9="47.94520" pt_clust_10="13000.00000"></scales>
<clustering>
<clus scale="   47.945">  2  9  1 -1</clus>
<clus scale="   78.332">  5  6 -1 -1</clus>
<clus scale="   99.298">  7  8 -1 -1</clus>
<clus scale="  105.940">  1  5  2 -1</clus>
<clus scale="  199.468">  7 10 -1 -1</clus>
<clus scale="   47.945">  2  5  1 -1</clus>
</clustering>
</event>
<event>
10    4  0.2759992E-005  0.5335445E+03  0.7546771E-02  0.1066814E+00
         21   -1    0    0  501  502  0.00000000000E+00  0.00000000000E+00  0.35501106687E+03  0.35501106687E+03  0.00000000000E+00 0.  1.
          2   -1    0    0  503    0 -0.00000000000E+00 -0.00000000000E+00 -0.51679313043E+03  0.51679313043E+03  0.00000000000E+00 0. -1.
         24    2    1    2    0    0 -0.37111289438E+01 -0.30883382594E+02 -0.83996096454E+02  0.12064477919E+03  0.80822414757E+02 0.  0.
         23    2    1    2    0    0 -0.75552047117E+02  0.37625099461E+02  0.14082405463E+03  0.18899848594E+03  0.93622931978E+02 0.  0.
        -11    1    3    3    0    0  0.35906421123E+02 -0.27110151156E+02 -0.56721541674E+02  0.72398650978E+02  0.00000000000E+00 0.  1.
         12    1    3    3    0    0 -0.39617550066E+02 -0.37732314380E+01 -0.27274554780E+02  0.48246128209E+02  0.00000000000E+00 0. -1.
        -13    1    4    4    0    0 -0.88885824008E+02  0.53844174409E+02  0.12583781125E+03  0.16320244963E+03  0.00000000000E+00 0.  1.
         13    1    4    4    0    0  0.13333776891E+02 -0.16219074948E+02  0.14986243381E+02  0.25796036304E+02  0.00000000000E+00 0. -1.
         21    1    1    2  503  502 -0.76974913128E+02 -0.22330579336E+02  0.14523504113E+03  0.16588251625E+03  0.00000000000E+00 0.  1.
          1    1    1    2  501    0  0.15623808919E+03  0.15588862468E+02 -0.36384506287E+03  0.39627841592E+03  0.00000000000E+00 0. -1.
<scales pt_clust_5="13000.00000" pt_clust_6="13000.00000" pt_clust_7="13000.00000" pt_clust_8="13000.00000" pt_clust_9="80.14856" pt_clust_10="13000.00000"></scales>
<clustering>
<clus scale="   80.149">  1  9  2 -1</clus>
<clus scale="   80.822">  5  6 -1 -1</clus>
<clus scale="   87.939">  2  5  1 -1</clus>
<clus scale="   93.623">  7  8 -1 -1</clus>
<clus scale="  141.478">  7 10 -1 -1</clus>
<clus scale="   80.149">  1  5  2 -1</clus>
</clustering>
</event>
<event>
10    4  0.2759992E-005  0.2694670E+03  0.7546771E-02  0.1132150E+00
         21   -1    0    0  501  502  0.00000000000E+00  0.00000000000E+00  0.18275539641E+03  0.18275539641E+03  0.00000000000E+00 0. -1.
          2   -1    0    0  503    0 -0.00000000000E+00 -0.00000000000E+00 -0.10339891886E+04  0.10339891886E+04  0.00000000000E+00 0. -1.
         24    2    1    2    0    0  0.21361332813E+02 -0.91970616201E+02 -0.88671684485E+03  0.89540068649E+03  0.80998306375E+02 0.  0.
         23    2    1    2    0    0 -0.55151751961E+02  0.54180503213E+01 -0.70243144229E+02  0.14533410397E+03  0.11452873636E+03 0.  0.
        -11    1    3    3    0    0  0.15412861895E+02 -0.23934913736E+02 -0.66394709610E+02  0.72240527902E+02  0.00000000000E+00 0.  1.
         12    1    3    3    0    0  0.59484709184E+01 -0.68035702465E+02 -0.82032213524E+03  0.82316015859E+03  0.00000000000E+00 0. -1.
        -11    1    4    4    0    0 -0.70043580402E+02  0.46119280227E+02 -0.44856496365E+02  0.95106237600E+02  0.00000000000E+00 0. -1.
         11    1    4    4    0    0  0.14891828441E+02 -0.40701229906E+02 -0.25386647865E+02  0.50227866369E+02  0.00000000000E+00 0.  1.
         21    1    1    2  503  502  0.22818844086E+00 -0.21865688808E+02  0.38004569062E+02  0.43846410190E+02  0.00000000000E+00 0. -1.
          1    1    1    2  501    0  0.33562230707E+02  0.10841825469E+03  0.67721627854E+02  0.13216338433E+03  0.00000000000E+00 0. -1.
<scales pt_clust_5="13000.00000" pt_clust_6="13000.00000" pt_clust_7="13000.00000" pt_clust_8="13000.00000" pt_clust_9="21.86688" pt_clust_10="13000.00000"></scales>
<clustering>
<clus scale="   21.867">  1  9  2 -1</clus>
<clus scale="   80.998">  5  6 -1 -1</clus>
<clus scale="  114.529">  7  8 -1 -1</clus>
<clus scale="   98.935">  7 10 -1 -1</clus>
<clus scale="  124.898">  2  5  1 -1</clus>
<clus scale="   21.867">  1  5  2 -1</clus>
</clustering>
</event>
<event>
10    4  0.2759992E-005  0.2892943E+03  0.7546771E-02  0.1117820E+00
         21   -1    0    0  503  502  0.00000000000E+00  0.00000000000E+00  0.78528364073E+02  0.78528364073E+02  0.00000000000E+00 0. -1.
          2   -1    0    0  502    0 -0.00000000000E+00 -0.00000000000E+00 -0.21875623026E+04  0.21875623026E+04  0.00000000000E+00 0. -1.
         24    2    1    2    0    0  0.11437186407E+03  0.44654986168E+02 -0.12833027746E+04  0.12913545097E+04  0.75202841735E+02 0.  0.
         23    2    1    2    0    0  0.12032229459E+03 -0.57026820557E+02 -0.39721846596E+03  0.43586698801E+03  0.12028303579E+03 0.  0.
        -13    1    3    3    0    0  0.94373696205E+01  0.30534768075E+02 -0.16618437688E+03  0.16922967566E+03  0.00000000000E+00 0.  1.
         14    1    3    3    0    0  0.10493449445E+03  0.14120218093E+02 -0.11171183977E+04  0.11221248340E+04  0.00000000000E+00 0. -1.
        -11    1    4    4    0    0  0.13894655670E+03 -0.71096592578E+02 -0.34358592854E+03  0.37737535875E+03  0.00000000000E+00 0. -1.
         11    1    4    4    0    0 -0.18624262116E+02  0.14069772022E+02 -0.53632537418E+02  0.58491629265E+02  0.00000000000E+00 0.  1.
         21    1    1    2  503  501 -0.22505303209E+03 -0.38977399127E+02 -0.19727877846E+03  0.30180626455E+03  0.00000000000E+00 0. -1.
          1    1    1    2  501    0 -0.96411265735E+01  0.51349233517E+02 -0.23123391952E+03  0.23706290440E+03  0.00000000000E+00 0. -1.
<scales pt_clust_5="13000.00000" pt_clust_6="13000.00000" pt_clust_7="13000.00000" pt_clust_8="13000.00000" pt_clust_9="195.17049" pt_clust_10="13000.00000"></scales>
<clustering>
<clus scale="   75.203">  5  6 -1 -1</clus>
<clus scale="  120.283">  7  8 -1 -1</clus>
<clus scale="   52.247">  7 10 -1 -1</clus>
<clus scale="  143.981">  2  5  1 -1</clus>
<clus scale="  195.170">  1  9  2 -1</clus>
<clus scale="  195.170">  1  5  2 -1</clus>
</clustering>
</event>
<event>
10    4  0.2759992E-005  0.3243537E+03  0.7546771E-02  0.1084463E+00
         21   -1    0    0  501  502  0.00000000000E+00  0.00000000000E+00  0.44597199885E+02  0.44597199885E+02  0.00000000000E+00 0. -1.
          2   -1    0    0  503    0 -0.00000000000E+00 -0.00000000000E+00 -0.29061997077E+04  0.29061997077E+04  0.00000000000E+00 0. -1.
         24    2    1    2    0    0  0.39232986689E+02 -0.24103723534E+03 -0.11459837103E+04  0.11745018832E+04  0.80856869190E+02 0.  0.
         23    2    1    2    0    0 -0.78954891357E+02  0.20848408622E+02 -0.29342035634E+03  0.31789948974E+03  0.91082649580E+02 0.  0.
        -13    1    3    3    0    0  0.39979580150E+02 -0.14123012039E+03 -0.50881148973E+03  0.52955967163E+03  0.00000000000E+00 0.  1.
         14    1    3    3    0    0 -0.74659346039E+00 -0.99807114948E+02 -0.63717222055E+03  0.64494221155E+03  0.00000000000E+00 0. -1.
        -11    1    4    4    0    0 -0.85756536224E+02  0.50050254194E+00 -0.27941240629E+03  0.29227679825E+03  0.00000000000E+00 0. -1.
         11    1    4    4    0    0  0.68016448670E+01  0.20347906081E+02 -0.14007950050E+02  0.25622691494E+02  0.00000000000E+00 0.  1.
         21    1    1    2  503  502  0.10680484961E+03  0.67283327847E+02 -0.32658426488E+03  0.35013083865E+03  0.00000000000E+00 0. -1.
          1    1    1    2  501    0 -0.67082944938E+02  0.15290549887E+03 -0.10956141763E+04  0.11082646960E+04  0.00000000000E+00 0. -1.
<scales pt_clust_5="13000.00000" pt_clust_6="13000.00000" pt_clust_7="13000.00000" pt_clust_8="13000.00000" pt_clust_9="126.23122" pt_clust_10="13000.00000"></scales>
<clustering>
<clus scale="   80.857">  5  6 -1 -1</clus>
<clus scale="   91.083">  7  8 -1 -1</clus>
<clus scale="  126.231">  1  9  2 -1</clus>
<clus scale="  172.266">  7 10 -1 -1</clus>
<clus scale="  242.350">  2  5  1 -1</clus>
<clus scale="  126.231">  1  5  2 -1</clus>
</clustering>
</event>
<event>
10    4  0.2759992E-005  0.2658494E+03  0.7546771E-02  0.1127857E+00
         21   -1    0    0  503  502  0.00000000000E+00  0.00000000000E+00  0.18416936653E+03  0.18416936653E+03  0.00000000000E+00 0. -1.
          2   -1    0    0  502    0 -0.00000000000E+00 -0.00000000000E+00 -0.14388572504E+04  0.14388572504E+04  0.00000000000E+00 0. -1.
         24    2    1    2    0    0 -0.10503240340E+03  0.26922277839E+03 -0.21825292003E+03  0.37042597577E+03  0.77899655027E+02 0.  0.
         23    2    1    2    0    0  0.45567382539E+02  0.55157913743E+02 -0.36520410687E+03  0.38325731257E+03  0.91615207057E+02 0.  0.
        -13    1    3    3    0    0 -0.28489620082E+02  0.16793324159E+03 -0.10363149702E+03  0.19938083975E+03  0.00000000000E+00 0.  1.
         14    1    3    3    0    0 -0.76542783318E+02  0.10128953680E+03 -0.11462142301E+03  0.17104513602E+03  0.00000000000E+00 0. -1.
        -13    1    4    4    0    0  0.67052427749E+01  0.72794656517E+02 -0.24667929621E+03  0.25728330198E+03  0.00000000000E+00 0.  1.
         13    1    4    4    0    0  0.38862139764E+02 -0.17636742774E+02 -0.11852481065E+03  0.12597401058E+03  0.00000000000E+00 0. -1.
         21    1    1    2  503  501  0.57239363732E+02 -0.19466959683E+03 -0.18395004374E+02  0.20374241796E+03  0.00000000000E+00 0. -1.
          1    1    1    2  501    0  0.22256571292E+01 -0.12971109530E+03 -0.65283585262E+03  0.66560091065E+03  0.00000000000E+00 0. -1.
<scales pt_clust_5="13000.00000" pt_clust_6="13000.00000" pt_clust_7="13000.00000" pt_clust_8="13000.00000" pt_clust_9="202.91032" pt_clust_10="13000.00000"></scales>
<clustering>
<clus scale="   77.900">  5  6 -1 -1</clus>
<clus scale="   91.615">  7  8 -1 -1</clus>
<clus scale="  129.730">  7 10 -1 -1</clus>
<clus scale="  202.910">  1  9  2 -1</clus>
<clus scale="  144.528">  2  5  1 -1</clus>
<clus scale="  202.910">  1  5  2 -1</clus>
</clustering>
</event>
<event>
10    4  0.2759992E-005  0.4042703E+03  0.7546771E-02  0.1087286E+00
         21   -1    0    0  503  502  0.00000000000E+00  0.00000000000E+00  0.13390793318E+03  0.13390793318E+03  0.00000000000E+00 0. -1.
          2   -1    0    0  502    0 -0.00000000000E+00 -0.00000000000E+00 -0.79087435200E+03  0.79087435200E+03  0.00000000000E+00 0. -1.
         24    2    1    2    0    0 -0.66583372954E+02 -0.30931453868E+02 -0.34515813891E+02  0.11432637671E+03  0.80554817433E+02 0.  0.
         23    2    1    2    0    0  0.17068205742E+03 -0.12320793742E+03 -0.55432941925E+03  0.59995347641E+03  0.91381115356E+02 0.  0.
        -13    1    3    3    0    0  0.19761627738E+01  0.21544598698E+02 -0.13384850950E+02  0.25440699427E+02  0.00000000000E+00 0.  1.
         14    1    3    3    0    0 -0.68559535728E+02 -0.52476052566E+02 -0.21130962941E+02  0.88885677288E+02  0.00000000000E+00 0. -1.
        -13    1    4    4    0    0  0.38922294626E+02 -0.73308235900E+02 -0.27263725131E+03  0.28499142666E+03  0.00000000000E+00 0.  1.
         13    1    4    4    0    0  0.13175976279E+03 -0.49899701524E+02 -0.28169216794E+03  0.31496204975E+03  0.00000000000E+00 0. -1.
         21    1    1    2  503  501 -0.39109157947E+02  0.38623010595E+02  0.11118105152E+02  0.56079189054E+02  0.00000000000E+00 0. -1.
          1    1    1    2  501    0 -0.64989526514E+02  0.11551638070E+03 -0.79239290830E+02  0.15442324300E+03  0.00000000000E+00 0. -1.
<scales pt_clust_5="13000.00000" pt_clust_6="13000.00000" pt_clust_7="13000.00000" pt_clust_8="13000.00000" pt_clust_9="54.96602" pt_clust_10="13000.00000"></scales>
<clustering>
<clus scale="   54.966">  1  9  2 -1</clus>
<clus scale="   80.555">  5  6 -1 -1</clus>
<clus scale="   91.381">  7  8 -1 -1</clus>
<clus scale="  116.098">  2  5  1 -1</clus>
<clus scale="  160.689">  7 10 -1 -1</clus>
<clus scale="   54.966">  1  5  2 -1</clus>
</clustering>
</event>
<event>
10    4  0.2759992E-005  0.3877197E+03  0.7546771E-02  0.1098215E+00
          2   -1    0    0  503    0 -0.00000000000E+00  0.00000000000E+00  0.20707647987E+03  0.20707647987E+03  0.00000000000E+00 0. -1.
         21   -1    0    0  501  502  0.00000000000E+00 -0.00000000000E+00 -0.74146291084E+03  0.74146291084E+03  0.00000000000E+00 0. -1.
         24    2    1    2    0    0 -0.25315838853E+01  0.73812885717E+02 -0.12042976646E+02  0.11000821260E+03  0.80635119756E+02 0.  0.
         23    2    1    2    0    0  0.12400586681E+03  0.65579319147E+01 -0.20759633000E+03  0.25793142682E+03  0.89509347215E+02 0.  0.
        -13    1    3    3    0    0  0.34499839866E+02  0.17584887130E+02  0.84447248245E+01  0.39633074364E+02  0.00000000000E+00 0.  1.
         14    1    3    3    0    0 -0.37031423752E+02  0.56227998587E+02 -0.20487701470E+02  0.70375138236E+02  0.00000000000E+00 0. -1.
        -13    1    4    4    0    0  0.83347922632E+02 -0.12537715880E+02 -0.59496120237E+02  0.10316907894E+03  0.00000000000E+00 0.  1.
         13    1    4    4    0    0  0.40657944177E+02  0.19095647795E+02 -0.14810020976E+03  0.15476234788E+03  0.00000000000E+00 0. -1.
         21    1    1    2  503  502 -0.42858256709E+02 -0.89928459263E+02 -0.42965054603E+03  0.44104823961E+03  0.00000000000E+00 0. -1.
          1    1    1    2  501    0 -0.78616026215E+02  0.95576416312E+01  0.11490342172E+03  0.13955151168E+03  0.00000000000E+00 0. -1.
<scales pt_clust_5="13000.00000" pt_clust_6="13000.00000" pt_clust_7="13000.00000" pt_clust_8="13000.00000" pt_clust_9="99.61906" pt_clust_10="13000.00000"></scales>
<clustering>
<clus scale="   80.635">  5  6 -1 -1</clus>
<clus scale="   89.509">  7  8 -1 -1</clus>
<clus scale="   79.195">  7 10 -1 -1</clus>
<clus scale="   99.619">  2  9  1 -1</clus>
<clus scale="   98.731">  1  5  2 -1</clus>
<clus scale="   99.619">  2  5  1 -1</clus>
</clustering>
</event>
<event>
10    4  0.2759992E-005  0.4031021E+03  0.7546771E-02  0.1082418E+00
         21   -1    0    0  503  502  0.00000000000E+00  0.00000000000E+00  0.73531290762E+02  0.73531290762E+02  0.00000000000E+00 0.  1.
          2   -1    0    0  502    0 -0.00000000000E+00 -0.00000000000E+00 -0.13048397613E+04  0.13048397613E+04  0.00000000000E+00 0. -1.
         24    2    1    2    0    0  0.49815675800E+02 -0.10503753029E+03 -0.13076707077E+03  0.19272654464E+03  0.80802288875E+02 0.  0.
         23    2    1    2    0    0 -0.46869431748E+02 -0.14852111193E+03 -0.39762448013E+03  0.43659538862E+03  0.90857260798E+02 0.  0.
        -11    1    3    3    0    0  0.35149543046E+02 -0.11321560440E+03 -0.12997326399E+03  0.17591564117E+03  0.00000000000E+00 0.  1.
         12    1    3    3    0    0  0.14666132753E+02  0.81780741147E+01 -0.79380677458E+00  0.16810903466E+02  0.00000000000E+00 0. -1.
        -13    1    4    4    0    0  0.20084338193E+02 -0.32464729867E+01 -0.44724189804E+02  0.49134238380E+02  0.00000000000E+00 0.  1.
         13    1    4    4    0    0 -0.66953769942E+02 -0.14527463894E+03 -0.35290029033E+03  0.38746115024E+03  0.00000000000E+00 0. -1.
         21    1    1    2  503  501  0.16221436725E+02  0.35380219070E+02 -0.12973598459E+03  0.13544859028E+03  0.00000000000E+00 0.  1.
          1    1    1    2  501    0 -0.19167680776E+02  0.21817842314E+03 -0.57318093509E+03  0.61360052857E+03  0.00000000000E+00 0. -1.
<scales pt_clust_5="13000.00000" pt_clust_6="13000.00000" pt_clust_7="13000.00000" pt_clust_8="13000.00000" pt_clust_9="38.92167" pt_clust_10="13000.00000"></scales>
<clustering>
<clus scale="   38.922">  1  9  2 -1</clus>
<clus scale="   80.802">  5  6 -1 -1</clus>
<clus scale="   90.857">  7  8 -1 -1</clus>
<clus scale="  133.361">  2  5  1 -1</clus>
<clus scale="  174.669">  7 10 -1 -1</clus>
<clus scale="   38.922">  1  5  2 -1</clus>
</clustering>
</event>
<event>
10    4  0.2759992E-005  0.1720345E+03  0.7546771E-02  0.1203149E+00
          2   -1    0    0  502    0 -0.00000000000E+00  0.00000000000E+00  0.45105920873E+03  0.45105920873E+03  0.00000000000E+00 0. -1.
         21   -1    0    0  503  502  0.00000000000E+00 -0.00000000000E+00 -0.17694635871E+03  0.17694635871E+03  0.00000000000E+00 0.  1.
         24    2    1    2    0    0 -0.57539702370E+02  0.30657367680E+02 -0.10540433457E+03  0.14811137586E+03  0.81093861483E+02 0.  0.
         23    2    1    2    0    0 -0.73156615225E+01 -0.33249196801E+02  0.13572838085E+03  0.16787518503E+03  0.92740802186E+02 0.  0.
        -11    1    3    3    0    0 -0.69775784694E+02  0.42902566713E+02 -0.10138714169E+03  0.13034048818E+03  0.00000000000E+00 0.  1.
         12    1    3    3    0    0  0.12236082324E+02 -0.12245199032E+02 -0.40171928783E+01  0.17770887671E+02  0.00000000000E+00 0. -1.
        -11    1    4    4    0    0 -0.21653718874E+02  0.26086881359E+02  0.27647519553E+02  0.43746934264E+02  0.00000000000E+00 0. -1.
         11    1    4    4    0    0  0.14338057351E+02 -0.59336078160E+02  0.10808086130E+03  0.12412825077E+03  0.00000000000E+00 0.  1.
         21    1    1    2  503  501  0.27603116374E+02  0.32295322839E+01 -0.26959503191E+02  0.38719203564E+02  0.00000000000E+00 0.  1.
          1    1    1    2  501    0  0.37252247518E+02 -0.63770316325E+00  0.27074830693E+03  0.27329980299E+03  0.00000000000E+00 0. -1.
<scales pt_clust_5="13000.00000" pt_clust_6="13000.00000" pt_clust_7="13000.00000" pt_clust_8="13000.00000" pt_clust_9="27.79140" pt_clust_10="13000.00000"></scales>
<clustering>
<clus scale="   27.791">  2  9  1 -1</clus>
<clus scale="   81.094">  5  6 -1 -1</clus>
<clus scale="   92.741">  7  8 -1 -1</clus>
<clus scale="   37.502">  7 10 -1 -1</clus>
<clus scale="   93.833">  1  5  2 -1</clus>
<clus scale="   27.791">  2  5  1 -1</clus>
</clustering>
</event>
<event>
10    4  0.2759992E-005  0.4288666E+03  0.7546771E-02  0.1061665E+00
          2   -1    0    0  503    0 -0.00000000000E+00  0.00000000000E+00  0.75304361261E+03  0.75304361261E+03  0.00000000000E+00 0. -1.
         21   -1    0    0  501  502  0.00000000000E+00 -0.00000000000E+00 -0.31689123566E+03  0.31689123566E+03  0.00000000000E+00 0.  1.
         24    2    1    2    0    0  0.17560534947E+03 -0.10962344707E+02  0.13500157514E+03  0.23745549509E+03  0.84866218809E+02 0.  0.
         23    2    1    2    0    0 -0.35012892744E+02 -0.50125606287E+02  0.50468615398E+02  0.12174814862E+03  0.92396165988E+02 0.  0.
        -13    1    3    3    0    0  0.92973380597E+02  0.25788419882E+02  0.35024125790E+02  0.10264395495E+03  0.00000000000E+00 0.  1.
         14    1    3    3    0    0  0.82631968875E+02 -0.36750764590E+02  0.99977449352E+02  0.13481154015E+03  0.00000000000E+00 0. -1.
        -11    1    4    4    0    0 -0.37675828721E+02  0.55399264350E+01 -0.10144756257E+02  0.39409071725E+02  0.00000000000E+00 0.  1.
         11    1    4    4    0    0  0.26629359770E+01 -0.55665532722E+02  0.60613371655E+02  0.82339076899E+02  0.00000000000E+00 0. -1.
         21    1    1    2  503  502 -0.34623610077E+03 -0.48005778512E+02 -0.24364096797E+02  0.35039634909E+03  0.00000000000E+00 0.  1.
          1    1    1    2  501    0  0.20564364404E+03  0.10909372951E+03  0.27504628321E+03  0.36033485546E+03  0.00000000000E+00 0. -1.
<scales pt_clust_5="13000.00000" pt_clust_6="13000.00000" pt_clust_7="13000.00000" pt_clust_8="13000.00000" pt_clust_9="300.12430" pt_clust_10="13000.00000"></scales>
<clustering>
<clus scale="   84.866">  5  6 -1 -1</clus>
<clus scale="   92.396">  7  8 -1 -1</clus>
<clus scale="  195.345">  1  5  2 -1</clus>
<clus scale="  300.124">  2  9  1 -1</clus>
<clus scale="  134.873">  7 10 -1 -1</clus>
<clus scale="  300.124">  2  5  1 -1</clus>
</clustering>
</event>
<event>
10    4  0.2759992E-005  0.2952759E+03  0.7546771E-02  0.1104706E+00
          2   -1    0    0  503    0 -0.00000000000E+00  0.00000000000E+00  0.15485291160E+04  0.15485291160E+04  0.00000000000E+00 0. -1.
         21   -1    0    0  501  502  0.00000000000E+00 -0.00000000000E+00 -0.76865306827E+02  0.76865306827E+02  0.00000000000E+00 0. -1.
         24    2    1    2    0    0 -0.27854258663E+02  0.16185853017E+03  0.43402067207E+03  0.47092414247E+03  0.80134640815E+02 0.  0.
         23    2    1    2    0    0 -0.80560517341E+02 -0.50011244562E+02  0.29283460971E+03  0.32073071960E+03  0.90138583952E+02 0.  0.
        -11    1    3    3    0    0  0.20563503204E+02  0.15500483203E+02  0.37496679741E+02  0.45487620680E+02  0.00000000000E+00 0.  1.
         12    1    3    3    0    0 -0.48417761867E+02  0.14635804697E+03  0.39652399233E+03  0.42543652179E+03  0.00000000000E+00 0. -1.
        -11    1    4    4    0    0 -0.95816758096E+02 -0.27358373061E+02  0.25724082118E+03  0.27586622082E+03  0.00000000000E+00 0. -1.
         11    1    4    4    0    0  0.15256240755E+02 -0.22652871500E+02  0.35593788533E+02  0.44864498786E+02  0.00000000000E+00 0.  1.
         21    1    1    2  503  502  0.40318631681E+02  0.19304035815E+02 -0.24082821465E+02  0.50776176984E+02  0.00000000000E+00 0.  1.
          1    1    1    2  501    0  0.68096144323E+02 -0.13115132142E+03  0.76889134890E+03  0.78296338381E+03  0.00000000000E+00 0. -1.
<scales pt_clust_5="13000.00000" pt_clust_6="13000.00000" pt_clust_7="13000.00000" pt_clust_8="13000.00000" pt_clust_9="44.70165" pt_clust_10="13000.00000"></scales>
<clustering>
<clus scale="   44.702">  2  9  1 -1</clus>
<clus scale="   80.135">  5  6 -1 -1</clus>
<clus scale="   90.139">  7  8 -1 -1</clus>
<clus scale="  148.249">  7 10 -1 -1</clus>
<clus scale="  188.960">  1  5  2 -1</clus>
<clus scale="   44.702">  2  5  1 -1</clus>
</clustering>
</event>
<event>
10    4  0.2759992E-005  0.2079219E+03  0.7546771E-02  0.1169989E+00
         21   -1    0    0  503  502  0.00000000000E+00  0.00000000000E+00  0.43701451843E+03  0.43701451843E+03  0.00000000000E+00 0. -1.
          2   -1    0    0  502    0 -0.00000000000E+00 -0.00000000000E+00 -0.46517943792E+03  0.46517943792E+03  0.00000000000E+00 0. -1.
         24    2    1    2    0    0 -0.55741205992E+02  0.55537271823E+02 -0.35757485455E+03  0.37510173595E+03  0.81547931306E+02 0.  0.
         23    2    1    2    0    0  0.11174534276E+02  0.40844702113E+02  0.53001630902E+02  0.10635903846E+03  0.81914054214E+02 0.  0.
        -11    1    3    3    0    0 -0.28200278143E+02 -0.15375418369E+02 -0.61165436632E+02  0.69085959614E+02  0.00000000000E+00 0.  1.
         12    1    3    3    0    0 -0.27540927849E+02  0.70912690192E+02 -0.29640941792E+03  0.30601577634E+03  0.00000000000E+00 0. -1.
        -13    1    4    4    0    0  0.24605455113E+02 -0.17587249510E+02  0.28607011184E+02  0.41630527928E+02  0.00000000000E+00 0.  1.
         13    1    4    4    0    0 -0.13430920838E+02  0.58431951623E+02  0.24394619718E+02  0.64728510536E+02  0.00000000000E+00 0. -1.
         21    1    1    2  503  501  0.37402156077E+02 -0.20180780662E+02  0.32650441845E+03  0.32925874393E+03  0.00000000000E+00 0. -1.
          1    1    1    2  501    0  0.71645156395E+01 -0.76201193274E+02 -0.50096114287E+02  0.91474438000E+02  0.00000000000E+00 0. -1.
<scales pt_clust_5="13000.00000" pt_clust_6="13000.00000" pt_clust_7="13000.00000" pt_clust_8="13000.00000" pt_clust_9="42.49924" pt_clust_10="13000.00000"></scales>
<clustering>
<clus scale="   42.499">  1  9  2 -1</clus>
<clus scale="   81.548">  5  6 -1 -1</clus>
<clus scale="   81.914">  7  8 -1 -1</clus>
<clus scale="   81.287">  7 10 -1 -1</clus>
<clus scale="  111.078">  2  5  1 -1</clus>
<clus scale="   42.499">  1  5  2 -1</clus>
</clustering>
</event>
<event>
10    4  0.2759992E-005  0.2178882E+03  0.7546771E-02  0.1157638E+00
         21   -1    0    0  503  502  0.00000000000E+00  0.00000000000E+00  0.15869625799E+03  0.15869625799E+03  0.00000000000E+00 0. -1.
          4   -1    0    0  502    0 -0.00000000000E+00 -0.00000000000E+00 -0.41225469452E+03  0.41225469452E+03  0.00000000000E+00 0. -1.
         24    2    1    2    0    0  0.73125950923E+02 -0.17521150615E+02 -0.17110810121E+02  0.11143197587E+03  0.80435750793E+02 0.  0.
         23    2    1    2    0    0  0.17792273009E+02  0.16611712530E+02 -0.11862086617E+03  0.15440107569E+03  0.95792840601E+02 0.  0.
        -11    1    3    3    0    0  0.56196391568E+02  0.26411173067E+02 -0.16892177964E+02  0.64350059552E+02  0.00000000000E+00 0.  1.
         12    1    3    3    0    0  0.16929559356E+02 -0.43932323681E+02 -0.21863215687E+00  0.47081916316E+02  0.00000000000E+00 0. -1.
        -13    1    4    4    0    0 -0.21969938065E+02  0.17859483308E+02 -0.11014575029E+03  0.11372653881E+03  0.00000000000E+00 0.  1.
         13    1    4    4    0    0  0.39762211074E+02 -0.12477707772E+01 -0.84751158869E+01  0.40674536884E+02  0.00000000000E+00 0. -1.
         21    1    1    2  503  501  0.26750778996E+02 -0.56714740448E+02  0.58286879129E+02  0.85612652333E+02  0.00000000000E+00 0. -1.
          3    1    1    2  501    0 -0.11766900293E+03  0.57624178532E+02 -0.17611363936E+03  0.21950524862E+03  0.00000000000E+00 0. -1.
<scales pt_clust_5="13000.00000" pt_clust_6="13000.00000" pt_clust_7="13000.00000" pt_clust_8="13000.00000" pt_clust_9="62.70698" pt_clust_10="13000.00000"></scales>
<clustering>
<clus scale="   62.707">  1  9  2 -1</clus>
<clus scale="   80.436">  5  6 -1 -1</clus>
<clus scale="   95.793">  7  8 -1 -1</clus>
<clus scale="  119.177">  7 10 -1 -1</clus>
<clus scale="  128.429">  2  5  1 -1</clus>
<clus scale="   62.707">  1  5  2 -1</clus>
</clustering>
</event>
<event>
10    4  0.2759992E-005  0.1956746E+03  0.7546771E-02  0.1192075E+00
         21   -1    0    0  501  502  0.00000000000E+00  0.00000000000E+00  0.83238167396E+02  0.83238167396E+02  0.00000000000E+00 0.  1.
          2   -1    0    0  503    0 -0.00000000000E+00 -0.00000000000E+00 -0.74588108161E+03  0.74588108161E+03  0.00000000000E+00 0. -1.
         24    2    1    2    0    0  0.16394770532E+01  0.99390267235E+01 -0.22779616435E+03  0.24138919742E+03  0.79222345325E+02 0.  0.
         23    2    1    2    0    0 -0.34202883453E+01 -0.75185631652E+02 -0.45672911138E+03  0.47189960416E+03  0.91777871188E+02 0.  0.
        -13    1    3    3    0    0 -0.25358446759E+02 -0.24643725258E+02 -0.86849291222E+02  0.93771868929E+02  0.00000000000E+00 0.  1.
         14    1    3    3    0    0  0.26997923812E+02  0.34582751982E+02 -0.14094687313E+03  0.14761732849E+03  0.00000000000E+00 0. -1.
        -13    1    4    4    0    0  0.37033194408E+02 -0.59641695036E+01 -0.11836541356E+03  0.12416682299E+03  0.00000000000E+00 0.  1.
         13    1    4    4    0    0 -0.40453482754E+02 -0.69221462149E+02 -0.33836369783E+03  0.34773278116E+03  0.00000000000E+00 0. -1.
         21    1    1    2  503  502 -0.23447377147E+02  0.28392725023E+02  0.50712881236E+02  0.62671545797E+02  0.00000000000E+00 0.  1.
          1    1    1    2  501    0  0.25228188439E+02  0.36853879906E+02 -0.28830519717E+02  0.53158901636E+02  0.00000000000E+00 0. -1.
<scales pt_clust_5="13000.00000" pt_clust_6="13000.00000" pt_clust_7="13000.00000" pt_clust_8="13000.00000" pt_clust_9="36.82290" pt_clust_10="13000.00000"></scales>
<clustering>
<clus scale="   36.823">  1  9  2 -1</clus>
<clus scale="   79.222">  5  6 -1 -1</clus>
<clus scale="   81.187">  2  5  1 -1</clus>
<clus scale="   91.778">  7  8 -1 -1</clus>
<clus scale="   53.921">  7 10 -1 -1</clus>
<clus scale="   36.823">  1  5  2 -1</clus>
</clustering>
</event>
<event>
10    4  0.2759992E-005  0.2924092E+03  0.7546771E-02  0.1136566E+00
         21   -1    0    0  501  502  0.00000000000E+00  0.00000000000E+00  0.26302071557E+03  0.26302071557E+03  0.00000000000E+00 0.  1.
         -3   -1    0    0    0  501 -0.00000000000E+00 -0.00000000000E+00 -0.26422253367E+03  0.26422253367E+03  0.00000000000E+00 0.  1.
         24    2    1    2    0    0 -0.42893228325E+02  0.11362334891E+02 -0.34179626847E+02  0.98013723704E+02  0.80433273292E+02 0.  0.
         23    2    1    2    0    0  0.87068997002E+02  0.30068382808E+02 -0.14783577723E+03  0.19632273638E+03  0.90565346068E+02 0.  0.
        -11    1    3    3    0    0 -0.33953677650E+02 -0.46574761817E+01  0.20775784679E+02  0.40077144851E+02  0.00000000000E+00 0.  1.
         12    1    3    3    0    0 -0.89395506751E+01  0.16019811073E+02 -0.54955411527E+02  0.57936578853E+02  0.00000000000E+00 0. -1.
        -11    1    4    4    0    0  0.14599877959E+02  0.36629606484E+02 -0.10348973128E+02  0.40767459479E+02  0.00000000000E+00 0. -1.
         11    1    4    4    0    0  0.72469119043E+02 -0.65612236755E+01 -0.13748680410E+03  0.15555527690E+03  0.00000000000E+00 0.  1.
         21    1    1    2  503  502  0.35193439387E+02 -0.50664918100E+02  0.11010605694E+03  0.12620957125E+03  0.00000000000E+00 0.  1.
         -4    1    1    2    0  503 -0.79369208064E+02  0.92342004003E+01  0.70707529036E+02  0.10669721790E+03  0.00000000000E+00 0.  1.
<scales pt_clust_5="13000.00000" pt_clust_6="13000.00000" pt_clust_7="13000.00000" pt_clust_8="13000.00000" pt_clust_9="61.68883" pt_clust_10="13000.00000"></scales>
<clustering>
<clus scale="   61.689">  1  9  2 -1</clus>
<clus scale="   80.433">  5  6 -1 -1</clus>
<clus scale="   87.774">  2  5  1 -1</clus>
<clus scale="   90.565">  7  8 -1 -1</clus>
<clus scale="   65.113">  7 10 -1 -1</clus>
<clus scale="   61.689">  1  5  2 -1</clus>
</clustering>
</event>
<event>
10    4  0.2759992E-005  0.3801395E+03  0.7546771E-02  0.1080458E+00
         21   -1    0    0  501  502  0.00000000000E+00  0.00000000000E+00  0.98337850838E+02  0.98337850838E+02  0.00000000000E+00 0. -1.
          2   -1    0    0  503    0 -0.00000000000E+00 -0.00000000000E+00 -0.18191807279E+04  0.18191807279E+04  0.00000000000E+00 0. -1.
         24    2    1    2    0    0 -0.12160946336E+03 -0.28366626628E+02 -0.53378029694E+03  0.55408053663E+03  0.80562451428E+02 0.  0.
         23    2    1    2    0    0  0.30471181975E+03 -0.73044707113E+01 -0.69755931440E+03  0.76659241269E+03  0.90400673153E+02 0.  0.
        -11    1    3    3    0    0 -0.58364714975E+02 -0.53811673777E+02 -0.25412542439E+03  0.26623648794E+03  0.00000000000E+00 0.  1.
         12    1    3    3    0    0 -0.63244748386E+02  0.25445047150E+02 -0.27965487255E+03  0.28784404869E+03  0.00000000000E+00 0. -1.
        -11    1    4    4    0    0  0.40182008498E+02  0.30569867972E+02 -0.10104886815E+03  0.11296010087E+03  0.00000000000E+00 0.  1.
         11    1    4    4    0    0  0.26452981125E+03 -0.37874338684E+02 -0.59651044625E+03  0.65363231182E+03  0.00000000000E+00 0. -1.
         21    1    1    2  503  502 -0.11345506258E+03  0.50065389002E+02 -0.24465099686E+02  0.12640069424E+03  0.00000000000E+00 0. -1.
          1    1    1    2  501    0 -0.69647293803E+02 -0.14394291663E+02 -0.46503816605E+03  0.47044493519E+03  0.00000000000E+00 0. -1.
<scales pt_clust_5="13000.00000" pt_clust_6="13000.00000" pt_clust_7="13000.00000" pt_clust_8="13000.00000" pt_clust_9="124.01046" pt_clust_10="13000.00000"></scales>
<clustering>
<clus scale="   80.562">  5  6 -1 -1</clus>
<clus scale="   90.401">  7  8 -1 -1</clus>
<clus scale="   71.119">  7 10 -1 -1</clus>
<clus scale="  124.010">  1  9  2 -1</clus>
<clus scale="  167.613">  2  5  1 -1</clus>
<clus scale="  124.010">  1  5  2 -1</clus>
</clustering>
</event>
<event>
10    4  0.2759992E-005  0.3446201E+03  0.7546771E-02  0.1091435E+00
         21   -1    0    0  503  502  0.00000000000E+00  0.00000000000E+00  0.83663517418E+02  0.83663517418E+02  0.00000000000E+00 0. -1.
          2   -1    0    0  502    0 -0.00000000000E+00 -0.00000000000E+00 -0.15675129607E+04  0.15675129607E+04  0.00000000000E+00 0. -1.
         24    2    1    2    0    0 -0.30654466740E+02  0.10871462951E+03 -0.11111055557E+03  0.17781859286E+03  0.80717590448E+02 0.  0.
         23    2    1    2    0    0  0.11531552979E+02 -0.23442773500E+03 -0.82863360597E+03  0.86620721248E+03  0.92692730957E+02 0.  0.
        -13    1    3    3    0    0  0.22323062818E+02  0.61892598098E+02 -0.37406328988E+02  0.75685178742E+02  0.00000000000E+00 0.  1.
         14    1    3    3    0    0 -0.52977529558E+02  0.46822031412E+02 -0.73704226581E+02  0.10213341412E+03  0.00000000000E+00 0. -1.
        -13    1    4    4    0    0  0.26598535846E+02 -0.12239707697E+03 -0.29088081036E+03  0.31670202462E+03  0.00000000000E+00 0.  1.
         13    1    4    4    0    0 -0.15066982867E+02 -0.11203065802E+03 -0.53775279561E+03  0.54950518787E+03  0.00000000000E+00 0. -1.
         21    1    1    2  503  501 -0.33306955145E+02  0.49788245819E+02 -0.48933281139E+01  0.60101308995E+02  0.00000000000E+00 0. -1.
          1    1    1    2  501    0  0.52429868907E+02  0.75924859668E+02 -0.53921195358E+03  0.54704936373E+03  0.00000000000E+00 0. -1.
<scales pt_clust_5="13000.00000" pt_clust_6="13000.00000" pt_clust_7="13000.00000" pt_clust_8="13000.00000" pt_clust_9="59.90178" pt_clust_10="13000.00000"></scales>
<clustering>
<clus scale="   59.902">  1  9  2 -1</clus>
<clus scale="   80.718">  5  6 -1 -1</clus>
<clus scale="   92.693">  7  8 -1 -1</clus>
<clus scale="   93.890">  7 10 -1 -1</clus>
<clus scale="  167.928">  2  5  1 -1</clus>
<clus scale="   59.902">  1  5  2 -1</clus>
</clustering>
</event>
<event>
10    4  0.2759992E-005  0.5571444E+03  0.7546771E-02  0.1041080E+00
          2   -1    0    0  502    0 -0.00000000000E+00  0.00000000000E+00  0.11400219958E+04  0.11400219958E+04  0.00000000000E+00 0. -1.
         21   -1    0    0  503  502  0.00000000000E+00 -0.00000000000E+00 -0.15012533866E+03  0.15012533866E+03  0.00000000000E+00 0. -1.
         24    2    1    2    0    0  0.10320444038E+03  0.85064537556E+02  0.27905436879E+03  0.32051884273E+03  0.83509614654E+02 0.  0.
         23    2    1    2    0    0 -0.27325489611E+03  0.13329167681E+02  0.32256736652E+03  0.43272506294E+03  0.91407708604E+02 0.  0.
        -11    1    3    3    0    0  0.24478711570E+02 -0.93939818341E+01  0.17560878863E+02  0.31556911783E+02  0.00000000000E+00 0.  1.
         12    1    3    3    0    0  0.78725728813E+02  0.94458519390E+02  0.26149348993E+03  0.28896193095E+03  0.00000000000E+00 0. -1.
        -13    1    4    4    0    0 -0.69943777950E+02 -0.29071753790E+01  0.15010078887E+03  0.16562255451E+03  0.00000000000E+00 0.  1.
         13    1    4    4    0    0 -0.20331111816E+03  0.16236343060E+02  0.17246657765E+03  0.26710250843E+03  0.00000000000E+00 0. -1.
         21    1    1    2  503  501 -0.46408843215E+02  0.76043937047E+02  0.63526497851E+02  0.10941698689E+03  0.00000000000E+00 0. -1.
          1    1    1    2  501    0  0.21645929894E+03 -0.17443764228E+03  0.32474842400E+03  0.42748644193E+03  0.00000000000E+00 0. -1.
<scales pt_clust_5="13000.00000" pt_clust_6="13000.00000" pt_clust_7="13000.00000" pt_clust_8="13000.00000" pt_clust_9="89.08682" pt_clust_10="13000.00000"></scales>
<clustering>
<clus scale="   83.510">  5  6 -1 -1</clus>
<clus scale="   89.087">  2  9  1 -1</clus>
<clus scale="   91.408">  7  8 -1 -1</clus>
<clus scale="  160.060">  1  5  2 -1</clus>
<clus scale="  258.912">  7 10 -1 -1</clus>
<clus scale="   89.087">  2  5  1 -1</clus>
</clustering>
</event>
<event>
10    4  0.2759992E-005  0.6809350E+03  0.7546771E-02  0.1021831E+00
         21   -1    0    0  501  502  0.00000000000E+00  0.00000000000E+00  0.14587627975E+03  0.14587627975E+03  0.00000000000E+00 0. -1.
          2   -1    0    0  503    0 -0.00000000000E+00 -0.00000000000E+00 -0.26534263759E+04  0.26534263759E+04  0.00000000000E+00 0. -1.
         24    2    1    2    0    0 -0.13263759510E+03 -0.15076311536E+02 -0.16600879491E+04  0.16673566705E+04  0.79788727356E+02 0.  0.
         23    2    1    2    0    0  0.33253500338E+02 -0.31396612383E+03 -0.50770763964E+03  0.60551866969E+03  0.95944201461E+02 0.  0.
        -13    1    3    3    0    0 -0.28859223307E+02  0.63351893224E+01 -0.11838241137E+03  0.12201387099E+03  0.00000000000E+00 0.  1.
         14    1    3    3    0    0 -0.10377837179E+03 -0.21411500858E+02 -0.15417055377E+04  0.15453427995E+04  0.00000000000E+00 0. -1.
        -13    1    4    4    0    0  0.50918479184E+02 -0.29977071059E+03 -0.44605980025E+03  0.53983749023E+03  0.00000000000E+00 0. -1.
         13    1    4    4    0    0 -0.17664978846E+02 -0.14195413241E+02 -0.61647839383E+02  0.65681179460E+02  0.00000000000E+00 0.  1.
         21    1    1    2  503  502  0.21641469114E+02 -0.20611401472E+01  0.21281986429E+02  0.30422433013E+02  0.00000000000E+00 0. -1.
          1    1    1    2  501    0  0.77742625648E+02  0.33110357551E+03 -0.36103649385E+03  0.49600488249E+03  0.00000000000E+00 0. -1.
<scales pt_clust_5="13000.00000" pt_clust_6="13000.00000" pt_clust_7="13000.00000" pt_clust_8="13000.00000" pt_clust_9="21.73940" pt_clust_10="13000.00000"></scales>
<clustering>
<clus scale="   21.739">  1  9  2 -1</clus>
<clus scale="   79.789">  5  6 -1 -1</clus>
<clus scale="   95.944">  7  8 -1 -1</clus>
<clus scale="  154.967">  2  5  1 -1</clus>
<clus scale="  324.972">  7 10 -1 -1</clus>
<clus scale="   21.739">  1  5  2 -1</clus>
</clustering>
</event>
<event>
10    4  0.2759992E-005  0.1322640E+03  0.7546771E-02  0.1236227E+00
         21   -1    0    0  503  502  0.00000000000E+00  0.00000000000E+00  0.11148421048E+03  0.11148421048E+03  0.00000000000E+00 0.  1.
          2   -1    0    0  502    0 -0.00000000000E+00 -0.00000000000E+00 -0.22775555200E+03  0.22775555200E+03  0.00000000000E+00 0. -1.
         24    2    1    2    0    0  0.40197513621E+02 -0.43002167471E+02 -0.18647278724E+02  0.99816951466E+02  0.78426247440E+02 0.  0.
         23    2    1    2    0    0 -0.31945991177E+01  0.78260695856E+02 -0.54221266535E+02  0.13716007359E+03  0.98681295401E+02 0.  0.
        -13    1    3    3    0    0  0.47591474506E+02 -0.34337379449E+02 -0.43119441815E+02  0.72823693504E+02  0.00000000000E+00 0.  1.
         14    1    3    3    0    0 -0.73939608850E+01 -0.86647880221E+01  0.24472163091E+02  0.26993257962E+02  0.00000000000E+00 0. -1.
        -13    1    4    4    0    0 -0.16769498524E+02 -0.16633067292E+02  0.54569301927E+01  0.24241557199E+02  0.00000000000E+00 0.  1.
         13    1    4    4    0    0  0.13574899406E+02  0.94893763148E+02 -0.59678196728E+02  0.11291851639E+03  0.00000000000E+00 0. -1.
         21    1    1    2  503  501 -0.52790316018E+02 -0.48336612694E+02 -0.38108395447E+02  0.81089428383E+02  0.00000000000E+00 0. -1.
          1    1    1    2  501    0  0.15787401515E+02  0.13078084309E+02 -0.52944008111E+01  0.21173309041E+02  0.00000000000E+00 0. -1.
<scales pt_clust_5="13000.00000" pt_clust_6="13000.00000" pt_clust_7="13000.00000" pt_clust_8="13000.00000" pt_clust_9="71.57689" pt_clust_10="13000.00000"></scales>
<clustering>
<clus scale="   71.577">  1  9  2 -1</clus>
<clus scale="   78.426">  5  6 -1 -1</clus>
<clus scale="   98.681">  7  8 -1 -1</clus>
<clus scale="   14.197">  7 10 -1 -1</clus>
<clus scale="  103.046">  2  5  1 -1</clus>
<clus scale="   71.577">  1  5  2 -1</clus>
</clustering>
</event>
<event>
10    4  0.2759992E-005  0.2742266E+03  0.7546771E-02  0.1120643E+00
         -1   -1    0    0    0  501 -0.00000000000E+00  0.00000000000E+00  0.20383313129E+03  0.20383313129E+03  0.00000000000E+00 0.  1.
         21   -1    0    0  503  502  0.00000000000E+00 -0.00000000000E+00 -0.53953567357E+03  0.53953567357E+03  0.00000000000E+00 0.  1.
         24    2    1    2    0    0 -0.13696929827E+03  0.92832096567E+01  0.81870095156E+02  0.17774518520E+03  0.77742341928E+02 0.  0.
         23    2    1    2    0    0 -0.35834115202E+02 -0.11923185237E+02 -0.11143022103E+03  0.14711155327E+03  0.88311204199E+02 0.  0.
        -11    1    3    3    0    0 -0.12104745294E+03 -0.24936578804E+01  0.95075897788E+02  0.15394197132E+03  0.00000000000E+00 0.  1.
         12    1    3    3    0    0 -0.15921845334E+02  0.11776867537E+02 -0.13205802632E+02  0.23803213879E+02  0.00000000000E+00 0. -1.
        -11    1    4    4    0    0 -0.24257026959E+02  0.30267551539E+02 -0.90806695603E+02  0.98744032728E+02  0.00000000000E+00 0. -1.
         11    1    4    4    0    0 -0.11577088244E+02 -0.42190736777E+02 -0.20623525427E+02  0.48367520538E+02  0.00000000000E+00 0.  1.
         21    1    1    2  503  501  0.60717538914E+01  0.43895291310E+02 -0.22359850500E+03  0.22794726195E+03  0.00000000000E+00 0.  1.
         -2    1    1    2    0  502  0.16673165958E+03 -0.41255315729E+02 -0.82543911416E+02  0.19056480445E+03  0.00000000000E+00 0.  1.
<scales pt_clust_5="13000.00000" pt_clust_6="13000.00000" pt_clust_7="13000.00000" pt_clust_8="13000.00000" pt_clust_9="44.31323" pt_clust_10="13000.00000"></scales>
<clustering>
<clus scale="   44.313">  2  9  1 -1</clus>
<clus scale="   77.742">  5  6 -1 -1</clus>
<clus scale="   88.311">  7  8 -1 -1</clus>
<clus scale="  157.502">  1  5  2 -1</clus>
<clus scale="   70.247">  7 10 -1 -1</clus>
<clus scale="   44.313">  2  5  1 -1</clus>
</clustering>
</event>
<event>
10    4  0.2759992E-005  0.2450314E+03  0.7546771E-02  0.1120290E+00
         21   -1    0    0  501  502  0.00000000000E+00  0.00000000000E+00  0.26055617475E+03  0.26055617475E+03  0.00000000000E+00 0. -1.
          2   -1    0    0  503    0 -0.00000000000E+00 -0.00000000000E+00 -0.37478495124E+03  0.37478495124E+03  0.00000000000E+00 0. -1.
         24    2    1    2    0    0  0.17782921706E+03 -0.11074241772E+03 -0.15266683874E+03  0.27171158795E+03  0.81442678328E+02 0.  0.
         23    2    1    2    0    0 -0.11529953930E+03  0.17620903138E+02  0.23780601982E+02  0.15094653173E+03  0.92816261608E+02 0.  0.
        -11    1    3    3    0    0  0.55643622731E+02 -0.15449585962E+02 -0.84689559399E+02  0.10250475076E+03  0.00000000000E+00 0.  1.
         12    1    3    3    0    0  0.12218559433E+03 -0.95292831756E+02 -0.67977279344E+02  0.16920683719E+03  0.00000000000E+00 0. -1.
        -13    1    4    4    0    0 -0.87085786416E+02 -0.27890019814E+02  0.31775125448E+02  0.96806229129E+02  0.00000000000E+00 0. -1.
         13    1    4    4    0    0 -0.28213752888E+02  0.45510922953E+02 -0.79945234662E+01  0.54140302598E+02  0.00000000000E+00 0.  1.
         21    1    1    2  503  502  0.41549937047E+02  0.95044602550E+02  0.28739368267E+02  0.10763747039E+03  0.00000000000E+00 0.  1.
          1    1    1    2  501    0 -0.10407961480E+03 -0.19230879701E+01 -0.14081907997E+02  0.10504553592E+03  0.00000000000E+00 0. -1.
<scales pt_clust_5="13000.00000" pt_clust_6="13000.00000" pt_clust_7="13000.00000" pt_clust_8="13000.00000" pt_clust_9="103.72981" pt_clust_10="13000.00000"></scales>
<clustering>
<clus scale="   81.443">  5  6 -1 -1</clus>
<clus scale="   92.816">  7  8 -1 -1</clus>
<clus scale="  103.730">  1  9  2 -1</clus>
<clus scale="   96.470">  7 10 -1 -1</clus>
<clus scale="  222.731">  2  5  1 -1</clus>
<clus scale="  103.730">  1  5  2 -1</clus>
</clustering>
</event>
<event>
10    4  0.2759992E-005  0.4008814E+03  0.7546771E-02  0.1085797E+00
         21   -1    0    0  503  502  0.00000000000E+00  0.00000000000E+00  0.34685857609E+03  0.34685857609E+03  0.00000000000E+00 0. -1.
          2   -1    0    0  502    0 -0.00000000000E+00 -0.00000000000E+00 -0.96745406991E+03  0.96745406991E+03  0.00000000000E+00 0. -1.
         24    2    1    2    0    0  0.66081822007E+01  0.94197822343E+02 -0.40644563583E+03  0.42490461012E+03  0.80180889315E+02 0.  0.
         23    2    1    2    0    0  0.14156856081E+03 -0.20014648529E+03 -0.21257680421E+03  0.33831848299E+03  0.95761293145E+02 0.  0.
        -11    1    3    3    0    0 -0.21918075123E+02  0.68250771914E+02 -0.15821627090E+03  0.17369789366E+03  0.00000000000E+00 0.  1.
         12    1    3    3    0    0  0.28526257323E+02  0.25947050429E+02 -0.24822936492E+03  0.25120671646E+03  0.00000000000E+00 0. -1.
        -13    1    4    4    0    0  0.17455084811E+02 -0.90226655301E+02 -0.44046194276E+02  0.10190974705E+03  0.00000000000E+00 0.  1.
         13    1    4    4    0    0  0.12411347600E+03 -0.10991982999E+03 -0.16853060993E+03  0.23640873595E+03  0.00000000000E+00 0. -1.
         21    1    1    2  503  501 -0.33311686570E+01  0.23438847004E+03  0.17226590516E+03  0.29090306573E+03  0.00000000000E+00 0. -1.
          1    1    1    2  501    0 -0.14484557435E+03 -0.12843980709E+03 -0.17383895895E+03  0.26018648716E+03  0.00000000000E+00 0. -1.
<scales pt_clust_5="13000.00000" pt_clust_6="13000.00000" pt_clust_7="13000.00000" pt_clust_8="13000.00000" pt_clust_9="244.52918" pt_clust_10="13000.00000"></scales>
<clustering>
<clus scale="   80.181">  5  6 -1 -1</clus>
<clus scale="   95.761">  7  8 -1 -1</clus>
<clus scale="  123.878">  2  5  1 -1</clus>
<clus scale="  169.076">  7 10 -1 -1</clus>
<clus scale="  244.529">  1  9  2 -1</clus>
<clus scale="  244.529">  1  5  2 -1</clus>
</clustering>
</event>
<event>
10    4  0.2759992E-005  0.4378735E+03  0.7546771E-02  0.1089198E+00
         -1   -1    0    0    0  501 -0.00000000000E+00  0.00000000000E+00  0.87334995211E+03  0.87334995211E+03  0.00000000000E+00 0.  1.
         21   -1    0    0  503  502  0.00000000000E+00 -0.00000000000E+00 -0.38572860340E+03  0.38572860340E+03  0.00000000000E+00 0. -1.
         24    2    1    2    0    0  0.26169065080E+02  0.17127427292E+02  0.29583867064E+03  0.30832338746E+03  0.81022364029E+02 0.  0.
         23    2    1    2    0    0  0.40063213356E+02  0.69902736529E+02  0.11585598823E+03  0.16746405275E+03  0.90167318460E+02 0.  0.
        -11    1    3    3    0    0  0.10389891747E+02 -0.17914912316E+02  0.16845644526E+02  0.26695873713E+02  0.00000000000E+00 0.  1.
         12    1    3    3    0    0  0.15779173333E+02  0.35042339608E+02  0.27899302611E+03  0.28162751374E+03  0.00000000000E+00 0. -1.
        -13    1    4    4    0    0 -0.64830517058E+01  0.73914332835E+02  0.70528663006E+02  0.10237016588E+03  0.00000000000E+00 0.  1.
         13    1    4    4    0    0  0.46546265062E+02 -0.40115963054E+01  0.45327325219E+02  0.65093886869E+02  0.00000000000E+00 0. -1.
         21    1    1    2  503  501  0.25985664405E+03 -0.33702450071E+02 -0.21815150474E+03  0.34095660958E+03  0.00000000000E+00 0. -1.
         -2    1    1    2    0  502 -0.32608892248E+03 -0.53327713750E+02  0.29407819458E+03  0.44233450572E+03  0.00000000000E+00 0.  1.
<scales pt_clust_5="13000.00000" pt_clust_6="13000.00000" pt_clust_7="13000.00000" pt_clust_8="13000.00000" pt_clust_9="264.59474" pt_clust_10="13000.00000"></scales>
<clustering>
<clus scale="   81.022">  5  6 -1 -1</clus>
<clus scale="   86.849">  1  5  2 -1</clus>
<clus scale="   90.167">  7  8 -1 -1</clus>
<clus scale="  264.595">  2  9  1 -1</clus>
<clus scale="  144.189">  7 10 -1 -1</clus>
<clus scale="  264.595">  2  5  1 -1</clus>
</clustering>
</event>
<event>
10    4  0.2759992E-005  0.1588037E+03  0.7546771E-02  0.1213199E+00
         21   -1    0    0  501  502  0.00000000000E+00  0.00000000000E+00  0.65286560723E+02  0.65286560723E+02  0.00000000000E+00 0.  1.
          2   -1    0    0  503    0 -0.00000000000E+00 -0.00000000000E+00 -0.49131377552E+03  0.49131377552E+03  0.00000000000E+00 0. -1.
         24    2    1    2    0    0 -0.48343413044E+01  0.37716562144E+02 -0.17420109845E+02  0.90608625810E+02  0.80377564832E+02 0.  0.
         23    2    1    2    0    0 -0.28063330535E+02 -0.72000483987E+02 -0.24829559110E+03  0.27724932236E+03  0.96150226071E+02 0.  0.
        -13    1    3    3    0    0  0.15508512092E+02  0.46385416965E+02  0.15184914318E+02  0.51212327394E+02  0.00000000000E+00 0.  1.
         14    1    3    3    0    0 -0.20342853396E+02 -0.86688548202E+01 -0.32605024163E+02  0.39396298416E+02  0.00000000000E+00 0. -1.
        -11    1    4    4    0    0 -0.38801173897E+02  0.16975878772E+01 -0.14364587061E+03  0.14880372658E+03  0.00000000000E+00 0.  1.
         11    1    4    4    0    0  0.10737843362E+02 -0.73698071864E+02 -0.10464972049E+03  0.12844559578E+03  0.00000000000E+00 0. -1.
         21    1    1    2  503  502  0.14431776708E+02  0.21045903857E+02  0.12901133369E+01  0.25551333440E+02  0.00000000000E+00 0.  1.
          1    1    1    2  501    0  0.18465895131E+02  0.13238017985E+02 -0.16160162718E+03  0.16319105463E+03  0.00000000000E+00 0. -1.
<scales pt_clust_5="13000.00000" pt_clust_6="13000.00000" pt_clust_7="13000.00000" pt_clust_8="13000.00000" pt_clust_9="25.51874" pt_clust_10="13000.00000"></scales>
<clustering>
<clus scale="   25.519">  1  9  2 -1</clus>
<clus scale="   80.378">  5  6 -1 -1</clus>
<clus scale="   96.150">  7  8 -1 -1</clus>
<clus scale="   23.089">  7 10 -1 -1</clus>
<clus scale="   96.189">  2  5  1 -1</clus>
<clus scale="   25.519">  1  5  2 -1</clus>
</clustering>
</event>
<event>
10    4  0.2759992E-005  0.3332777E+03  0.7546771E-02  0.1118744E+00
          2   -1    0    0  503    0 -0.00000000000E+00  0.00000000000E+00  0.26299931055E+03  0.26299931055E+03  0.00000000000E+00 0. -1.
         21   -1    0    0  501  502  0.00000000000E+00 -0.00000000000E+00 -0.21953290643E+03  0.21953290643E+03  0.00000000000E+00 0. -1.
         24    2    1    2    0    0 -0.11929469208E+02 -0.24418423373E+02  0.76513165744E+01  0.93246248379E+02  0.88869277908E+02 0.  0.
         23    2    1    2    0    0 -0.11835112379E+03  0.53614479304E+02  0.13902929857E+03  0.21270133451E+03  0.95032683574E+02 0.  0.
        -11    1    3    3    0    0  0.13221041286E+02  0.28455888427E+02 -0.85000565630E+01  0.32508221735E+02  0.00000000000E+00 0.  1.
         12    1    3    3    0    0 -0.25150510494E+02 -0.52874311799E+02  0.16151373137E+02  0.60738026644E+02  0.00000000000E+00 0. -1.
        -11    1    4    4    0    0 -0.44789329916E+02 -0.23661156448E+02  0.24812387035E+02  0.56405575515E+02  0.00000000000E+00 0.  1.
         11    1    4    4    0    0 -0.73561793873E+02  0.77275635751E+02  0.11421691154E+03  0.15629575900E+03  0.00000000000E+00 0. -1.
         21    1    1    2  503  502  0.22500416410E+02  0.60024332707E+01 -0.41264952084E+02  0.47382425162E+02  0.00000000000E+00 0. -1.
          1    1    1    2  501    0  0.10778017659E+03 -0.35198489201E+02 -0.61949258942E+02  0.12920220892E+03  0.00000000000E+00 0. -1.
<scales pt_clust_5="13000.00000" pt_clust_6="13000.00000" pt_clust_7="13000.00000" pt_clust_8="13000.00000" pt_clust_9="23.28729" pt_clust_10="13000.00000"></scales>
<clustering>
<clus scale="   23.287">  2  9  1 -1</clus>
<clus scale="   88.869">  5  6 -1 -1</clus>
<clus scale="   92.011">  1  5  2 -1</clus>
<clus scale="   95.033">  7  8 -1 -1</clus>
<clus scale="  124.254">  7 10 -1 -1</clus>
<clus scale="   23.287">  2  5  1 -1</clus>
</clustering>
</event>
<event>
10    4  0.2759992E-005  0.3551972E+03  0.7546771E-02  0.1106964E+00
          2   -1    0    0  502    0 -0.00000000000E+00  0.00000000000E+00  0.55978513684E+03  0.55978513684E+03  0.00000000000E+00 0. -1.
         21   -1    0    0  503  502  0.00000000000E+00 -0.00000000000E+00 -0.17682537623E+03  0.17682537623E+03  0.00000000000E+00 0. -1.
         24    2    1    2    0    0  0.32047346403E+02 -0.51630562978E+02  0.13353675923E+03  0.16697114935E+03  0.79715438939E+02 0.  0.
         23    2    1    2    0    0  0.87998235665E+02  0.14738893896E+03  0.25299990031E+03  0.32270903403E+03  0.10327140109E+03 0.  0.
        -13    1    3    3    0    0 -0.21373380775E+02 -0.13127881390E+01  0.10837403125E+02  0.23999877602E+02  0.00000000000E+00 0.  1.
         14    1    3    3    0    0  0.53420727178E+02 -0.50317774839E+02  0.12269935610E+03  0.14297127175E+03  0.00000000000E+00 0. -1.
        -13    1    4    4    0    0 -0.20671203392E+02  0.48544261455E+02  0.55624621211E+02  0.76667740639E+02  0.00000000000E+00 0.  1.
         13    1    4    4    0    0  0.10866943906E+03  0.98844677504E+02  0.19737527910E+03  0.24604129339E+03  0.00000000000E+00 0. -1.
         21    1    1    2  503  501  0.46955350078E+01 -0.21035634876E+02 -0.79866272266E+02  0.82723439419E+02  0.00000000000E+00 0. -1.
          1    1    1    2  501    0 -0.12474111708E+03 -0.74722741105E+02  0.76289373335E+02  0.16420689027E+03  0.00000000000E+00 0. -1.
<scales pt_clust_5="13000.00000" pt_clust_6="13000.00000" pt_clust_7="13000.00000" pt_clust_8="13000.00000" pt_clust_9="21.55333" pt_clust_10="13000.00000"></scales>
<clustering>
<clus scale="   21.553">  2  9  1 -1</clus>
<clus scale="   79.715">  5  6 -1 -1</clus>
<clus scale="  102.442">  1  5  2 -1</clus>
<clus scale="  103.271">  7  8 -1 -1</clus>
<clus scale="  151.552">  7 10 -1 -1</clus>
<clus scale="   21.553">  2  5  1 -1</clus>
</clustering>
</event>
<event>
10    4  0.2759992E-005  0.1962667E+03  0.7546771E-02  0.1189006E+00
         21   -1    0    0  501  502  0.00000000000E+00  0.00000000000E+00  0.57645179425E+03  0.57645179425E+03  0.00000000000E+00 0. -1.
          2   -1    0    0  503    0 -0.00000000000E+00 -0.00000000000E+00 -0.27114446676E+03  0.27114446676E+03  0.00000000000E+00 0. -1.
         24    2    1    2    0    0 -0.34989454203E+02 -0.40665036515E+01 -0.21035933261E+03  0.22729013823E+03  0.78542725719E+02 0.  0.
         23    2    1    2    0    0  0.25208611717E+02  0.81722382539E+01  0.17913116637E+03  0.20224595943E+03  0.90073268838E+02 0.  0.
        -11    1    3    3    0    0 -0.13959666231E+01  0.30053890735E+02 -0.38365140856E+02  0.48755195662E+02  0.00000000000E+00 0.  1.
         12    1    3    3    0    0 -0.33593487580E+02 -0.34120394387E+02 -0.17199419175E+03  0.17853494257E+03  0.00000000000E+00 0. -1.
        -11    1    4    4    0    0 -0.29583284831E+01 -0.22508542690E+02  0.50570152883E+01  0.23258538327E+02  0.00000000000E+00 0.  1.
         11    1    4    4    0    0  0.28166940200E+02  0.30680780944E+02  0.17407415108E+03  0.17898742111E+03  0.00000000000E+00 0. -1.
         21    1    1    2  503  502  0.78804904143E+01 -0.58068045086E+02  0.35590372039E+03  0.36069579728E+03  0.00000000000E+00 0. -1.
          1    1    1    2  501    0  0.19003520713E+01  0.53962310484E+02 -0.19368226657E+02  0.57364366070E+02  0.00000000000E+00 0. -1.
<scales pt_clust_5="13000.00000" pt_clust_6="13000.00000" pt_clust_7="13000.00000" pt_clust_8="13000.00000" pt_clust_9="58.60034" pt_clust_10="13000.00000"></scales>
<clustering>
<clus scale="   58.600">  1  9  2 -1</clus>
<clus scale="   78.543">  5  6 -1 -1</clus>
<clus scale="   86.092">  2  5  1 -1</clus>
<clus scale="   90.073">  7  8 -1 -1</clus>
<clus scale="   48.798">  7 10 -1 -1</clus>
<clus scale="   58.600">  1  5  2 -1</clus>
</clustering>
</event>
<event>
10    4  0.2759992E-005  0.3034778E+03  0.7546771E-02  0.1117888E+00
         21   -1    0    0  503  502  0.00000000000E+00  0.00000000000E+00  0.20338572910E+03  0.20338572910E+03  0.00000000000E+00 0. -1.
          2   -1    0    0  502    0 -0.00000000000E+00 -0.00000000000E+00 -0.48466118673E+03  0.48466118673E+03  0.00000000000E+00 0. -1.
         24    2    1    2    0    0 -0.88811823841E+02  0.50801858680E+02 -0.24839186812E+03  0.28024293347E+03  0.79807347467E+02 0.  0.
         23    2    1    2    0    0 -0.10428016381E+03 -0.32759193390E+02 -0.35682719863E+02  0.14653769323E+03  0.90843391193E+02 0.  0.
        -11    1    3    3    0    0 -0.19477786998E+02 -0.12455253926E+02 -0.12317545940E+02  0.26196172902E+02  0.00000000000E+00 0.  1.
         12    1    3    3    0    0 -0.69334036843E+02  0.63257112606E+02 -0.23607432218E+03  0.25404676057E+03  0.00000000000E+00 0. -1.
        -11    1    4    4    0    0 -0.30404836597E+02 -0.22658151298E+02 -0.57474219919E+02  0.68855877484E+02  0.00000000000E+00 0.  1.
         11    1    4    4    0    0 -0.73875327216E+02 -0.10101042092E+02  0.21791500056E+02  0.77681815744E+02  0.00000000000E+00 0. -1.
         21    1    1    2  503  501  0.44638093662E+02 -0.21407755445E+02  0.79867190339E+02  0.93966054997E+02  0.00000000000E+00 0. -1.
          1    1    1    2  501    0  0.14845389399E+03  0.33650901553E+01 -0.77068059989E+02  0.16730023414E+03  0.00000000000E+00 0. -1.
<scales pt_clust_5="13000.00000" pt_clust_6="13000.00000" pt_clust_7="13000.00000" pt_clust_8="13000.00000" pt_clust_9="49.50607" pt_clust_10="13000.00000"></scales>
<clustering>
<clus scale="   49.506">  1  9  2 -1</clus>
<clus scale="   79.807">  5  6 -1 -1</clus>
<clus scale="   90.843">  7  8 -1 -1</clus>
<clus scale="  124.506">  2  5  1 -1</clus>
<clus scale="  115.125">  7 10 -1 -1</clus>
<clus scale="   49.506">  1  5  2 -1</clus>
</clustering>
</event>
<event>
10    4  0.2759992E-005  0.1004413E+04  0.7546771E-02  0.9755190E-01
          2   -1    0    0  503    0 -0.00000000000E+00  0.00000000000E+00  0.25040648429E+04  0.25040648429E+04  0.00000000000E+00 0. -1.
         21   -1    0    0  501  502  0.00000000000E+00 -0.00000000000E+00 -0.22915342326E+03  0.22915342326E+03  0.00000000000E+00 0. -1.
         24    2    1    2    0    0  0.73720399874E+02  0.17843570578E+03  0.33457630096E+03  0.39439913919E+03  0.79595108966E+02 0.  0.
         23    2    1    2    0    0 -0.44342268815E+03 -0.19544266285E+03  0.72273600140E+03  0.87494912295E+03  0.91471991314E+02 0.  0.
        -13    1    3    3    0    0  0.23595202219E+02  0.36186383787E+02  0.24686016679E+02  0.49755274683E+02  0.00000000000E+00 0.  1.
         14    1    3    3    0    0  0.50125197655E+02  0.14224932200E+03  0.30989028428E+03  0.34464386450E+03  0.00000000000E+00 0. -1.
        -11    1    4    4    0    0 -0.42227393700E+03 -0.18603445123E+03  0.63977475538E+03  0.78881926481E+03  0.00000000000E+00 0. -1.
         11    1    4    4    0    0 -0.21148751149E+02 -0.94082116171E+01  0.82961246020E+02  0.86129858134E+02  0.00000000000E+00 0.  1.
         21    1    1    2  503  502  0.25646150207E+02 -0.32510541536E+03  0.44894402824E+03  0.55488917507E+03  0.00000000000E+00 0. -1.
          1    1    1    2  501    0  0.34405613807E+03  0.34211237242E+03  0.76865508903E+03  0.90898082895E+03  0.00000000000E+00 0. -1.
<scales pt_clust_5="13000.00000" pt_clust_6="13000.00000" pt_clust_7="13000.00000" pt_clust_8="13000.00000" pt_clust_9="286.48324" pt_clust_10="13000.00000"></scales>
<clustering>
<clus scale="   79.595">  5  6 -1 -1</clus>
<clus scale="   91.472">  7  8 -1 -1</clus>
<clus scale="  208.829">  1  5  2 -1</clus>
<clus scale="  286.483">  2  9  1 -1</clus>
<clus scale="  469.631">  7 10 -1 -1</clus>
<clus scale="  286.483">  2  5  1 -1</clus>
</clustering>
</event>
<event>
10    4  0.2759992E-005  0.2349394E+03  0.7546771E-02  0.1165284E+00
         21   -1    0    0  503  502  0.00000000000E+00  0.00000000000E+00  0.34822718336E+02  0.34822718336E+02  0.00000000000E+00 0. -1.
          2   -1    0    0  502    0 -0.00000000000E+00 -0.00000000000E+00 -0.10355708387E+04  0.10355708387E+04  0.00000000000E+00 0. -1.
         24    2    1    2    0    0 -0.19019984910E+02  0.20488547384E+02 -0.17895963106E+03  0.19822965900E+03  0.80541341904E+02 0.  0.
         23    2    1    2    0    0  0.60724556865E+01 -0.11831754049E+03 -0.40152463899E+03  0.42822834141E+03  0.90119706844E+02 0.  0.
        -11    1    3    3    0    0 -0.31248420720E+02 -0.16117547248E+02 -0.13603608870E+03  0.14050642888E+03  0.00000000000E+00 0.  1.
         12    1    3    3    0    0  0.12228435809E+02  0.36606094632E+02 -0.42923542364E+02  0.57723230121E+02  0.00000000000E+00 0. -1.
        -13    1    4    4    0    0  0.29492173977E+02 -0.37597158726E+02 -0.25386998203E+03  0.25832789715E+03  0.00000000000E+00 0.  1.
         13    1    4    4    0    0 -0.23419718290E+02 -0.80720381759E+02 -0.14765465696E+03  0.16990044426E+03  0.00000000000E+00 0. -1.
         21    1    1    2  503  501  0.25216652587E+02  0.20340512220E+02 -0.24895052526E+02  0.40858042603E+02  0.00000000000E+00 0. -1.
          1    1    1    2  501    0 -0.12269123364E+02  0.77488480881E+02 -0.39536879781E+03  0.40307751406E+03  0.00000000000E+00 0. -1.
<scales pt_clust_5="13000.00000" pt_clust_6="13000.00000" pt_clust_7="13000.00000" pt_clust_8="13000.00000" pt_clust_9="32.39778" pt_clust_10="13000.00000"></scales>
<clustering>
<clus scale="   32.398">  1  9  2 -1</clus>
<clus scale="   80.541">  5  6 -1 -1</clus>
<clus scale="   85.782">  2  5  1 -1</clus>
<clus scale="   90.120">  7  8 -1 -1</clus>
<clus scale="   95.925">  7 10 -1 -1</clus>
<clus scale="   32.398">  1  5  2 -1</clus>
</clustering>
</event>
<event>
10    4  0.3010951E-005  0.5304849E+03  0.7546771E-02  0.1062962E+00
         21   -1    0    0  501  502  0.00000000000E+00  0.00000000000E+00  0.90203915943E+03  0.90203915943E+03  0.00000000000E+00 0.  1.
         -1   -1    0    0    0  501 -0.00000000000E+00 -0.00000000000E+00 -0.31297314820E+03  0.31297314820E+03  0.00000000000E+00 0.  1.
         24    2    1    2    0    0  0.44320932347E+02  0.39953780744E+02  0.14274985008E+02  0.10057146405E+03  0.79688107925E+02 0.  0.
         23    2    1    2    0    0 -0.14754224951E+02  0.26384399067E+02 -0.97679231642E+02  0.12663124959E+03  0.74702191473E+02 0.  0.
        -11    1    3    3    0    0  0.64498047353E+02  0.42029044390E+02  0.19916533587E+02  0.79517966491E+02  0.00000000000E+00 0.  1.
         12    1    3    3    0    0 -0.20177115006E+02 -0.20752636456E+01 -0.56415485799E+01  0.21053497561E+02  0.00000000000E+00 0. -1.
        -11    1    4    4    0    0  0.92367313240E+01 -0.23161267819E+02 -0.37898173394E+02  0.45365549475E+02  0.00000000000E+00 0. -1.
         11    1    4    4    0    0 -0.23990956275E+02  0.49545666886E+02 -0.59781058248E+02  0.81265700117E+02  0.00000000000E+00 0.  1.
         21    1    1    2  503  502  0.51140055046E+02 -0.38503512859E+03  0.42901002833E+03  0.57872010496E+03  0.00000000000E+00 0.  1.
         -2    1    1    2    0  503 -0.80706762442E+02  0.31869694878E+03  0.24346022954E+03  0.40908948903E+03  0.00000000000E+00 0.  1.
<scales pt_clust_5="13000.00000" pt_clust_6="13000.00000" pt_clust_7="13000.00000" pt_clust_8="13000.00000" pt_clust_9="379.29344" pt_clust_10="13000.00000"></scales>
<clustering>
<clus scale="   74.702">  7  8 -1 -1</clus>
<clus scale="   79.688">  5  6 -1 -1</clus>
<clus scale="   99.553">  2  5  1 -1</clus>
<clus scale="  337.694">  7 10 -1 -1</clus>
<clus scale="  379.293">  1  9  2 -1</clus>
<clus scale="  379.293">  1  5  2 -1</clus>
</clustering>
</event>
<event>
10    4  0.2759992E-005  0.3975016E+03  0.7546771E-02  0.1062135E+00
         21   -1    0    0  503  502  0.00000000000E+00  0.00000000000E+00  0.17727997135E+03  0.17727997135E+03  0.00000000000E+00 0. -1.
          2   -1    0    0  502    0 -0.00000000000E+00 -0.00000000000E+00 -0.80789911498E+03  0.80789911498E+03  0.00000000000E+00 0. -1.
         24    2    1    2    0    0  0.62641742202E+02 -0.21266717732E+03 -0.49972561743E+02  0.24110463566E+03  0.80516285536E+02 0.  0.
         23    2    1    2    0    0  0.11704043299E+02 -0.16740381743E+02 -0.28472109436E+02  0.97153053805E+02  0.90613629425E+02 0.  0.
        -11    1    3    3    0    0  0.10831310164E+01 -0.12660568851E+03 -0.67019284494E+01  0.12678757581E+03  0.00000000000E+00 0.  1.
         12    1    3    3    0    0  0.61558611185E+02 -0.86061488809E+02 -0.43270633294E+02  0.11431705985E+03  0.00000000000E+00 0. -1.
        -11    1    4    4    0    0 -0.16129120725E+02 -0.44653211069E+02 -0.32491165095E+02  0.57530284228E+02  0.00000000000E+00 0.  1.
         11    1    4    4    0    0  0.27833164023E+02  0.27912829327E+02  0.40190556585E+01  0.39622769577E+02  0.00000000000E+00 0. -1.
         21    1    1    2  503  501  0.32213584936E+02 -0.62330712644E+00  0.69924497047E+01  0.32969651486E+02  0.00000000000E+00 0. -1.
          1    1    1    2  501    0 -0.10655937044E+03  0.23003086619E+03 -0.55916692215E+03  0.61395174538E+03  0.00000000000E+00 0. -1.
<scales pt_clust_5="13000.00000" pt_clust_6="13000.00000" pt_clust_7="13000.00000" pt_clust_8="13000.00000" pt_clust_9="32.21961" pt_clust_10="13000.00000"></scales>
<clustering>
<clus scale="   32.220">  1  9  2 -1</clus>
<clus scale="   80.516">  5  6 -1 -1</clus>
<clus scale="   90.614">  7  8 -1 -1</clus>
<clus scale="  242.137">  2  5  1 -1</clus>
<clus scale="   48.046">  7 10 -1 -1</clus>
<clus scale="   32.220">  1  5  2 -1</clus>
</clustering>
</event>
<event>
10    4  0.2759992E-005  0.5083386E+03  0.7546771E-02  0.1063740E+00
          2   -1    0    0  503    0 -0.00000000000E+00  0.00000000000E+00  0.29358591567E+04  0.29358591567E+04  0.00000000000E+00 0. -1.
         21   -1    0    0  501  502  0.00000000000E+00 -0.00000000000E+00 -0.88725946856E+02  0.88725946856E+02  0.00000000000E+00 0. -1.
         24    2    1    2    0    0  0.66215746183E+02  0.19474564992E+02  0.97133360342E+03  0.97756477739E+03  0.85907747865E+02 0.  0.
         23    2    1    2    0    0  0.21177169846E+03 -0.58016371969E+02  0.84544152855E+03  0.87820836982E+03  0.90914305431E+02 0.  0.
        -11    1    3    3    0    0  0.39130458850E+01  0.36335391690E+02  0.18426284089E+03  0.18785198203E+03  0.00000000000E+00 0.  1.
         12    1    3    3    0    0  0.62302700298E+02 -0.16860826698E+02  0.78707076253E+03  0.78971279537E+03  0.00000000000E+00 0. -1.
        -11    1    4    4    0    0  0.54405226666E+02 -0.55786595120E+02  0.22477071405E+03  0.23789482294E+03  0.00000000000E+00 0.  1.
         11    1    4    4    0    0  0.15736647179E+03 -0.22297768492E+01  0.62067081450E+03  0.64031354688E+03  0.00000000000E+00 0. -1.
         21    1    1    2  503  502 -0.48238324068E+01  0.46303975073E+02 -0.41683312577E+02  0.62488607074E+02  0.00000000000E+00 0. -1.
          1    1    1    2  501    0 -0.27316361223E+03 -0.77621680961E+01  0.10720413904E+04  0.11063233492E+04  0.00000000000E+00 0. -1.
<scales pt_clust_5="13000.00000" pt_clust_6="13000.00000" pt_clust_7="13000.00000" pt_clust_8="13000.00000" pt_clust_9="46.55456" pt_clust_10="13000.00000"></scales>
<clustering>
<clus scale="   46.555">  2  9  1 -1</clus>
<clus scale="   85.908">  5  6 -1 -1</clus>
<clus scale="   90.914">  7  8 -1 -1</clus>
<clus scale="  110.719">  1  5  2 -1</clus>
<clus scale="  239.248">  7 10 -1 -1</clus>
<clus scale="   46.555">  2  5  1 -1</clus>
</clustering>
</event>
<event>
10    4  0.2759992E-005  0.2029582E+03  0.7546771E-02  0.1183615E+00
         -3   -1    0    0    0  501 -0.00000000000E+00  0.00000000000E+00  0.20529329573E+03  0.20529329573E+03  0.00000000000E+00 0.  1.
         21   -1    0    0  503  502  0.00000000000E+00 -0.00000000000E+00 -0.15314834600E+03  0.15314834600E+03  0.00000000000E+00 0.  1.
         24    2    1    2    0    0  0.62134284481E+01  0.48288411452E+02  0.79476646517E+02  0.12002104315E+03  0.75618358107E+02 0.  0.
         23    2    1    2    0    0  0.33818590445E+02  0.27885728858E+02  0.46926587283E+02  0.11134496904E+03  0.90963105719E+02 0.  0.
        -13    1    3    3    0    0  0.25413805350E+02  0.55281010109E+02  0.78826755415E+02  0.99576648619E+02  0.00000000000E+00 0.  1.
         14    1    3    3    0    0 -0.19200376902E+02 -0.69925986568E+01  0.64989110160E+00  0.20444394527E+02  0.00000000000E+00 0. -1.
        -11    1    4    4    0    0  0.19486274029E+02  0.51519012552E+02 -0.20371098375E+01  0.55118720471E+02  0.00000000000E+00 0.  1.
         11    1    4    4    0    0  0.14332316417E+02 -0.23633283694E+02  0.48963697121E+02  0.56226248566E+02  0.00000000000E+00 0. -1.
         21    1    1    2  503  501  0.13611798517E+02 -0.27453308085E+02 -0.22957214208E+02  0.38288364654E+02  0.00000000000E+00 0. -1.
         -4    1    1    2    0  502 -0.53643817410E+02 -0.48720832225E+02 -0.51301069861E+02  0.88787264897E+02  0.00000000000E+00 0.  1.
<scales pt_clust_5="13000.00000" pt_clust_6="13000.00000" pt_clust_7="13000.00000" pt_clust_8="13000.00000" pt_clust_9="30.64254" pt_clust_10="13000.00000"></scales>
<clustering>
<clus scale="   30.643">  2  9  1 -1</clus>
<clus scale="   75.618">  5  6 -1 -1</clus>
<clus scale="   87.770">  1  5  2 -1</clus>
<clus scale="   90.963">  7  8 -1 -1</clus>
<clus scale="   69.223">  7 10 -1 -1</clus>
<clus scale="   30.643">  2  5  1 -1</clus>
</clustering>
</event>
<event>
10    4  0.2759992E-005  0.1862437E+03  0.7546771E-02  0.1189669E+00
          2   -1    0    0  502    0 -0.00000000000E+00  0.00000000000E+00  0.55439136874E+03  0.55439136874E+03  0.00000000000E+00 0. -1.
         21   -1    0    0  503  502  0.00000000000E+00 -0.00000000000E+00 -0.17561465903E+03  0.17561465903E+03  0.00000000000E+00 0.  1.
         24    2    1    2    0    0 -0.65637192380E+02  0.41606940255E+01  0.40998568044E+03  0.42297319743E+03  0.80576145218E+02 0.  0.
         23    2    1    2    0    0  0.32079513575E+01 -0.62520178043E+01  0.81613642093E+02  0.12964065808E+03  0.10048151558E+03 0.  0.
        -11    1    3    3    0    0 -0.40426004864E+02  0.39014888388E+02  0.16667280754E+03  0.17588703238E+03  0.00000000000E+00 0.  1.
         12    1    3    3    0    0 -0.25211187517E+02 -0.34854194362E+02  0.24331287290E+03  0.24708616505E+03  0.00000000000E+00 0. -1.
        -13    1    4    4    0    0  0.34692576366E+02 -0.50359707955E+01 -0.68625427503E+01  0.35721567012E+02  0.00000000000E+00 0.  1.
         13    1    4    4    0    0 -0.31484625009E+02 -0.12160470088E+01  0.88476184843E+02  0.93919091066E+02  0.00000000000E+00 0. -1.
         21    1    1    2  503  501  0.91141358199E+02 -0.27837554777E+02 -0.75180899130E+02  0.12138304752E+03  0.00000000000E+00 0.  1.
          1    1    1    2  501    0 -0.28712117176E+02  0.29928878556E+02 -0.37641713699E+02  0.56009124744E+02  0.00000000000E+00 0. -1.
<scales pt_clust_5="13000.00000" pt_clust_6="13000.00000" pt_clust_7="13000.00000" pt_clust_8="13000.00000" pt_clust_9="95.29783" pt_clust_10="13000.00000"></scales>
<clustering>
<clus scale="   80.576">  5  6 -1 -1</clus>
<clus scale="   95.298">  2  9  1 -1</clus>
<clus scale="   99.287">  1  5  2 -1</clus>
<clus scale="  100.482">  7  8 -1 -1</clus>
<clus scale="   19.889">  7 10 -1 -1</clus>
<clus scale="   95.298">  2  5  1 -1</clus>
</clustering>
</event>
<event>
10    4  0.2759992E-005  0.4018202E+03  0.7546771E-02  0.1101070E+00
         21   -1    0    0  503  502  0.00000000000E+00  0.00000000000E+00  0.12620412317E+03  0.12620412317E+03  0.00000000000E+00 0.  1.
          2   -1    0    0  502    0 -0.00000000000E+00 -0.00000000000E+00 -0.57027141817E+03  0.57027141817E+03  0.00000000000E+00 0. -1.
         24    2    1    2    0    0  0.22133552390E+02 -0.11957277774E+01 -0.37242667788E+02  0.91152086695E+02  0.80189542326E+02 0.  0.
         23    2    1    2    0    0 -0.87173223686E+02 -0.74248586715E+02 -0.31770489296E+01  0.14712683503E+03  0.92326531340E+02 0.  0.
        -11    1    3    3    0    0  0.49862913758E+02  0.13393568274E+02 -0.26458220437E+02  0.58014957281E+02  0.00000000000E+00 0.  1.
         12    1    3    3    0    0 -0.27729361368E+02 -0.14589296051E+02 -0.10784447351E+02  0.33137129414E+02  0.00000000000E+00 0. -1.
        -13    1    4    4    0    0 -0.21769272399E+02 -0.58018323666E+02  0.33459241137E+02  0.70424057816E+02  0.00000000000E+00 0.  1.
         13    1    4    4    0    0 -0.65403951287E+02 -0.16230263049E+02 -0.36636290067E+02  0.76702777215E+02  0.00000000000E+00 0. -1.
         21    1    1    2  503  501 -0.19443330727E+02 -0.24450944783E+02  0.26529657460E+01  0.31351715069E+02  0.00000000000E+00 0.  1.
          1    1    1    2  501    0  0.84483002022E+02  0.99895259275E+02 -0.40630054403E+03  0.42684490454E+03  0.00000000000E+00 0. -1.
<scales pt_clust_5="13000.00000" pt_clust_6="13000.00000" pt_clust_7="13000.00000" pt_clust_8="13000.00000" pt_clust_9="31.23927" pt_clust_10="13000.00000"></scales>
<clustering>
<clus scale="   31.239">  1  9  2 -1</clus>
<clus scale="   80.190">  5  6 -1 -1</clus>
<clus scale="   82.360">  2  5  1 -1</clus>
<clus scale="   92.327">  7  8 -1 -1</clus>
<clus scale="  133.170">  7 10 -1 -1</clus>
<clus scale="   31.239">  1  5  2 -1</clus>
</clustering>
</event>
<event>
10    4  0.2759992E-005  0.3299324E+03  0.7546771E-02  0.1112785E+00
         21   -1    0    0  503  502  0.00000000000E+00  0.00000000000E+00  0.10737149026E+04  0.10737149026E+04  0.00000000000E+00 0. -1.
         -3   -1    0    0    0  501 -0.00000000000E+00 -0.00000000000E+00 -0.16833581987E+03  0.16833581987E+03  0.00000000000E+00 0.  1.
         24    2    1    2    0    0 -0.37493275291E+02  0.65708371855E+02 -0.11683677019E+03  0.16058202164E+03  0.80077581031E+02 0.  0.
         23    2    1    2    0    0  0.13581842292E+03 -0.43779965428E+02  0.29837209886E+03  0.34312983933E+03  0.91372030105E+02 0.  0.
        -11    1    3    3    0    0 -0.46639609792E+02  0.77059879792E+02 -0.11471177144E+03  0.14585015866E+03  0.00000000000E+00 0.  1.
         12    1    3    3    0    0  0.91463345010E+01 -0.11351507937E+02 -0.21249987485E+01  0.14731862983E+02  0.00000000000E+00 0. -1.
        -13    1    4    4    0    0  0.46221536014E+02  0.28373058918E+02  0.10295969150E+03  0.11637078215E+03  0.00000000000E+00 0.  1.
         13    1    4    4    0    0  0.89596886904E+02 -0.72153024347E+02  0.19541240736E+03  0.22675905718E+03  0.00000000000E+00 0. -1.
         21    1    1    2  503  501  0.17292096857E+02  0.13180927801E+02  0.65968831371E+02  0.69459629886E+02  0.00000000000E+00 0. -1.
         -4    1    1    2    0  502 -0.11561724448E+03 -0.35109334227E+02  0.65787492265E+03  0.66887923156E+03  0.00000000000E+00 0.  1.
<scales pt_clust_5="13000.00000" pt_clust_6="13000.00000" pt_clust_7="13000.00000" pt_clust_8="13000.00000" pt_clust_9="21.74289" pt_clust_10="13000.00000"></scales>
<clustering>
<clus scale="   21.743">  1  9  2 -1</clus>
<clus scale="   80.078">  5  6 -1 -1</clus>
<clus scale="   91.372">  7  8 -1 -1</clus>
<clus scale="  107.511">  7 10 -1 -1</clus>
<clus scale="  110.206">  2  5  1 -1</clus>
<clus scale="   21.743">  1  5  2 -1</clus>
</clustering>
</event>
<event>
10    4  0.2759992E-005  0.2374243E+03  0.7546771E-02  0.1152767E+00
          2   -1    0    0  503    0 -0.00000000000E+00  0.00000000000E+00  0.59930485540E+03  0.59930485540E+03  0.00000000000E+00 0. -1.
         21   -1    0    0  501  502  0.00000000000E+00 -0.00000000000E+00 -0.77008231639E+02  0.77008231639E+02  0.00000000000E+00 0.  1.
         24    2    1    2    0    0 -0.14078010990E+02  0.50337157498E+02  0.18168519438E+03  0.21432003050E+03  0.10095318616E+03 0.  0.
         23    2    1    2    0    0 -0.70730941890E+02 -0.94863950331E+02  0.22138481713E+03  0.26693405179E+03  0.90777285344E+02 0.  0.
        -11    1    3    3    0    0 -0.33092355019E+02  0.74798910883E+02  0.14320506461E+03  0.16491716575E+03  0.00000000000E+00 0.  1.
         12    1    3    3    0    0  0.19014344029E+02 -0.24461753385E+02  0.38480129774E+02  0.49402864744E+02  0.00000000000E+00 0. -1.
        -13    1    4    4    0    0 -0.71713724248E+02 -0.70643582054E+02  0.22082515283E+03  0.24268729273E+03  0.00000000000E+00 0. -1.
         13    1    4    4    0    0  0.98278235715E+00 -0.24220368277E+02  0.55966430161E+00  0.24246759056E+02  0.00000000000E+00 0.  1.
         21    1    1    2  503  502  0.20176849850E+02 -0.13030791092E+02 -0.19912563391E+02  0.31199630882E+02  0.00000000000E+00 0.  1.
          1    1    1    2  501    0  0.64632103030E+02  0.57557583924E+02  0.13913917564E+03  0.16385937387E+03  0.00000000000E+00 0. -1.
<scales pt_clust_5="13000.00000" pt_clust_6="13000.00000" pt_clust_7="13000.00000" pt_clust_8="13000.00000" pt_clust_9="24.01888" pt_clust_10="13000.00000"></scales>
<clustering>
<clus scale="   24.019">  2  9  1 -1</clus>
<clus scale="   90.777">  7  8 -1 -1</clus>
<clus scale="   88.259">  7 10 -1 -1</clus>
<clus scale="  100.953">  5  6 -1 -1</clus>
<clus scale="  111.290">  1  5  2 -1</clus>
<clus scale="   24.019">  2  5  1 -1</clus>
</clustering>
</event>
<event>
10    4  0.2759992E-005  0.3544932E+03  0.7546771E-02  0.1099156E+00
         21   -1    0    0  503  502  0.00000000000E+00  0.00000000000E+00  0.77225961905E+03  0.77225961905E+03  0.00000000000E+00 0. -1.
          2   -1    0    0  502    0 -0.00000000000E+00 -0.00000000000E+00 -0.17730653277E+03  0.17730653277E+03  0.00000000000E+00 0. -1.
         24    2    1    2    0    0  0.83721699981E+02  0.24523796214E+02 -0.19171192848E+02  0.11924449418E+03  0.78999842586E+02 0.  0.
         23    2    1    2    0    0  0.33818315700E+01  0.99523036845E+02  0.11802513337E+02  0.13568296803E+03  0.91401842675E+02 0.  0.
        -13    1    3    3    0    0  0.39599502038E+02 -0.28293178366E+02 -0.44961024469E+01  0.48875755145E+02  0.00000000000E+00 0.  1.
         14    1    3    3    0    0  0.44122197943E+02  0.52816974581E+02 -0.14675090401E+02  0.70368739035E+02  0.00000000000E+00 0. -1.
        -11    1    4    4    0    0  0.25849598685E+02  0.16121001972E+02 -0.27264754400E+02  0.40883435390E+02  0.00000000000E+00 0.  1.
         11    1    4    4    0    0 -0.22467767115E+02  0.83402034873E+02  0.39067267737E+02  0.94799532639E+02  0.00000000000E+00 0. -1.
         21    1    1    2  503  501  0.10318042121E+03 -0.24105903106E+02  0.33653605911E+03  0.35282263670E+03  0.00000000000E+00 0. -1.
          1    1    1    2  501    0 -0.19028395276E+03 -0.99940929953E+02  0.26578570667E+03  0.34181605291E+03  0.00000000000E+00 0. -1.
<scales pt_clust_5="13000.00000" pt_clust_6="13000.00000" pt_clust_7="13000.00000" pt_clust_8="13000.00000" pt_clust_9="105.95893" pt_clust_10="13000.00000"></scales>
<clustering>
<clus scale="   79.000">  5  6 -1 -1</clus>
<clus scale="   91.402">  7  8 -1 -1</clus>
<clus scale="  105.959">  1  9  2 -1</clus>
<clus scale="  126.051">  2  5  1 -1</clus>
<clus scale="  139.695">  7 10 -1 -1</clus>
<clus scale="  105.959">  1  5  2 -1</clus>
</clustering>
</event>
<event>
10    4  0.2759992E-005  0.4396239E+03  0.7546771E-02  0.1034080E+00
         21   -1    0    0  501  502  0.00000000000E+00  0.00000000000E+00  0.12070241526E+03  0.12070241526E+03  0.00000000000E+00 0. -1.
          2   -1    0    0  503    0 -0.00000000000E+00 -0.00000000000E+00 -0.30428744813E+04  0.30428744813E+04  0.00000000000E+00 0. -1.
         24    2    1    2    0    0 -0.26739223590E+03 -0.28159297518E+03 -0.24424504219E+04  0.24744940577E+04  0.82240906342E+02 0.  0.
         23    2    1    2    0    0  0.63892835788E+02  0.11062779781E+03 -0.22306681024E+03  0.27252006197E+03  0.90485237646E+02 0.  0.
        -11    1    3    3    0    0 -0.15756675301E+03 -0.12016502820E+03 -0.10654669758E+04  0.10837374185E+04  0.00000000000E+00 0.  1.
         12    1    3    3    0    0 -0.10982548290E+03 -0.16142794698E+03 -0.13769834460E+04  0.13907566391E+04  0.00000000000E+00 0. -1.
        -13    1    4    4    0    0  0.63085167542E+02  0.33247045843E+02 -0.15001449395E+03  0.16610073094E+03  0.00000000000E+00 0.  1.
         13    1    4    4    0    0  0.80766824543E+00  0.77380751966E+02 -0.73052316286E+02  0.10641933103E+03  0.00000000000E+00 0. -1.
         21    1    1    2  503  502 -0.36482561362E+02  0.73351478579E+01 -0.22602157600E+02  0.43538938961E+02  0.00000000000E+00 0.  1.
          1    1    1    2  501    0  0.23998196148E+03  0.16363002952E+03 -0.23405267638E+03  0.37302383800E+03  0.00000000000E+00 0. -1.
<scales pt_clust_5="13000.00000" pt_clust_6="13000.00000" pt_clust_7="13000.00000" pt_clust_8="13000.00000" pt_clust_9="37.21265" pt_clust_10="13000.00000"></scales>
<clustering>
<clus scale="   37.213">  1  9  2 -1</clus>
<clus scale="   82.241">  5  6 -1 -1</clus>
<clus scale="   90.485">  7  8 -1 -1</clus>
<clus scale="  274.576">  7 10 -1 -1</clus>
<clus scale="  399.777">  2  5  1 -1</clus>
<clus scale="   37.213">  1  5  2 -1</clus>
</clustering>
</event>
<event>
10    4  0.2759992E-005  0.6393122E+03  0.7546771E-02  0.1013513E+00
          2   -1    0    0  503    0 -0.00000000000E+00  0.00000000000E+00  0.95479751716E+03  0.95479751716E+03  0.00000000000E+00 0. -1.
         21   -1    0    0  501  502  0.00000000000E+00 -0.00000000000E+00 -0.21965136269E+03  0.21965136269E+03  0.00000000000E+00 0. -1.
         24    2    1    2    0    0  0.21487420748E+03  0.52418371802E+02  0.10557299869E+03  0.25818235692E+03  0.81202590051E+02 0.  0.
         23    2    1    2    0    0  0.64214806260E+02  0.53089038662E+02  0.55273468738E+03  0.56623294955E+03  0.90344513686E+02 0.  0.
        -13    1    3    3    0    0  0.64495723698E+02  0.55647281823E+02  0.36836853129E+02  0.92807715725E+02  0.00000000000E+00 0.  1.
         14    1    3    3    0    0  0.15037848378E+03 -0.32289100212E+01  0.68736145560E+02  0.16537464120E+03  0.00000000000E+00 0. -1.
        -11    1    4    4    0    0 -0.13631329210E+02  0.42110438302E+02  0.19414969224E+03  0.19913112551E+03  0.00000000000E+00 0. -1.
         11    1    4    4    0    0  0.77846135470E+02  0.10978600360E+02  0.35858499514E+03  0.36710182404E+03  0.00000000000E+00 0.  1.
         21    1    1    2  503  502  0.12324041063E+02  0.18437702720E+02  0.16543951630E+02  0.27668270731E+02  0.00000000000E+00 0. -1.
          1    1    1    2  501    0 -0.29141305481E+03 -0.12394511318E+03  0.60294516774E+02  0.32236530264E+03  0.00000000000E+00 0. -1.
<scales pt_clust_5="13000.00000" pt_clust_6="13000.00000" pt_clust_7="13000.00000" pt_clust_8="13000.00000" pt_clust_9="22.17726" pt_clust_10="13000.00000"></scales>
<clustering>
<clus scale="   22.177">  2  9  1 -1</clus>
<clus scale="   81.203">  5  6 -1 -1</clus>
<clus scale="   90.345">  7  8 -1 -1</clus>
<clus scale="  241.146">  1  5  2 -1</clus>
<clus scale="  249.444">  7 10 -1 -1</clus>
<clus scale="   22.177">  2  5  1 -1</clus>
</clustering>
</event>
<event>
10    4  0.2759992E-005  0.2679609E+03  0.7546771E-02  0.1138030E+00
         21   -1    0    0  501  502  0.00000000000E+00  0.00000000000E+00  0.56052580054E+02  0.56052580054E+02  0.00000000000E+00 0. -1.
          2   -1    0    0  503    0 -0.00000000000E+00 -0.00000000000E+00 -0.10686220811E+04  0.10686220811E+04  0.00000000000E+00 0. -1.
         24    2    1    2    0    0  0.66871027025E+02  0.37776317552E+02 -0.61151246181E+03  0.62127505545E+03  0.78335299486E+02 0.  0.
         23    2    1    2    0    0  0.30447467279E+02  0.78384436279E+02 -0.15650617279E+03  0.19899250194E+03  0.89625139300E+02 0.  0.
        -13    1    3    3    0    0  0.51156085035E+02 -0.14089088203E+02 -0.23738418412E+03  0.24324205704E+03  0.00000000000E+00 0.  1.
         14    1    3    3    0    0  0.15714941990E+02  0.51865405754E+02 -0.37412827770E+03  0.37803299841E+03  0.00000000000E+00 0. -1.
        -13    1    4    4    0    0  0.24597706522E+01  0.52784453934E+02 -0.18686193443E+02  0.56048397605E+02  0.00000000000E+00 0. -1.
         13    1    4    4    0    0  0.27987696626E+02  0.25599982345E+02 -0.13781997934E+03  0.14294410434E+03  0.00000000000E+00 0.  1.
         21    1    1    2  503  502  0.20302889275E+02 -0.26003226681E+02 -0.41125802438E+02  0.52722924207E+02  0.00000000000E+00 0. -1.
          1    1    1    2  501    0 -0.11762138358E+03 -0.90157527150E+02 -0.20342506405E+03  0.25168417960E+03  0.00000000000E+00 0. -1.
<scales pt_clust_5="13000.00000" pt_clust_6="13000.00000" pt_clust_7="13000.00000" pt_clust_8="13000.00000" pt_clust_9="32.99053" pt_clust_10="13000.00000"></scales>
<clustering>
<clus scale="   32.991">  1  9  2 -1</clus>
<clus scale="   78.335">  5  6 -1 -1</clus>
<clus scale="   89.625">  7  8 -1 -1</clus>
<clus scale="  110.084">  2  5  1 -1</clus>
<clus scale="  108.439">  7 10 -1 -1</clus>
<clus scale="   32.991">  1  5  2 -1</clus>
</clustering>
</event>
<event>
10    4  0.2759992E-005  0.2084953E+03  0.7546771E-02  0.1165969E+00
         21   -1    0    0  501  502  0.00000000000E+00  0.00000000000E+00  0.12491465716E+03  0.12491465716E+03  0.00000000000E+00 0.  1.
          2   -1    0    0  503    0 -0.00000000000E+00 -0.00000000000E+00 -0.48027429801E+03  0.48027429801E+03  0.00000000000E+00 0. -1.
         24    2    1    2    0    0 -0.87216672843E+02 -0.17087539418E+02 -0.33558033595E+03  0.35671441744E+03  0.82050482705E+02 0.  0.
         23    2    1    2    0    0  0.87891949697E+02  0.88364535916E+02  0.59012710283E+01  0.15615805582E+03  0.93900092489E+02 0.  0.
        -11    1    3    3    0    0  0.10406302408E+02 -0.17354835285E+02 -0.32357843114E+02  0.38164269266E+02  0.00000000000E+00 0.  1.
         12    1    3    3    0    0 -0.97622975251E+02  0.26729586634E+00 -0.30322249283E+03  0.31855014818E+03  0.00000000000E+00 0. -1.
        -13    1    4    4    0    0  0.23165193526E+02  0.86642834929E+02 -0.76283084684E+01  0.90009989033E+02  0.00000000000E+00 0. -1.
         13    1    4    4    0    0  0.64726756171E+02  0.17217009876E+01  0.13529579497E+02  0.66148066790E+02  0.00000000000E+00 0.  1.
         21    1    1    2  503  502  0.87560584541E+01 -0.31761171947E+02  0.13751506002E+02  0.35700763583E+02  0.00000000000E+00 0.  1.
          1    1    1    2  501    0 -0.94313353084E+01 -0.39515824550E+02 -0.39432081934E+02  0.56615718323E+02  0.00000000000E+00 0. -1.
<scales pt_clust_5="13000.00000" pt_clust_6="13000.00000" pt_clust_7="13000.00000" pt_clust_8="13000.00000" pt_clust_9="32.94603" pt_clust_10="13000.00000"></scales>
<clustering>
<clus scale="   32.946">  1  9  2 -1</clus>
<clus scale="   82.050">  5  6 -1 -1</clus>
<clus scale="   93.900">  7  8 -1 -1</clus>
<clus scale="   43.122">  7 10 -1 -1</clus>
<clus scale="  120.816">  2  5  1 -1</clus>
<clus scale="   32.946">  1  5  2 -1</clus>
</clustering>
</event>
<event>
10    4  0.2759992E-005  0.3202090E+03  0.7546771E-02  0.1094795E+00
         -1   -1    0    0    0  501 -0.00000000000E+00  0.00000000000E+00  0.11395305895E+03  0.11395305895E+03  0.00000000000E+00 0.  1.
         21   -1    0    0  501  502  0.00000000000E+00 -0.00000000000E+00 -0.10066313467E+04  0.10066313467E+04  0.00000000000E+00 0.  1.
         24    2    1    2    0    0 -0.17262628248E+03 -0.24367938032E+02 -0.45236896635E+03  0.49167315510E+03  0.81921791506E+02 0.  0.
         23    2    1    2    0    0  0.13921013503E+03  0.62677735298E+02 -0.82168974679E+01  0.17802526689E+03  0.91200427903E+02 0.  0.
        -13    1    3    3    0    0 -0.15789192469E+03 -0.47363639644E+02 -0.39932248717E+03  0.43200882283E+03  0.00000000000E+00 0.  1.
         14    1    3    3    0    0 -0.14734357793E+02  0.22995701612E+02 -0.53046479180E+02  0.59664332273E+02  0.00000000000E+00 0. -1.
        -11    1    4    4    0    0  0.14973430374E+03  0.43948097188E+02 -0.38274660120E+01  0.15609755430E+03  0.00000000000E+00 0.  1.
         11    1    4    4    0    0 -0.10524168710E+02  0.18729638111E+02 -0.43894314559E+01  0.21927712587E+02  0.00000000000E+00 0. -1.
         21    1    1    2  503  502 -0.91015750734E+00  0.32002098852E+02 -0.25849884688E+03  0.26047383085E+03  0.00000000000E+00 0.  1.
         -2    1    1    2    0  503  0.34326304960E+02 -0.70311896118E+02 -0.17359357702E+03  0.19041215279E+03  0.00000000000E+00 0.  1.
<scales pt_clust_5="13000.00000" pt_clust_6="13000.00000" pt_clust_7="13000.00000" pt_clust_8="13000.00000" pt_clust_9="32.01504" pt_clust_10="13000.00000"></scales>
<clustering>
<clus scale="   32.015">  2  9  1 -1</clus>
<clus scale="   81.922">  5  6 -1 -1</clus>
<clus scale="   91.200">  7  8 -1 -1</clus>
<clus scale="   71.214">  7 10 -1 -1</clus>
<clus scale="  191.643">  1  5  2 -1</clus>
<clus scale="   32.015">  2  5  1 -1</clus>
</clustering>
</event>
<event>
10    4  0.2759992E-005  0.4366530E+03  0.7546771E-02  0.1073976E+00
         21   -1    0    0  503  502  0.00000000000E+00  0.00000000000E+00  0.23127202427E+03  0.23127202427E+03  0.00000000000E+00 0.  1.
         -1   -1    0    0    0  501 -0.00000000000E+00 -0.00000000000E+00 -0.91135544729E+03  0.91135544729E+03  0.00000000000E+00 0.  1.
         24    2    1    2    0    0  0.10783433763E+03 -0.23139868574E+01 -0.55287745084E+03  0.56890841201E+03  0.79685046852E+02 0.  0.
         23    2    1    2    0    0 -0.63759058055E+02  0.57419246719E+02 -0.31279510078E+03  0.33713927917E+03  0.91977883832E+02 0.  0.
        -13    1    3    3    0    0  0.81091592670E+02 -0.20159663637E+02 -0.50067430279E+03  0.50759926706E+03  0.00000000000E+00 0.  1.
         14    1    3    3    0    0  0.26742744964E+02  0.17845676780E+02 -0.52203148049E+02  0.61309144948E+02  0.00000000000E+00 0. -1.
        -11    1    4    4    0    0 -0.21748129739E+02  0.33457106049E+02 -0.29192951466E+02  0.49442770024E+02  0.00000000000E+00 0. -1.
         11    1    4    4    0    0 -0.42010928317E+02  0.23962140670E+02 -0.28360214931E+03  0.28769650915E+03  0.00000000000E+00 0.  1.
         21    1    1    2  503  501 -0.50587994604E+02  0.31655539841E+02  0.78189011749E+02  0.98360255993E+02  0.00000000000E+00 0.  1.
         -2    1    1    2    0  502  0.65127150249E+01 -0.86760799703E+02  0.10740011686E+03  0.13821952439E+03  0.00000000000E+00 0.  1.
<scales pt_clust_5="13000.00000" pt_clust_6="13000.00000" pt_clust_7="13000.00000" pt_clust_8="13000.00000" pt_clust_9="59.67594" pt_clust_10="13000.00000"></scales>
<clustering>
<clus scale="   59.676">  1  9  2 -1</clus>
<clus scale="   79.685">  5  6 -1 -1</clus>
<clus scale="   91.978">  7  8 -1 -1</clus>
<clus scale="   70.094">  7 10 -1 -1</clus>
<clus scale="  131.813">  2  5  1 -1</clus>
<clus scale="   59.676">  1  5  2 -1</clus>
</clustering>
</event>
<event>
10    4  0.2759992E-005  0.8817632E+03  0.7546771E-02  0.1001397E+00
         21   -1    0    0  501  502  0.00000000000E+00  0.00000000000E+00  0.14434726411E+03  0.14434726411E+03  0.00000000000E+00 0.  1.
          2   -1    0    0  503    0 -0.00000000000E+00 -0.00000000000E+00 -0.19219352527E+04  0.19219352527E+04  0.00000000000E+00 0. -1.
         24    2    1    2    0    0  0.24094853348E+02 -0.10263062678E+03 -0.22586989949E+03  0.26260439286E+03  0.82645315323E+02 0.  0.
         23    2    1    2    0    0  0.22673481027E+03  0.12648518886E+01 -0.35672983300E+02  0.24726636498E+03  0.91966404055E+02 0.  0.
        -11    1    3    3    0    0  0.49879917174E+02 -0.94602537992E+02 -0.17978098562E+03  0.20918615902E+03  0.00000000000E+00 0.  1.
         12    1    3    3    0    0 -0.25785063825E+02 -0.80280887839E+01 -0.46088913866E+02  0.53418233847E+02  0.00000000000E+00 0. -1.
        -11    1    4    4    0    0  0.45114215036E+02  0.35600769434E+02 -0.23306703325E+02  0.62015398108E+02  0.00000000000E+00 0. -1.
         11    1    4    4    0    0  0.18162059523E+03 -0.34335917546E+02 -0.12366279975E+02  0.18525096687E+03  0.00000000000E+00 0.  1.
         21    1    1    2  503  502  0.35649212372E+02  0.99766569391E+01 -0.67502421512E+02  0.76986862103E+02  0.00000000000E+00 0.  1.
          1    1    1    2  501    0 -0.28647887599E+03  0.91389117948E+02 -0.14485426842E+04  0.14794248968E+04  0.00000000000E+00 0. -1.
<scales pt_clust_5="13000.00000" pt_clust_6="13000.00000" pt_clust_7="13000.00000" pt_clust_8="13000.00000" pt_clust_9="37.01893" pt_clust_10="13000.00000"></scales>
<clustering>
<clus scale="   37.019">  1  9  2 -1</clus>
<clus scale="   82.645">  5  6 -1 -1</clus>
<clus scale="   91.966">  7  8 -1 -1</clus>
<clus scale="  133.881">  2  5  1 -1</clus>
<clus scale="  257.775">  7 10 -1 -1</clus>
<clus scale="   37.019">  1  5  2 -1</clus>
</clustering>
</event>
<event>
10    4  0.2759992E-005  0.4789923E+03  0.7546771E-02  0.1050471E+00
         21   -1    0    0  503  502  0.00000000000E+00  0.00000000000E+00  0.14817874120E+03  0.14817874120E+03  0.00000000000E+00 0.  1.
          2   -1    0    0  502    0 -0.00000000000E+00 -0.00000000000E+00 -0.15103893363E+04  0.15103893363E+04  0.00000000000E+00 0. -1.
         24    2    1    2    0    0  0.21283718551E+01 -0.17768816003E+03 -0.30382778398E+03  0.36157211489E+03  0.82737293701E+02 0.  0.
         23    2    1    2    0    0 -0.12204545112E+03  0.22030513738E+02 -0.82172773008E+02  0.17405733049E+03  0.90350174306E+02 0.  0.
        -13    1    3    3    0    0  0.31510584036E+02 -0.15548523227E+03 -0.25660767385E+03  0.30168870154E+03  0.00000000000E+00 0.  1.
         14    1    3    3    0    0 -0.29382212181E+02 -0.22202927758E+02 -0.47220110127E+02  0.59883413347E+02  0.00000000000E+00 0. -1.
        -13    1    4    4    0    0 -0.54675979381E+02 -0.78031238875E+01 -0.83795812016E+02  0.10035980059E+03  0.00000000000E+00 0. -1.
         13    1    4    4    0    0 -0.67369471743E+02  0.29833637626E+02  0.16230390085E+01  0.73697529894E+02  0.00000000000E+00 0.  1.
         21    1    1    2  503  501  0.89394667696E+02  0.21004403239E+02  0.37994672870E+02  0.99379005501E+02  0.00000000000E+00 0.  1.
          1    1    1    2  501    0  0.30522411573E+02  0.13465324305E+03 -0.10142047110E+04  0.10235596266E+04  0.00000000000E+00 0. -1.
<scales pt_clust_5="13000.00000" pt_clust_6="13000.00000" pt_clust_7="13000.00000" pt_clust_8="13000.00000" pt_clust_9="91.82914" pt_clust_10="13000.00000"></scales>
<clustering>
<clus scale="   82.737">  5  6 -1 -1</clus>
<clus scale="   90.350">  7  8 -1 -1</clus>
<clus scale="   91.829">  1  9  2 -1</clus>
<clus scale="  140.521">  7 10 -1 -1</clus>
<clus scale="  192.257">  2  5  1 -1</clus>
<clus scale="   91.829">  1  5  2 -1</clus>
</clustering>
</event>
<event>
10    4  0.2759992E-005  0.4002890E+03  0.7546771E-02  0.1096886E+00
          2   -1    0    0  502    0 -0.00000000000E+00  0.00000000000E+00  0.13785070942E+04  0.13785070942E+04  0.00000000000E+00 0. -1.
         21   -1    0    0  503  502  0.00000000000E+00 -0.00000000000E+00 -0.12130730733E+03  0.12130730733E+03  0.00000000000E+00 0.  1.
         24    2    1    2    0    0 -0.39808193263E+02 -0.17152601584E+02  0.26660858422E+03  0.28135469251E+03  0.78749106806E+02 0.  0.
         23    2    1    2    0    0  0.15502385418E+03  0.13473009876E+03  0.39678823981E+03  0.45849365338E+03  0.10291223478E+03 0.  0.
        -13    1    3    3    0    0  0.15552920888E+02  0.18069331637E+02  0.83875290565E+02  0.87197812251E+02  0.00000000000E+00 0.  1.
         14    1    3    3    0    0 -0.55361114152E+02 -0.35221933222E+02  0.18273329366E+03  0.19415688026E+03  0.00000000000E+00 0. -1.
        -11    1    4    4    0    0  0.16813521871E+03  0.11221403501E+03  0.36642264921E+03  0.41848177891E+03  0.00000000000E+00 0.  1.
         11    1    4    4    0    0 -0.13111364533E+02  0.22516063750E+02  0.30365590599E+02  0.40011874476E+02  0.00000000000E+00 0. -1.
         21    1    1    2  503  501 -0.32187863665E+02 -0.15648409037E+02 -0.72481168700E+02  0.80835951710E+02  0.00000000000E+00 0.  1.
          1    1    1    2  501    0 -0.83027797248E+02 -0.10192908814E+03  0.66628413154E+03  0.67913010393E+03  0.00000000000E+00 0. -1.
<scales pt_clust_5="13000.00000" pt_clust_6="13000.00000" pt_clust_7="13000.00000" pt_clust_8="13000.00000" pt_clust_9="35.79010" pt_clust_10="13000.00000"></scales>
<clustering>
<clus scale="   35.790">  2  9  1 -1</clus>
<clus scale="   78.749">  5  6 -1 -1</clus>
<clus scale="   92.882">  1  5  2 -1</clus>
<clus scale="  102.912">  7  8 -1 -1</clus>
<clus scale="  166.282">  7 10 -1 -1</clus>
<clus scale="   35.790">  2  5  1 -1</clus>
</clustering>
</event>
<event>
10    4  0.2759992E-005  0.8141955E+03  0.7546771E-02  0.1001033E+00
         21   -1    0    0  503  502  0.00000000000E+00  0.00000000000E+00  0.34293978709E+03  0.34293978709E+03  0.00000000000E+00 0. -1.
          2   -1    0    0  502    0 -0.00000000000E+00 -0.00000000000E+00 -0.16484527280E+04  0.16484527280E+04  0.00000000000E+00 0. -1.
         24    2    1    2    0    0 -0.29420022932E+02 -0.15214161501E+03 -0.88017340755E+03  0.89734847574E+03  0.80724536499E+02 0.  0.
         23    2    1    2    0    0 -0.32489951057E+03  0.30449068889E+02 -0.10628724841E+03  0.35535483730E+03  0.92158794766E+02 0.  0.
        -11    1    3    3    0    0 -0.20291538014E+02 -0.69413187070E+02 -0.21165516492E+03  0.22366905439E+03  0.00000000000E+00 0.  1.
         12    1    3    3    0    0 -0.91284849178E+01 -0.82728427942E+02 -0.66851824263E+03  0.67367942135E+03  0.00000000000E+00 0. -1.
        -11    1    4    4    0    0 -0.24304686195E+03 -0.16821832144E+02 -0.88302179991E+02  0.25913707981E+03  0.00000000000E+00 0. -1.
         11    1    4    4    0    0 -0.81852648616E+02  0.47270901033E+02 -0.17985068420E+02  0.96217757488E+02  0.00000000000E+00 0.  1.
         21    1    1    2  503  501 -0.10000092144E+03  0.10907830187E+03  0.46836973301E+02  0.15521585710E+03  0.00000000000E+00 0. -1.
          1    1    1    2  501    0  0.45432045495E+03  0.12614244257E+02 -0.36588925821E+03  0.58347334491E+03  0.00000000000E+00 0. -1.
<scales pt_clust_5="13000.00000" pt_clust_6="13000.00000" pt_clust_7="13000.00000" pt_clust_8="13000.00000" pt_clust_9="147.98061" pt_clust_10="13000.00000"></scales>
<clustering>
<clus scale="   80.725">  5  6 -1 -1</clus>
<clus scale="   92.159">  7  8 -1 -1</clus>
<clus scale="  147.981">  1  9  2 -1</clus>
<clus scale="  172.010">  2  5  1 -1</clus>
<clus scale="  391.887">  7 10 -1 -1</clus>
<clus scale="  147.981">  1  5  2 -1</clus>
</clustering>
</event>
<event>
10    4  0.2759992E-005  0.3645881E+03  0.7546771E-02  0.1065788E+00
         21   -1    0    0  501  502  0.00000000000E+00  0.00000000000E+00  0.51278673631E+02  0.51278673631E+02  0.00000000000E+00 0. -1.
          2   -1    0    0  503    0 -0.00000000000E+00 -0.00000000000E+00 -0.22425845394E+04  0.22425845394E+04  0.00000000000E+00 0. -1.
         24    2    1    2    0    0 -0.15438707369E+03 -0.20935889295E+03 -0.72780771569E+03  0.77708969543E+03  0.80608989274E+02 0.  0.
         23    2    1    2    0    0  0.55013767619E+02  0.16133973846E+03 -0.45946582852E+03  0.49895067071E+03  0.93733123232E+02 0.  0.
        -11    1    3    3    0    0 -0.63066174897E+02 -0.27914314059E+02 -0.17077256391E+03  0.18417334207E+03  0.00000000000E+00 0.  1.
         12    1    3    3    0    0 -0.91320898792E+02 -0.18144457889E+03 -0.55703515178E+03  0.59291635336E+03  0.00000000000E+00 0. -1.
        -13    1    4    4    0    0  0.14273897223E+02  0.10078232643E+03 -0.36863329496E+03  0.38242819930E+03  0.00000000000E+00 0.  1.
         13    1    4    4    0    0  0.40739870396E+02  0.60557412031E+02 -0.90832533554E+02  0.11652247141E+03  0.00000000000E+00 0. -1.
         21    1    1    2  503  502 -0.17752128271E+02 -0.15862965645E+02 -0.62418317359E+02  0.66804326800E+02  0.00000000000E+00 0. -1.
          1    1    1    2  501    0  0.11712543434E+03  0.63882120142E+02 -0.94161400422E+03  0.95101852011E+03  0.00000000000E+00 0. -1.
<scales pt_clust_5="13000.00000" pt_clust_6="13000.00000" pt_clust_7="13000.00000" pt_clust_8="13000.00000" pt_clust_9="23.80697" pt_clust_10="13000.00000"></scales>
<clustering>
<clus scale="   23.807">  1  9  2 -1</clus>
<clus scale="   80.609">  5  6 -1 -1</clus>
<clus scale="   93.733">  7  8 -1 -1</clus>
<clus scale="  131.194">  7 10 -1 -1</clus>
<clus scale="  283.537">  2  5  1 -1</clus>
<clus scale="   23.807">  1  5  2 -1</clus>
</clustering>
</event>
<event>
10    4  0.2759992E-005  0.6922148E+03  0.7546771E-02  0.1037375E+00
         21   -1    0    0  503  502  0.00000000000E+00  0.00000000000E+00  0.21034379393E+03  0.21034379393E+03  0.00000000000E+00 0. -1.
          2   -1    0    0  502    0 -0.00000000000E+00 -0.00000000000E+00 -0.14465075761E+04  0.14465075761E+04  0.00000000000E+00 0. -1.
         24    2    1    2    0    0 -0.11247898126E+02 -0.31530861569E+02 -0.17316794059E+03  0.19556208948E+03  0.84478901216E+02 0.  0.
         23    2    1    2    0    0  0.17446462876E+03 -0.23595180558E+03 -0.37950535968E+03  0.48770539177E+03  0.87869618674E+02 0.  0.
        -13    1    3    3    0    0 -0.39757251585E+02 -0.24343331958E+02 -0.15290734263E+03  0.15985584848E+03  0.00000000000E+00 0.  1.
         14    1    3    3    0    0  0.28509353459E+02 -0.71875296105E+01 -0.20260597963E+02  0.35706241000E+02  0.00000000000E+00 0. -1.
        -11    1    4    4    0    0  0.14059764174E+03 -0.21194864179E+03 -0.27163160622E+03  0.37212048199E+03  0.00000000000E+00 0. -1.
         11    1    4    4    0    0  0.33866987022E+02 -0.24003163789E+02 -0.10787375346E+03  0.11558490978E+03  0.00000000000E+00 0.  1.
         21    1    1    2  503  501  0.19817874177E+02 -0.59755941542E+02  0.92421143788E+02  0.11182660017E+03  0.00000000000E+00 0. -1.
          1    1    1    2  501    0 -0.18303460481E+03  0.32723860869E+03 -0.77591162564E+03  0.86175728856E+03  0.00000000000E+00 0. -1.
<scales pt_clust_5="13000.00000" pt_clust_6="13000.00000" pt_clust_7="13000.00000" pt_clust_8="13000.00000" pt_clust_9="62.95650" pt_clust_10="13000.00000"></scales>
<clustering>
<clus scale="   62.956">  1  9  2 -1</clus>
<clus scale="   84.479">  5  6 -1 -1</clus>
<clus scale="   87.870">  7  8 -1 -1</clus>
<clus scale="   92.971">  2  5  1 -1</clus>
<clus scale="  334.621">  7 10 -1 -1</clus>
<clus scale="   62.956">  1  5  2 -1</clus>
</clustering>
</event>
<event>
10    4  0.2759992E-005  0.1443768E+03  0.7546771E-02  0.1227345E+00
          2   -1    0    0  503    0 -0.00000000000E+00  0.00000000000E+00  0.77389364480E+03  0.77389364480E+03  0.00000000000E+00 0. -1.
         21   -1    0    0  501  502  0.00000000000E+00 -0.00000000000E+00 -0.62821263059E+02  0.62821263059E+02  0.00000000000E+00 0. -1.
         24    2    1    2    0    0  0.49772105667E+02  0.87854655427E+00  0.63147896457E+03  0.63854061937E+03  0.80563053259E+02 0.  0.
         23    2    1    2    0    0 -0.80534242933E+02 -0.34313076813E+02  0.66829246561E+02  0.14320309524E+03  0.91530469053E+02 0.  0.
        -11    1    3    3    0    0  0.12016226483E+02  0.19829630511E+02  0.45748439921E+02  0.51288631297E+02  0.00000000000E+00 0.  1.
         12    1    3    3    0    0  0.37755879185E+02 -0.18951083956E+02  0.58573052465E+03  0.58725198807E+03  0.00000000000E+00 0. -1.
        -13    1    4    4    0    0 -0.49513813484E+02  0.27371277577E+02  0.39230161643E+02  0.68846279089E+02  0.00000000000E+00 0.  1.
         13    1    4    4    0    0 -0.31020429449E+02 -0.61684354390E+02  0.27599084918E+02  0.74356816150E+02  0.00000000000E+00 0. -1.
         21    1    1    2  503  502  0.98390429404E+01  0.24119414687E+02 -0.43112791905E+01  0.26403409990E+02  0.00000000000E+00 0. -1.
          1    1    1    2  501    0  0.20923094325E+02  0.93151155717E+01  0.17075449803E+02  0.28567783257E+02  0.00000000000E+00 0. -1.
<scales pt_clust_5="13000.00000" pt_clust_6="13000.00000" pt_clust_7="13000.00000" pt_clust_8="13000.00000" pt_clust_9="26.04905" pt_clust_10="13000.00000"></scales>
<clustering>
<clus scale="   26.049">  2  9  1 -1</clus>
<clus scale="   80.563">  5  6 -1 -1</clus>
<clus scale="   91.530">  7  8 -1 -1</clus>
<clus scale="   25.273">  7 10 -1 -1</clus>
<clus scale="   95.122">  1  5  2 -1</clus>
<clus scale="   26.049">  2  5  1 -1</clus>
</clustering>
</event>
<event>
10    4  0.2759992E-005  0.4055117E+03  0.7546771E-02  0.1089122E+00
         -1   -1    0    0    0  501 -0.00000000000E+00  0.00000000000E+00  0.10933743234E+04  0.10933743234E+04  0.00000000000E+00 0.  1.
         21   -1    0    0  503  502  0.00000000000E+00 -0.00000000000E+00 -0.79212225849E+02  0.79212225849E+02  0.00000000000E+00 0.  1.
         24    2    1    2    0    0  0.15895608790E+02 -0.65446610329E+02  0.39110551027E+03  0.40577568659E+03  0.84584032057E+02 0.  0.
         23    2    1    2    0    0  0.12577982116E+01 -0.12115722479E+03  0.44711777021E+03  0.47216264015E+03  0.91337851628E+02 0.  0.
        -11    1    3    3    0    0  0.41407800052E+02 -0.70607075361E+02  0.28472604059E+03  0.29625813607E+03  0.00000000000E+00 0.  1.
         12    1    3    3    0    0 -0.25512191262E+02  0.51604650314E+01  0.10637946968E+03  0.10951755052E+03  0.00000000000E+00 0. -1.
        -13    1    4    4    0    0  0.85110678121E+00 -0.80608198707E+02  0.40776075296E+03  0.41565278506E+03  0.00000000000E+00 0. -1.
         13    1    4    4    0    0  0.40669143043E+00 -0.40549026087E+02  0.39357017252E+02  0.56509855083E+02  0.00000000000E+00 0.  1.
         21    1    1    2  503  501  0.20788512701E+02 -0.17084150197E+02  0.83821237789E+01  0.28183158931E+02  0.00000000000E+00 0.  1.
         -2    1    1    2    0  502 -0.37941919703E+02  0.20368798532E+03  0.16755669325E+03  0.26646506354E+03  0.00000000000E+00 0.  1.
<scales pt_clust_5="13000.00000" pt_clust_6="13000.00000" pt_clust_7="13000.00000" pt_clust_8="13000.00000" pt_clust_9="26.90781" pt_clust_10="13000.00000"></scales>
<clustering>
<clus scale="   26.908">  2  9  1 -1</clus>
<clus scale="   84.584">  5  6 -1 -1</clus>
<clus scale="   91.338">  7  8 -1 -1</clus>
<clus scale="  109.568">  1  5  2 -1</clus>
<clus scale="  172.659">  7 10 -1 -1</clus>
<clus scale="   26.908">  2  5  1 -1</clus>
</clustering>
</event>
<event>
10    4  0.2759992E-005  0.2396270E+03  0.7546771E-02  0.1129005E+00
          2   -1    0    0  503    0 -0.00000000000E+00  0.00000000000E+00  0.41955532459E+03  0.41955532459E+03  0.00000000000E+00 0. -1.
         21   -1    0    0  501  502  0.00000000000E+00 -0.00000000000E+00 -0.26552519845E+03  0.26552519845E+03  0.00000000000E+00 0. -1.
         24    2    1    2    0    0  0.81007126584E+02 -0.15656647429E+03 -0.62716996530E+01  0.19352712411E+03  0.79612801236E+02 0.  0.
         23    2    1    2    0    0  0.70916801569E+02  0.19193577177E+03  0.18998225063E+03  0.29388608726E+03  0.91691021930E+02 0.  0.
        -11    1    3    3    0    0  0.23961045620E+01 -0.72415395648E+02  0.20500030006E+02  0.75299283358E+02  0.00000000000E+00 0.  1.
         12    1    3    3    0    0  0.78611022022E+02 -0.84151078638E+02 -0.26771729659E+02  0.11822784075E+03  0.00000000000E+00 0. -1.
        -13    1    4    4    0    0  0.75172622918E+02  0.78985871921E+02  0.73007294947E+02  0.13122406911E+03  0.00000000000E+00 0.  1.
         13    1    4    4    0    0 -0.42558213489E+01  0.11294989984E+03  0.11697495568E+03  0.16266201814E+03  0.00000000000E+00 0. -1.
         21    1    1    2  503  502 -0.12895764524E+03 -0.27921838539E+02 -0.70981647109E+02  0.14982689198E+03  0.00000000000E+00 0. -1.
          1    1    1    2  501    0 -0.22966282911E+02 -0.74474589396E+01  0.41301222277E+02  0.47840419699E+02  0.00000000000E+00 0. -1.
<scales pt_clust_5="13000.00000" pt_clust_6="13000.00000" pt_clust_7="13000.00000" pt_clust_8="13000.00000" pt_clust_9="131.94583" pt_clust_10="13000.00000"></scales>
<clustering>
<clus scale="   79.613">  5  6 -1 -1</clus>
<clus scale="   91.691">  7  8 -1 -1</clus>
<clus scale="   24.144">  7 10 -1 -1</clus>
<clus scale="  131.946">  2  9  1 -1</clus>
<clus scale="  191.858">  1  5  2 -1</clus>
<clus scale="  131.946">  2  5  1 -1</clus>
</clustering>
</event>
<event>
10    4  0.2759992E-005  0.2127852E+03  0.7546771E-02  0.1174278E+00
          2   -1    0    0  503    0 -0.00000000000E+00  0.00000000000E+00  0.11854160500E+03  0.11854160500E+03  0.00000000000E+00 0. -1.
         21   -1    0    0  501  502  0.00000000000E+00 -0.00000000000E+00 -0.38050686508E+03  0.38050686508E+03  0.00000000000E+00 0. -1.
         24    2    1    2    0    0 -0.17780869930E+02  0.27038518903E+02 -0.21033016106E+03  0.22749229841E+03  0.80415970698E+02 0.  0.
         23    2    1    2    0    0  0.82338828198E+00  0.44224844847E+02  0.43826861996E+02  0.11025540224E+03  0.90988708203E+02 0.  0.
        -11    1    3    3    0    0 -0.39580865225E+02  0.19869652279E+01 -0.50216374025E+02  0.63970908568E+02  0.00000000000E+00 0.  1.
         12    1    3    3    0    0  0.21799995295E+02  0.25051553675E+02 -0.16011378704E+03  0.16352138984E+03  0.00000000000E+00 0. -1.
        -13    1    4    4    0    0  0.38028809875E+02  0.30476741955E+02 -0.30740610185E+01  0.48831056018E+02  0.00000000000E+00 0.  1.
         13    1    4    4    0    0 -0.37205421593E+02  0.13748102892E+02  0.46900923015E+02  0.61424346221E+02  0.00000000000E+00 0. -1.
         21    1    1    2  503  502 -0.18852087752E+02  0.16302324108E+02 -0.51009775976E+02  0.56772918095E+02  0.00000000000E+00 0. -1.
          1    1    1    2  501    0  0.35809569400E+02 -0.87565687858E+02 -0.44452185035E+02  0.10452785134E+03  0.00000000000E+00 0. -1.
<scales pt_clust_5="13000.00000" pt_clust_6="13000.00000" pt_clust_7="13000.00000" pt_clust_8="13000.00000" pt_clust_9="24.92322" pt_clust_10="13000.00000"></scales>
<clustering>
<clus scale="   24.923">  2  9  1 -1</clus>
<clus scale="   80.416">  5  6 -1 -1</clus>
<clus scale="   90.989">  7  8 -1 -1</clus>
<clus scale="   89.573">  7 10 -1 -1</clus>
<clus scale="   93.985">  1  5  2 -1</clus>
<clus scale="   24.923">  2  5  1 -1</clus>
</clustering>
</event>
<event>
10    4  0.2759992E-005  0.1293836E+03  0.7546771E-02  0.1247050E+00
          2   -1    0    0  502    0 -0.00000000000E+00  0.00000000000E+00  0.72029355873E+03  0.72029355873E+03  0.00000000000E+00 0. -1.
         21   -1    0    0  503  502  0.00000000000E+00 -0.00000000000E+00 -0.55585956329E+02  0.55585956329E+02  0.00000000000E+00 0. -1.
         24    2    1    2    0    0  0.98075089410E+01  0.14927979731E+02  0.26733896177E+03  0.27993071467E+03  0.81068197972E+02 0.  0.
         23    2    1    2    0    0 -0.70512873105E+02 -0.10530988272E+01  0.30377323787E+03  0.32367859089E+03  0.86697611637E+02 0.  0.
        -13    1    3    3    0    0 -0.61146126034E+01 -0.32430748621E+02  0.10177348468E+03  0.10699057962E+03  0.00000000000E+00 0.  1.
         14    1    3    3    0    0  0.15922121544E+02  0.47358728353E+02  0.16556547709E+03  0.17294013505E+03  0.00000000000E+00 0. -1.
        -13    1    4    4    0    0 -0.72739920443E+02 -0.32405430195E+02  0.20073997120E+03  0.21595773654E+03  0.00000000000E+00 0. -1.
         13    1    4    4    0    0  0.22270473385E+01  0.31352331368E+02  0.10303326667E+03  0.10772085435E+03  0.00000000000E+00 0.  1.
         21    1    1    2  503  501  0.54976113622E+02  0.17209908254E+02 -0.14702822857E+02  0.59453570213E+02  0.00000000000E+00 0. -1.
          1    1    1    2  501    0  0.57292505418E+01 -0.31084789158E+02  0.10829822561E+03  0.11281663928E+03  0.00000000000E+00 0. -1.
<scales pt_clust_5="13000.00000" pt_clust_6="13000.00000" pt_clust_7="13000.00000" pt_clust_8="13000.00000" pt_clust_9="57.60689" pt_clust_10="13000.00000"></scales>
<clustering>
<clus scale="   57.607">  2  9  1 -1</clus>
<clus scale="   81.068">  5  6 -1 -1</clus>
<clus scale="   86.698">  7  8 -1 -1</clus>
<clus scale="   31.541">  7 10 -1 -1</clus>
<clus scale="   88.412">  1  5  2 -1</clus>
<clus scale="   57.607">  2  5  1 -1</clus>
</clustering>
</event>
<event>
10    4  0.2759992E-005  0.1808923E+03  0.7546771E-02  0.1189387E+00
         21   -1    0    0  501  502  0.00000000000E+00  0.00000000000E+00  0.56467288982E+02  0.56467288982E+02  0.00000000000E+00 0. -1.
          2   -1    0    0  503    0 -0.00000000000E+00 -0.00000000000E+00 -0.13662951918E+04  0.13662951918E+04  0.00000000000E+00 0. -1.
         24    2    1    2    0    0  0.57558592356E+02  0.49274328756E+02 -0.17987303180E+03  0.21105095186E+03  0.80294742587E+02 0.  0.
         23    2    1    2    0    0 -0.27042605273E+02  0.54152337337E+01 -0.53989525555E+03  0.54876252893E+03  0.94301638072E+02 0.  0.
        -13    1    3    3    0    0  0.62634881880E+02  0.44139248682E+02 -0.18626336283E+03  0.20140864439E+03  0.00000000000E+00 0.  1.
         14    1    3    3    0    0 -0.50762895242E+01  0.51350800738E+01  0.63903310343E+01  0.96423074741E+01  0.00000000000E+00 0. -1.
        -11    1    4    4    0    0 -0.36027587679E+02 -0.38712495976E+02 -0.31402108634E+03  0.31844291024E+03  0.00000000000E+00 0.  1.
         11    1    4    4    0    0  0.89849824060E+01  0.44127729710E+02 -0.22587416921E+03  0.23031961869E+03  0.00000000000E+00 0. -1.
         21    1    1    2  503  502 -0.41752851566E+02  0.27150405048E+02  0.15204820230E+02  0.52073329704E+02  0.00000000000E+00 0. -1.
          1    1    1    2  501    0  0.11236864483E+02 -0.81839967538E+02 -0.60526443571E+03  0.61087567028E+03  0.00000000000E+00 0. -1.
<scales pt_clust_5="13000.00000" pt_clust_6="13000.00000" pt_clust_7="13000.00000" pt_clust_8="13000.00000" pt_clust_9="49.80407" pt_clust_10="13000.00000"></scales>
<clustering>
<clus scale="   49.804">  1  9  2 -1</clus>
<clus scale="   80.295">  5  6 -1 -1</clus>
<clus scale="   94.302">  7  8 -1 -1</clus>
<clus scale="   78.740">  7 10 -1 -1</clus>
<clus scale="  109.040">  2  5  1 -1</clus>
<clus scale="   49.804">  1  5  2 -1</clus>
</clustering>
</event>
<event>
10    4  0.2759992E-005  0.1153391E+04  0.7546771E-02  0.9377428E-01
          2   -1    0    0  502    0 -0.00000000000E+00  0.00000000000E+00  0.16520952831E+04  0.16520952831E+04  0.00000000000E+00 0. -1.
         21   -1    0    0  503  502  0.00000000000E+00 -0.00000000000E+00 -0.57906703199E+03  0.57906703199E+03  0.00000000000E+00 0. -1.
         24    2    1    2    0    0  0.29163875482E+03  0.41544233815E+03  0.84745678052E+03  0.99103775325E+03  0.79544540202E+02 0.  0.
         23    2    1    2    0    0 -0.12735759121E+03  0.25370634178E+03  0.40655401972E+03  0.50445255695E+03  0.92732666149E+02 0.  0.
        -13    1    3    3    0    0  0.26587113373E+02  0.91145841597E+02  0.15848094624E+03  0.18474482228E+03  0.00000000000E+00 0.  1.
         14    1    3    3    0    0  0.26505164145E+03  0.32429649655E+03  0.68897583428E+03  0.80629293097E+03  0.00000000000E+00 0. -1.
        -13    1    4    4    0    0 -0.38601714635E+02  0.12533522076E+03  0.25583186938E+03  0.28748731333E+03  0.00000000000E+00 0. -1.
         13    1    4    4    0    0 -0.88755876572E+02  0.12837112102E+03  0.15072215034E+03  0.21696524363E+03  0.00000000000E+00 0.  1.
         21    1    1    2  503  501 -0.35336229884E+02 -0.27731612274E+02 -0.52203450451E+02  0.68868655430E+02  0.00000000000E+00 0.  1.
          1    1    1    2  501    0 -0.12894493373E+03 -0.64141706766E+03 -0.12877909867E+03  0.66680334947E+03  0.00000000000E+00 0. -1.
<scales pt_clust_5="13000.00000" pt_clust_6="13000.00000" pt_clust_7="13000.00000" pt_clust_8="13000.00000" pt_clust_9="44.91872" pt_clust_10="13000.00000"></scales>
<clustering>
<clus scale="   44.919">  2  9  1 -1</clus>
<clus scale="   79.545">  5  6 -1 -1</clus>
<clus scale="   92.733">  7  8 -1 -1</clus>
<clus scale="  507.905">  1  5  2 -1</clus>
<clus scale="  502.742">  7 10 -1 -1</clus>
<clus scale="   44.919">  2  5  1 -1</clus>
</clustering>
</event>
<event>
10    4  0.2759992E-005  0.4099282E+03  0.7546771E-02  0.1060559E+00
         21   -1    0    0  501  502  0.00000000000E+00  0.00000000000E+00  0.71876691761E+02  0.71876691761E+02  0.00000000000E+00 0.  1.
          2   -1    0    0  503    0 -0.00000000000E+00 -0.00000000000E+00 -0.18032734126E+04  0.18032734126E+04  0.00000000000E+00 0. -1.
         24    2    1    2    0    0  0.15705876755E+03  0.13413049042E+03 -0.35147821207E+03  0.41564481926E+03  0.81026151909E+02 0.  0.
         23    2    1    2    0    0 -0.12974243031E+03  0.51065662444E+02 -0.32350892133E+03  0.36444742775E+03  0.93397565876E+02 0.  0.
        -11    1    3    3    0    0  0.94085816566E+02  0.54275914508E+02 -0.11479348391E+03  0.15803657717E+03  0.00000000000E+00 0.  1.
         12    1    3    3    0    0  0.62972950980E+02  0.79854575917E+02 -0.23668472816E+03  0.25760824209E+03  0.00000000000E+00 0. -1.
        -11    1    4    4    0    0 -0.50006081950E+02 -0.22290280042E+02 -0.70860358695E+02  0.89546944397E+02  0.00000000000E+00 0. -1.
         11    1    4    4    0    0 -0.79736348358E+02  0.73355942485E+02 -0.25264856263E+03  0.27490048335E+03  0.00000000000E+00 0.  1.
         21    1    1    2  503  502  0.80969681198E+01  0.18843152615E+02 -0.21160767124E+01  0.20618027885E+02  0.00000000000E+00 0.  1.
          1    1    1    2  501    0 -0.35413305358E+02 -0.20403930548E+03 -0.10542935108E+04  0.10744398295E+04  0.00000000000E+00 0. -1.
<scales pt_clust_5="13000.00000" pt_clust_6="13000.00000" pt_clust_7="13000.00000" pt_clust_8="13000.00000" pt_clust_9="20.50915" pt_clust_10="13000.00000"></scales>
<clustering>
<clus scale="   20.509">  1  9  2 -1</clus>
<clus scale="   81.026">  5  6 -1 -1</clus>
<clus scale="   93.398">  7  8 -1 -1</clus>
<clus scale="  203.882">  7 10 -1 -1</clus>
<clus scale="  230.709">  2  5  1 -1</clus>
<clus scale="   20.509">  1  5  2 -1</clus>
</clustering>
</event>
<event>
10    4  0.2759992E-005  0.7673856E+03  0.7546771E-02  0.9894986E-01
         21   -1    0    0  501  502  0.00000000000E+00  0.00000000000E+00  0.22311113097E+03  0.22311113097E+03  0.00000000000E+00 0. -1.
          2   -1    0    0  503    0 -0.00000000000E+00 -0.00000000000E+00 -0.39549503713E+04  0.39549503713E+04  0.00000000000E+00 0. -1.
         24    2    1    2    0    0 -0.39083249851E+03  0.96363403578E+01 -0.15314114656E+04  0.15825774087E+04  0.80543632004E+02 0.  0.
         23    2    1    2    0    0 -0.24833426734E+03 -0.60877173860E+02 -0.33686359802E+03  0.43260234958E+03  0.91059159664E+02 0.  0.
        -13    1    3    3    0    0 -0.15336263448E+03 -0.24058579159E+02 -0.71527437992E+03  0.73192646588E+03  0.00000000000E+00 0.  1.
         14    1    3    3    0    0 -0.23746986403E+03  0.33694919517E+02 -0.81613708570E+03  0.85065094285E+03  0.00000000000E+00 0. -1.
        -11    1    4    4    0    0 -0.51393545975E+02 -0.13340894702E+02 -0.14158856364E+03  0.15121705391E+03  0.00000000000E+00 0.  1.
         11    1    4    4    0    0 -0.19694072137E+03 -0.47536279158E+02 -0.19527503438E+03  0.28138529568E+03  0.00000000000E+00 0. -1.
         21    1    1    2  503  502  0.35408054620E+03  0.58797082436E+02 -0.94749796563E+02  0.37122453320E+03  0.00000000000E+00 0. -1.
          1    1    1    2  501    0  0.28508621965E+03 -0.75562489343E+01 -0.17688143801E+04  0.17916572108E+04  0.00000000000E+00 0. -1.
<scales pt_clust_5="13000.00000" pt_clust_6="13000.00000" pt_clust_7="13000.00000" pt_clust_8="13000.00000" pt_clust_9="358.92914" pt_clust_10="13000.00000"></scales>
<clustering>
<clus scale="   80.544">  5  6 -1 -1</clus>
<clus scale="   91.059">  7  8 -1 -1</clus>
<clus scale="  285.186">  7 10 -1 -1</clus>
<clus scale="  358.929">  1  9  2 -1</clus>
<clus scale="  296.565">  2  5  1 -1</clus>
<clus scale="  358.929">  1  5  2 -1</clus>
</clustering>
</event>
<event>
10    4  0.2759992E-005  0.4601812E+03  0.7546771E-02  0.1063428E+00
          2   -1    0    0  502    0 -0.00000000000E+00  0.00000000000E+00  0.73917472003E+03  0.73917472003E+03  0.00000000000E+00 0. -1.
         21   -1    0    0  503  502  0.00000000000E+00 -0.00000000000E+00 -0.16768956209E+03  0.16768956209E+03  0.00000000000E+00 0. -1.
         24    2    1    2    0    0 -0.13327864661E+03  0.26855043238E+01 -0.55303145429E+01  0.15520259728E+03  0.79289673024E+02 0.  0.
         23    2    1    2    0    0 -0.10560407117E+03 -0.47042240687E+02  0.44878418400E+03  0.47032325981E+03  0.80196836933E+02 0.  0.
        -11    1    3    3    0    0 -0.43807717805E+01 -0.20128737477E+02  0.10846259831E+02  0.23280863088E+02  0.00000000000E+00 0.  1.
         12    1    3    3    0    0 -0.12889787482E+03  0.22814241801E+02 -0.16376574374E+02  0.13192173419E+03  0.00000000000E+00 0. -1.
        -13    1    4    4    0    0 -0.58419839417E+02 -0.19829951570E+02  0.36642123547E+03  0.37157856023E+03  0.00000000000E+00 0. -1.
         13    1    4    4    0    0 -0.47184231758E+02 -0.27212289117E+02  0.82362948527E+02  0.98744699582E+02  0.00000000000E+00 0.  1.
         21    1    1    2  503  501  0.11761369396E+02  0.17899072980E+02  0.15247050681E+02  0.26290286763E+02  0.00000000000E+00 0. -1.
          1    1    1    2  501    0  0.22712134838E+03  0.26457663383E+02  0.11298423780E+03  0.25504813827E+03  0.00000000000E+00 0. -1.
<scales pt_clust_5="13000.00000" pt_clust_6="13000.00000" pt_clust_7="13000.00000" pt_clust_8="13000.00000" pt_clust_9="21.41744" pt_clust_10="13000.00000"></scales>
<clustering>
<clus scale="   21.417">  2  9  1 -1</clus>
<clus scale="   79.290">  5  6 -1 -1</clus>
<clus scale="   80.197">  7  8 -1 -1</clus>
<clus scale="  150.545">  1  5  2 -1</clus>
<clus scale="  197.010">  7 10 -1 -1</clus>
<clus scale="   21.417">  2  5  1 -1</clus>
</clustering>
</event>
<event>
10    4  0.2759992E-005  0.4443314E+03  0.7546771E-02  0.1031553E+00
         21   -1    0    0  501  502  0.00000000000E+00  0.00000000000E+00  0.12495128593E+04  0.12495128593E+04  0.00000000000E+00 0. -1.
          2   -1    0    0  503    0 -0.00000000000E+00 -0.00000000000E+00 -0.15713656931E+03  0.15713656931E+03  0.00000000000E+00 0. -1.
         24    2    1    2    0    0 -0.39322584967E+03 -0.68593256510E+02  0.57957228175E+03  0.70811639850E+03  0.78696889130E+02 0.  0.
         23    2    1    2    0    0  0.17092279239E+03  0.19810160863E+02  0.27695810995E+03  0.34038129244E+03  0.97706633043E+02 0.  0.
        -13    1    3    3    0    0 -0.39087545215E+02  0.14312076796E+02  0.79835486157E+02  0.90035418492E+02  0.00000000000E+00 0.  1.
         14    1    3    3    0    0 -0.35413830446E+03 -0.82905333306E+02  0.49973679559E+03  0.61808098000E+03  0.00000000000E+00 0. -1.
        -11    1    4    4    0    0  0.68880607156E+02 -0.13338505463E+02  0.41212967252E+02  0.81369296666E+02  0.00000000000E+00 0.  1.
         11    1    4    4    0    0  0.10204218524E+03  0.33148666326E+02  0.23574514270E+03  0.25901199577E+03  0.00000000000E+00 0. -1.
         21    1    1    2  503  502 -0.18396666616E+02 -0.10581298354E+02  0.24172246288E+02  0.32166732940E+02  0.00000000000E+00 0.  1.
          1    1    1    2  501    0  0.24069972390E+03  0.59364394000E+02  0.21167365200E+03  0.32598500473E+03  0.00000000000E+00 0. -1.
<scales pt_clust_5="13000.00000" pt_clust_6="13000.00000" pt_clust_7="13000.00000" pt_clust_8="13000.00000" pt_clust_9="21.22267" pt_clust_10="13000.00000"></scales>
<clustering>
<clus scale="   21.223">  1  9  2 -1</clus>
<clus scale="   78.697">  5  6 -1 -1</clus>
<clus scale="   97.707">  7  8 -1 -1</clus>
<clus scale="  243.427">  7 10 -1 -1</clus>
<clus scale="  417.184">  2  5  1 -1</clus>
<clus scale="   21.223">  1  5  2 -1</clus>
</clustering>
</event>
<event>
10    4  0.3452778E-005  0.6308658E+03  0.7546771E-02  0.1003787E+00
          2   -1    0    0  503    0 -0.00000000000E+00  0.00000000000E+00  0.34634193200E+04  0.34634193200E+04  0.00000000000E+00 0. -1.
         21   -1    0    0  501  502  0.00000000000E+00 -0.00000000000E+00 -0.77234080512E+02  0.77234080512E+02  0.00000000000E+00 0.  1.
         24    2    1    2    0    0  0.30732637677E+03  0.14904841643E+03  0.12094550850E+04  0.12590593183E+04  0.76051508376E+02 0.  0.
         23    2    1    2    0    0  0.42491400527E+02  0.14458124227E+03  0.36288222348E+03  0.40400930577E+03  0.93972103786E+02 0.  0.
        -11    1    3    3    0    0  0.73822607534E+02  0.24788240658E+02  0.17916041182E+03  0.19535272566E+03  0.00000000000E+00 0.  1.
         12    1    3    3    0    0  0.23350376924E+03  0.12426017577E+03  0.10302946732E+04  0.10637065926E+04  0.00000000000E+00 0. -1.
        -11    1    4    4    0    0  0.17620126920E+02  0.12390820575E+03  0.18594829129E+03  0.22414388093E+03  0.00000000000E+00 0.  1.
         11    1    4    4    0    0  0.24871273607E+02  0.20673036521E+02  0.17693393219E+03  0.17986542483E+03  0.00000000000E+00 0. -1.
         21    1    1    2  503  502 -0.10128876955E+02 -0.52925979733E+02  0.96828158104E+02  0.11081266029E+03  0.00000000000E+00 0. -1.
          1    1    1    2  501    0 -0.33968890034E+03 -0.24070367897E+03  0.17170197729E+04  0.17667721162E+04  0.00000000000E+00 0. -1.
<scales pt_clust_5="13000.00000" pt_clust_6="13000.00000" pt_clust_7="13000.00000" pt_clust_8="13000.00000" pt_clust_9="53.88649" pt_clust_10="13000.00000"></scales>
<clustering>
<clus scale="   53.886">  2  9  1 -1</clus>
<clus scale="   76.052">  5  6 -1 -1</clus>
<clus scale="   93.972">  7  8 -1 -1</clus>
<clus scale="  339.178">  1  5  2 -1</clus>
<clus scale="  175.962">  7 10 -1 -1</clus>
<clus scale="   53.886">  2  5  1 -1</clus>
</clustering>
</event>
<event>
10    4  0.2759992E-005  0.1651700E+03  0.7546771E-02  0.1193327E+00
         21   -1    0    0  501  502  0.00000000000E+00  0.00000000000E+00  0.21998471937E+02  0.21998471937E+02  0.00000000000E+00 0. -1.
          2   -1    0    0  503    0 -0.00000000000E+00 -0.00000000000E+00 -0.16337271201E+04  0.16337271201E+04  0.00000000000E+00 0. -1.
         24    2    1    2    0    0  0.83866842640E+02  0.21048275126E+02 -0.95323620048E+03  0.96148873668E+03  0.91239573042E+02 0.  0.
         23    2    1    2    0    0 -0.53089558347E+02 -0.11701126501E+02 -0.26428030534E+03  0.28472857977E+03  0.90944305907E+02 0.  0.
        -13    1    3    3    0    0  0.16017267328E+02 -0.18283164530E+02 -0.58870721029E+02  0.63691355398E+02  0.00000000000E+00 0.  1.
         14    1    3    3    0    0  0.67849575312E+02  0.39331439656E+02 -0.89436547945E+03  0.89779738129E+03  0.00000000000E+00 0. -1.
        -11    1    4    4    0    0 -0.35171827908E+02  0.32298471113E+02 -0.19474203389E+03  0.20051111809E+03  0.00000000000E+00 0. -1.
         11    1    4    4    0    0 -0.17917730439E+02 -0.43999597614E+02 -0.69538271449E+02  0.84217461672E+02  0.00000000000E+00 0.  1.
         21    1    1    2  503  502  0.33846921390E+02  0.51398674476E+01 -0.62623092192E+02  0.71370049745E+02  0.00000000000E+00 0. -1.
          1    1    1    2  501    0 -0.64624205683E+02 -0.14487016072E+02 -0.33158905017E+03  0.33813822586E+03  0.00000000000E+00 0. -1.
<scales pt_clust_5="13000.00000" pt_clust_6="13000.00000" pt_clust_7="13000.00000" pt_clust_8="13000.00000" pt_clust_9="34.23496" pt_clust_10="13000.00000"></scales>
<clustering>
<clus scale="   34.235">  1  9  2 -1</clus>
<clus scale="   90.944">  7  8 -1 -1</clus>
<clus scale="   59.885">  7 10 -1 -1</clus>
<clus scale="   91.240">  5  6 -1 -1</clus>
<clus scale="  131.322">  2  5  1 -1</clus>
<clus scale="   34.235">  1  5  2 -1</clus>
</clustering>
</event>
<event>
10    4  0.2759992E-005  0.3838573E+03  0.7546771E-02  0.1093131E+00
         21   -1    0    0  501  502  0.00000000000E+00  0.00000000000E+00  0.56755783403E+03  0.56755783403E+03  0.00000000000E+00 0.  1.
          2   -1    0    0  503    0 -0.00000000000E+00 -0.00000000000E+00 -0.19675156503E+03  0.19675156503E+03  0.00000000000E+00 0. -1.
         24    2    1    2    0    0  0.35059689459E+02  0.76928993082E+02 -0.89273008434E+02  0.14692388747E+03  0.80434488078E+02 0.  0.
         23    2    1    2    0    0 -0.97143625214E+02  0.10798934453E+03  0.15536061066E+03  0.23210242117E+03  0.92930254051E+02 0.  0.
        -11    1    3    3    0    0  0.53480737020E+02  0.23347503229E+02 -0.32866592308E+02  0.66973935446E+02  0.00000000000E+00 0.  1.
         12    1    3    3    0    0 -0.18421047561E+02  0.53581489853E+02 -0.56406416126E+02  0.79949952022E+02  0.00000000000E+00 0. -1.
        -13    1    4    4    0    0 -0.64460452445E+02  0.72602056613E+02  0.15621069818E+03  0.18392387224E+03  0.00000000000E+00 0.  1.
         13    1    4    4    0    0 -0.32683172769E+02  0.35387287915E+02 -0.85008752251E+00  0.48178548930E+02  0.00000000000E+00 0. -1.
         21    1    1    2  503  502 -0.28736719098E+02 -0.69791312122E+00  0.23988389940E+02  0.37439670927E+02  0.00000000000E+00 0.  1.
          1    1    1    2  501    0  0.90820654852E+02 -0.18422042449E+03  0.28073027684E+03  0.34784341949E+03  0.00000000000E+00 0. -1.
<scales pt_clust_5="13000.00000" pt_clust_6="13000.00000" pt_clust_7="13000.00000" pt_clust_8="13000.00000" pt_clust_9="28.74519" pt_clust_10="13000.00000"></scales>
<clustering>
<clus scale="   28.745">  1  9  2 -1</clus>
<clus scale="   80.434">  5  6 -1 -1</clus>
<clus scale="   92.930">  7  8 -1 -1</clus>
<clus scale="  116.213">  2  5  1 -1</clus>
<clus scale="  174.944">  7 10 -1 -1</clus>
<clus scale="   28.745">  1  5  2 -1</clus>
</clustering>
</event>
<event>
10    4  0.2759992E-005  0.5106291E+03  0.7546771E-02  0.1030510E+00
          2   -1    0    0  503    0 -0.00000000000E+00  0.00000000000E+00  0.71169644928E+03  0.71169644928E+03  0.00000000000E+00 0. -1.
         21   -1    0    0  501  502  0.00000000000E+00 -0.00000000000E+00 -0.31008014036E+03  0.31008014036E+03  0.00000000000E+00 0. -1.
         24    2    1    2    0    0  0.21908076039E+03 -0.15230303579E+03  0.25508875005E+03  0.37756283547E+03  0.79314752982E+02 0.  0.
         23    2    1    2    0    0  0.69716065489E+02  0.11688922246E+02  0.18860089892E+03  0.22342237745E+03  0.96696944003E+02 0.  0.
        -11    1    3    3    0    0  0.40049267238E+02 -0.15270947863E+02  0.89714787811E+01  0.43790787689E+02  0.00000000000E+00 0.  1.
         12    1    3    3    0    0  0.17903149316E+03 -0.13703208792E+03  0.24611727126E+03  0.33377204778E+03  0.00000000000E+00 0. -1.
        -11    1    4    4    0    0  0.41514203014E+02  0.43404246441E+02  0.16334093670E+03  0.17403338548E+03  0.00000000000E+00 0.  1.
         11    1    4    4    0    0  0.28201862475E+02 -0.31715324195E+02  0.25259962225E+02  0.49388991967E+02  0.00000000000E+00 0. -1.
         21    1    1    2  503  502  0.84201696568E+01 -0.23292888761E+02 -0.75761455782E+02  0.79707315261E+02  0.00000000000E+00 0. -1.
          1    1    1    2  501    0 -0.29721699554E+03  0.16390700230E+03  0.33688115733E+02  0.34108406146E+03  0.00000000000E+00 0. -1.
<scales pt_clust_5="13000.00000" pt_clust_6="13000.00000" pt_clust_7="13000.00000" pt_clust_8="13000.00000" pt_clust_9="24.76808" pt_clust_10="13000.00000"></scales>
<clustering>
<clus scale="   24.768">  2  9  1 -1</clus>
<clus scale="   79.315">  5  6 -1 -1</clus>
<clus scale="   96.697">  7  8 -1 -1</clus>
<clus scale="  283.493">  1  5  2 -1</clus>
<clus scale="  205.025">  7 10 -1 -1</clus>
<clus scale="   24.768">  2  5  1 -1</clus>
</clustering>
</event>
<event>
10    4  0.2759992E-005  0.1691673E+03  0.7546771E-02  0.1205525E+00
         -3   -1    0    0    0  501 -0.00000000000E+00  0.00000000000E+00  0.21865569014E+03  0.21865569014E+03  0.00000000000E+00 0.  1.
         21   -1    0    0  503  502  0.00000000000E+00 -0.00000000000E+00 -0.15561164970E+03  0.15561164970E+03  0.00000000000E+00 0.  1.
         24    2    1    2    0    0  0.43269204832E+02  0.82059278760E+01  0.62028583089E+02  0.11007490719E+03  0.79557392698E+02 0.  0.
         23    2    1    2    0    0 -0.96123103581E+02  0.10505976922E+02  0.33338436214E+02  0.13813785321E+03  0.92847124709E+02 0.  0.
        -13    1    3    3    0    0 -0.39475723466E+01  0.33472358649E+02  0.39638468938E+02  0.52030667310E+02  0.00000000000E+00 0.  1.
         14    1    3    3    0    0  0.47216777178E+02 -0.25266430773E+02  0.22390114151E+02  0.58044239876E+02  0.00000000000E+00 0. -1.
        -13    1    4    4    0    0 -0.26587940162E+02  0.46982630106E+02  0.23944268237E+02  0.59056024884E+02  0.00000000000E+00 0. -1.
         13    1    4    4    0    0 -0.69535163418E+02 -0.36476653183E+02  0.93941679766E+01  0.79081828324E+02  0.00000000000E+00 0.  1.
         21    1    1    2  503  501  0.21110772140E+02 -0.14123607894E+02 -0.71235201056E+02  0.75628003211E+02  0.00000000000E+00 0. -1.
         -4    1    1    2    0  502  0.31743126610E+02 -0.45882969041E+01  0.38912222195E+02  0.50426576243E+02  0.00000000000E+00 0.  1.
<scales pt_clust_5="13000.00000" pt_clust_6="13000.00000" pt_clust_7="13000.00000" pt_clust_8="13000.00000" pt_clust_9="25.39963" pt_clust_10="13000.00000"></scales>
<clustering>
<clus scale="   25.400">  2  9  1 -1</clus>
<clus scale="   79.557">  5  6 -1 -1</clus>
<clus scale="   92.847">  7  8 -1 -1</clus>
<clus scale="   33.687">  7 10 -1 -1</clus>
<clus scale="   93.757">  1  5  2 -1</clus>
<clus scale="   25.400">  2  5  1 -1</clus>
</clustering>
</event>
<event>
10    4  0.2759992E-005  0.3018045E+03  0.7546771E-02  0.1108346E+00
         -1   -1    0    0    0  501 -0.00000000000E+00  0.00000000000E+00  0.44979475400E+03  0.44979475400E+03  0.00000000000E+00 0.  1.
         21   -1    0    0  501  502  0.00000000000E+00 -0.00000000000E+00 -0.41872785424E+03  0.41872785424E+03  0.00000000000E+00 0.  1.
         24    2    1    2    0    0  0.15246010156E+03 -0.75773014562E+02  0.42971969599E+02  0.19333030837E+03  0.80897377323E+02 0.  0.
         23    2    1    2    0    0  0.59197214536E+02  0.93983439905E+02  0.17945948690E+03  0.22971795643E+03  0.90705208682E+02 0.  0.
        -13    1    3    3    0    0  0.13971840889E+03 -0.33429972433E+02  0.26164969133E+02  0.14602534865E+03  0.00000000000E+00 0.  1.
         14    1    3    3    0    0  0.12741692674E+02 -0.42343042130E+02  0.16807000467E+02  0.47304959715E+02  0.00000000000E+00 0. -1.
        -11    1    4    4    0    0  0.56443486996E+01  0.87994961075E+02  0.95766248871E+02  0.13017736466E+03  0.00000000000E+00 0.  1.
         11    1    4    4    0    0  0.53552865836E+02  0.59884788302E+01  0.83693238031E+02  0.99540591771E+02  0.00000000000E+00 0. -1.
         21    1    1    2  503  502 -0.71972641978E+02 -0.86352068235E+01 -0.27363925857E+03  0.28307785470E+03  0.00000000000E+00 0.  1.
         -2    1    1    2    0  503 -0.13968467412E+03 -0.95752185193E+01  0.82274701834E+02  0.16239648874E+03  0.00000000000E+00 0.  1.
<scales pt_clust_5="13000.00000" pt_clust_6="13000.00000" pt_clust_7="13000.00000" pt_clust_8="13000.00000" pt_clust_9="72.48881" pt_clust_10="13000.00000"></scales>
<clustering>
<clus scale="   72.489">  2  9  1 -1</clus>
<clus scale="   80.897">  5  6 -1 -1</clus>
<clus scale="   90.705">  7  8 -1 -1</clus>
<clus scale="  160.677">  7 10 -1 -1</clus>
<clus scale="  161.197">  1  5  2 -1</clus>
<clus scale="   72.489">  2  5  1 -1</clus>
</clustering>
</event>
<event>
10    4  0.2759992E-005  0.1757396E+03  0.7546771E-02  0.1185097E+00
         21   -1    0    0  503  502  0.00000000000E+00  0.00000000000E+00  0.51549952603E+03  0.51549952603E+03  0.00000000000E+00 0. -1.
          2   -1    0    0  502    0 -0.00000000000E+00 -0.00000000000E+00 -0.15105207163E+03  0.15105207163E+03  0.00000000000E+00 0. -1.
         24    2    1    2    0    0  0.90171035828E+02 -0.68270403528E+02  0.29720400067E+02  0.15168630301E+03  0.96611431215E+02 0.  0.
         23    2    1    2    0    0 -0.25295824434E+02  0.17372585486E+02 -0.40613239995E+02  0.10162461646E+03  0.87957046042E+02 0.  0.
        -13    1    3    3    0    0  0.76068560595E+02  0.20587604005E+00  0.92330305710E+00  0.76074442386E+02  0.00000000000E+00 0.  1.
         14    1    3    3    0    0  0.14102475234E+02 -0.68476279569E+02  0.28797097010E+02  0.75611860627E+02  0.00000000000E+00 0. -1.
        -11    1    4    4    0    0  0.28484233017E+02  0.18684508682E+02  0.25340903805E+00  0.34066502776E+02  0.00000000000E+00 0. -1.
         11    1    4    4    0    0 -0.53780057452E+02 -0.13119231959E+01 -0.40866649033E+02  0.67558113688E+02  0.00000000000E+00 0.  1.
         21    1    1    2  503  501 -0.72619581817E+02 -0.51111595892E+01  0.33736378112E+03  0.34512903156E+03  0.00000000000E+00 0. -1.
          1    1    1    2  501    0  0.77443704224E+01  0.56008977632E+02  0.37976513208E+02  0.68111646611E+02  0.00000000000E+00 0. -1.
<scales pt_clust_5="13000.00000" pt_clust_6="13000.00000" pt_clust_7="13000.00000" pt_clust_8="13000.00000" pt_clust_9="72.79923" pt_clust_10="13000.00000"></scales>
<clustering>
<clus scale="   72.799">  1  9  2 -1</clus>
<clus scale="   87.957">  7  8 -1 -1</clus>
<clus scale="   56.315">  7 10 -1 -1</clus>
<clus scale="   96.611">  5  6 -1 -1</clus>
<clus scale="  130.796">  2  5  1 -1</clus>
<clus scale="   72.799">  1  5  2 -1</clus>
</clustering>
</event>
<event>
10    4  0.2759992E-005  0.1382884E+03  0.7546771E-02  0.1245470E+00
          2   -1    0    0  502    0 -0.00000000000E+00  0.00000000000E+00  0.99009372380E+02  0.99009372380E+02  0.00000000000E+00 0. -1.
         21   -1    0    0  503  502  0.00000000000E+00 -0.00000000000E+00 -0.36628201919E+03  0.36628201919E+03  0.00000000000E+00 0. -1.
         24    2    1    2    0    0  0.44553536711E+02 -0.18495945459E+02 -0.13420083237E+03  0.16048948321E+03  0.73619923801E+02 0.  0.
         23    2    1    2    0    0  0.14402058769E+02  0.37974759643E+02  0.33363520898E+02  0.10515612435E+03  0.91077902346E+02 0.  0.
        -11    1    3    3    0    0 -0.19098465742E+02 -0.11645573460E+02 -0.22399527001E+02  0.31656114493E+02  0.00000000000E+00 0.  1.
         12    1    3    3    0    0  0.63652002454E+02 -0.68503719990E+01 -0.11180130537E+03  0.12883336871E+03  0.00000000000E+00 0. -1.
        -13    1    4    4    0    0 -0.27654470471E+02 -0.15467202137E+02  0.93836839334E+01  0.33046294847E+02  0.00000000000E+00 0.  1.
         13    1    4    4    0    0  0.42056529240E+02  0.53441961780E+02  0.23979836964E+02  0.72109829506E+02  0.00000000000E+00 0. -1.
         21    1    1    2  503  501 -0.70053598115E+02  0.91006309436E+01 -0.14767790783E+03  0.16370428386E+03  0.00000000000E+00 0. -1.
          1    1    1    2  501    0  0.11098002635E+02 -0.28579445128E+02 -0.18757427513E+02  0.35941500152E+02  0.00000000000E+00 0. -1.
<scales pt_clust_5="13000.00000" pt_clust_6="13000.00000" pt_clust_7="13000.00000" pt_clust_8="13000.00000" pt_clust_9="70.64225" pt_clust_10="13000.00000"></scales>
<clustering>
<clus scale="   70.642">  2  9  1 -1</clus>
<clus scale="   73.620">  5  6 -1 -1</clus>
<clus scale="   74.746">  1  5  2 -1</clus>
<clus scale="   91.078">  7  8 -1 -1</clus>
<clus scale="   28.782">  7 10 -1 -1</clus>
<clus scale="   70.642">  2  5  1 -1</clus>
</clustering>
</event>
<event>
10    4  0.2759992E-005  0.3128262E+03  0.7546771E-02  0.1125242E+00
          2   -1    0    0  503    0 -0.00000000000E+00  0.00000000000E+00  0.19628318925E+04  0.19628318925E+04  0.00000000000E+00 0. -1.
         21   -1    0    0  501  502  0.00000000000E+00 -0.00000000000E+00 -0.26842102308E+02  0.26842102308E+02  0.00000000000E+00 0.  1.
         24    2    1    2    0    0  0.44784010783E+02  0.14072381792E+02  0.19879998869E+03  0.21977568088E+03  0.81094234372E+02 0.  0.
         23    2    1    2    0    0  0.99520315747E+02  0.46263900812E+02  0.57601956969E+03  0.59368286292E+03  0.92823247588E+02 0.  0.
        -11    1    3    3    0    0  0.14291840460E+01 -0.21193471475E+02  0.11170054201E+02  0.23999498142E+02  0.00000000000E+00 0.  1.
         12    1    3    3    0    0  0.43354826737E+02  0.35265853267E+02  0.18762993449E+03  0.19577618273E+03  0.00000000000E+00 0. -1.
        -13    1    4    4    0    0  0.69234752441E+02  0.74663825700E+02  0.42850573970E+03  0.44043763097E+03  0.00000000000E+00 0.  1.
         13    1    4    4    0    0  0.30285563306E+02 -0.28399924888E+02  0.14751382999E+03  0.15324523196E+03  0.00000000000E+00 0. -1.
         21    1    1    2  503  502  0.84690956700E+01 -0.18260949368E+02  0.51602319036E+02  0.55389414000E+02  0.00000000000E+00 0.  1.
          1    1    1    2  501    0 -0.15277342220E+03 -0.42075333236E+02  0.11095679127E+04  0.11208260370E+04  0.00000000000E+00 0. -1.
<scales pt_clust_5="13000.00000" pt_clust_6="13000.00000" pt_clust_7="13000.00000" pt_clust_8="13000.00000" pt_clust_9="20.12928" pt_clust_10="13000.00000"></scales>
<clustering>
<clus scale="   20.129">  2  9  1 -1</clus>
<clus scale="   81.094">  5  6 -1 -1</clus>
<clus scale="   92.823">  7  8 -1 -1</clus>
<clus scale="   94.627">  1  5  2 -1</clus>
<clus scale="  126.811">  7 10 -1 -1</clus>
<clus scale="   20.129">  2  5  1 -1</clus>
</clustering>
</event>
<event>
10    4  0.2759992E-005  0.9719861E+03  0.7546771E-02  0.9815639E-01
         21   -1    0    0  501  502  0.00000000000E+00  0.00000000000E+00  0.11135976918E+04  0.11135976918E+04  0.00000000000E+00 0. -1.
          2   -1    0    0  503    0 -0.00000000000E+00 -0.00000000000E+00 -0.32835693219E+03  0.32835693219E+03  0.00000000000E+00 0. -1.
         24    2    1    2    0    0  0.15546498583E+03  0.62021407959E+02  0.62916872441E+02  0.19713937016E+03  0.83002298537E+02 0.  0.
         23    2    1    2    0    0  0.59432475270E+02  0.37671506821E+03  0.51270918574E+03  0.64556268544E+03  0.91836865986E+02 0.  0.
        -13    1    3    3    0    0  0.36156681188E+02 -0.92508207377E+01  0.42683126648E+02  0.56698611794E+02  0.00000000000E+00 0.  1.
         14    1    3    3    0    0  0.11930830465E+03  0.71272228696E+02  0.20233745793E+02  0.14044075836E+03  0.00000000000E+00 0. -1.
        -11    1    4    4    0    0 -0.80603008584E+01  0.52938449736E+02  0.12476711269E+03  0.13577289980E+03  0.00000000000E+00 0.  1.
         11    1    4    4    0    0  0.67492776129E+02  0.32377661848E+03  0.38794207304E+03  0.50978978564E+03  0.00000000000E+00 0. -1.
         21    1    1    2  503  502  0.12216571281E+02  0.17567497805E+02  0.66476314524E+02  0.69835248877E+02  0.00000000000E+00 0. -1.
          1    1    1    2  501    0 -0.22711403239E+03 -0.45630397398E+03  0.14313838686E+03  0.52941731948E+03  0.00000000000E+00 0. -1.
<scales pt_clust_5="13000.00000" pt_clust_6="13000.00000" pt_clust_7="13000.00000" pt_clust_8="13000.00000" pt_clust_9="21.39770" pt_clust_10="13000.00000"></scales>
<clustering>
<clus scale="   21.398">  1  9  2 -1</clus>
<clus scale="   83.002">  5  6 -1 -1</clus>
<clus scale="   91.837">  7  8 -1 -1</clus>
<clus scale="  188.828">  2  5  1 -1</clus>
<clus scale="  418.543">  7 10 -1 -1</clus>
<clus scale="   21.398">  1  5  2 -1</clus>
</clustering>
</event>
<event>
10    4  0.2759992E-005  0.3968443E+03  0.7546771E-02  0.1079439E+00
          2   -1    0    0  502    0 -0.00000000000E+00  0.00000000000E+00  0.64101738353E+03  0.64101738353E+03  0.00000000000E+00 0. -1.
         21   -1    0    0  503  502  0.00000000000E+00 -0.00000000000E+00 -0.18316445800E+03  0.18316445800E+03  0.00000000000E+00 0.  1.
         24    2    1    2    0    0 -0.59044422012E+02  0.11665798215E+03  0.41915981938E+02  0.15903715938E+03  0.80252974734E+02 0.  0.
         23    2    1    2    0    0 -0.20890756044E+02  0.13564383207E+02 -0.25790238671E+02  0.99006091136E+02  0.92285716616E+02 0.  0.
        -13    1    3    3    0    0 -0.63052930844E+02  0.12727878906E+03  0.39502284891E+02  0.14743131534E+03  0.00000000000E+00 0.  1.
         14    1    3    3    0    0  0.40085088311E+01 -0.10620806911E+02  0.24136970480E+01  0.11605844042E+02  0.00000000000E+00 0. -1.
        -13    1    4    4    0    0 -0.37269510311E+02  0.63193881715E+00  0.24467471818E+02  0.44587811368E+02  0.00000000000E+00 0. -1.
         13    1    4    4    0    0  0.16378754267E+02  0.12932444390E+02 -0.50257710489E+02  0.54418279767E+02  0.00000000000E+00 0.  1.
         21    1    1    2  503  501 -0.36798187326E+02 -0.28631430959E+02 -0.39208447599E+02  0.60919354826E+02  0.00000000000E+00 0.  1.
          1    1    1    2  501    0  0.11673336538E+03 -0.10159093439E+03  0.48093562986E+03  0.50521923619E+03  0.00000000000E+00 0. -1.
<scales pt_clust_5="13000.00000" pt_clust_6="13000.00000" pt_clust_7="13000.00000" pt_clust_8="13000.00000" pt_clust_9="46.62473" pt_clust_10="13000.00000"></scales>
<clustering>
<clus scale="   46.625">  2  9  1 -1</clus>
<clus scale="   80.253">  5  6 -1 -1</clus>
<clus scale="   92.286">  7  8 -1 -1</clus>
<clus scale="  151.425">  1  5  2 -1</clus>
<clus scale="   45.752">  7 10 -1 -1</clus>
<clus scale="   46.625">  2  5  1 -1</clus>
</clustering>
</event>
<event>
10    4  0.2759992E-005  0.4835892E+03  0.7546771E-02  0.1019382E+00
         21   -1    0    0  501  502  0.00000000000E+00  0.00000000000E+00  0.66466767947E+03  0.66466767947E+03  0.00000000000E+00 0.  1.
         -3   -1    0    0    0  501 -0.00000000000E+00 -0.00000000000E+00 -0.62951456987E+03  0.62951456987E+03  0.00000000000E+00 0.  1.
         24    2    1    2    0    0 -0.45716242735E+03  0.13720888865E+03 -0.25384875493E+03  0.54650655875E+03  0.80040391531E+02 0.  0.
         23    2    1    2    0    0  0.14944080117E+03 -0.12531766194E+02 -0.15200627480E+02  0.17274021629E+03  0.84371351955E+02 0.  0.
        -13    1    3    3    0    0 -0.19014477042E+03  0.93830383817E+02 -0.13239073564E+03  0.24997296160E+03  0.00000000000E+00 0.  1.
         14    1    3    3    0    0 -0.26701765692E+03  0.43378504831E+02 -0.12145801928E+03  0.29653359715E+03  0.00000000000E+00 0. -1.
        -13    1    4    4    0    0  0.76147511271E+02  0.34622053661E+02 -0.17917766576E+02  0.85546340842E+02  0.00000000000E+00 0.  1.
         13    1    4    4    0    0  0.73293289899E+02 -0.47153819855E+02  0.27171390952E+01  0.87193875450E+02  0.00000000000E+00 0. -1.
         21    1    1    2  503  502  0.39124642242E+02 -0.34369154605E+02  0.28630054833E+03  0.29099824810E+03  0.00000000000E+00 0.  1.
         -4    1    1    2    0  503  0.26859698394E+03 -0.90307967849E+02  0.17901943674E+02  0.28393722620E+03  0.00000000000E+00 0.  1.
<scales pt_clust_5="13000.00000" pt_clust_6="13000.00000" pt_clust_7="13000.00000" pt_clust_8="13000.00000" pt_clust_9="52.07664" pt_clust_10="13000.00000"></scales>
<clustering>
<clus scale="   52.077">  1  9  2 -1</clus>
<clus scale="   80.040">  5  6 -1 -1</clus>
<clus scale="   84.371">  7  8 -1 -1</clus>
<clus scale="  302.761">  7 10 -1 -1</clus>
<clus scale="  465.886">  2  5  1 -1</clus>
<clus scale="   52.077">  1  5  2 -1</clus>
</clustering>
</event>
<event>
10    4  0.2759992E-005  0.3614033E+03  0.7546771E-02  0.1094236E+00
         21   -1    0    0  501  502  0.00000000000E+00  0.00000000000E+00  0.60675565772E+03  0.60675565772E+03  0.00000000000E+00 0.  1.
         -1   -1    0    0    0  501 -0.00000000000E+00 -0.00000000000E+00 -0.15494334233E+03  0.15494334233E+03  0.00000000000E+00 0.  1.
         24    2    1    2    0    0 -0.95241565052E+02  0.22479323087E+02  0.31278341856E+03  0.33734456752E+03  0.79947574244E+02 0.  0.
         23    2    1    2    0    0 -0.41858356195E+02 -0.10119520428E+03 -0.57277011405E+02  0.15259794833E+03  0.89514727531E+02 0.  0.
        -13    1    3    3    0    0 -0.98948228136E+02 -0.34790148675E+01  0.22724499816E+03  0.24787727726E+03  0.00000000000E+00 0.  1.
         14    1    3    3    0    0  0.37066630839E+01  0.25958337954E+02  0.85538420403E+02  0.89467290255E+02  0.00000000000E+00 0. -1.
        -11    1    4    4    0    0 -0.34880103096E+02 -0.76533003980E+02  0.60068197676E+01  0.84320840686E+02  0.00000000000E+00 0. -1.
         11    1    4    4    0    0 -0.69782530996E+01 -0.24662200303E+02 -0.63283831172E+02  0.68277107642E+02  0.00000000000E+00 0.  1.
         21    1    1    2  503  502 -0.12805326856E+02  0.25512366431E+02  0.35726266762E+02  0.45729895840E+02  0.00000000000E+00 0. -1.
         -2    1    1    2    0  503  0.14990524810E+03  0.53203514766E+02  0.16057964147E+03  0.22602658836E+03  0.00000000000E+00 0.  1.
<scales pt_clust_5="13000.00000" pt_clust_6="13000.00000" pt_clust_7="13000.00000" pt_clust_8="13000.00000" pt_clust_9="28.54570" pt_clust_10="13000.00000"></scales>
<clustering>
<clus scale="   28.546">  1  9  2 -1</clus>
<clus scale="   79.948">  5  6 -1 -1</clus>
<clus scale="   89.515">  7  8 -1 -1</clus>
<clus scale="  135.263">  2  5  1 -1</clus>
<clus scale="  139.735">  7 10 -1 -1</clus>
<clus scale="   28.546">  1  5  2 -1</clus>
</clustering>
</event>
<event>
10    4  0.2759992E-005  0.1315537E+03  0.7546771E-02  0.1235698E+00
         21   -1    0    0  503  502  0.00000000000E+00  0.00000000000E+00  0.48880680379E+03  0.48880680379E+03  0.00000000000E+00 0. -1.
          4   -1    0    0  502    0 -0.00000000000E+00 -0.00000000000E+00 -0.10002093957E+03  0.10002093957E+03  0.00000000000E+00 0. -1.
         24    2    1    2    0    0 -0.42431615391E+01  0.23842672669E+02 -0.24704476981E+02  0.11019888345E+03  0.10462793733E+03 0.  0.
         23    2    1    2    0    0 -0.66326962473E+02  0.30463056024E+02  0.13638177334E+03  0.18064260453E+03  0.93297903191E+02 0.  0.
        -13    1    3    3    0    0 -0.14044398830E+02 -0.34902272803E+02 -0.33028628170E+02  0.50063000950E+02  0.00000000000E+00 0.  1.
         14    1    3    3    0    0  0.98012372913E+01  0.58744945472E+02  0.83241511887E+01  0.60135882499E+02  0.00000000000E+00 0. -1.
        -13    1    4    4    0    0  0.11090783409E+01 -0.28011918040E+02  0.22479110629E+02  0.35933383110E+02  0.00000000000E+00 0.  1.
         13    1    4    4    0    0 -0.67436040814E+02  0.58474974063E+02  0.11390266271E+03  0.14470922143E+03  0.00000000000E+00 0. -1.
         21    1    1    2  503  501  0.52190549800E+02 -0.45310348678E+02  0.26573309951E+03  0.27457414548E+03  0.00000000000E+00 0. -1.
          3    1    1    2  501    0  0.18379574212E+02 -0.89953800145E+01  0.11375468346E+02  0.23412109899E+02  0.00000000000E+00 0. -1.
<scales pt_clust_5="13000.00000" pt_clust_6="13000.00000" pt_clust_7="13000.00000" pt_clust_8="13000.00000" pt_clust_9="69.11499" pt_clust_10="13000.00000"></scales>
<clustering>
<clus scale="   69.115">  1  9  2 -1</clus>
<clus scale="   93.298">  7  8 -1 -1</clus>
<clus scale="   25.815">  7 10 -1 -1</clus>
<clus scale="  104.628">  5  6 -1 -1</clus>
<clus scale="  105.863">  2  5  1 -1</clus>
<clus scale="   69.115">  1  5  2 -1</clus>
</clustering>
</event>
<event>
10    4  0.2759992E-005  0.8079288E+03  0.7546771E-02  0.1004234E+00
         21   -1    0    0  503  502  0.00000000000E+00  0.00000000000E+00  0.15466328899E+03  0.15466328899E+03  0.00000000000E+00 0. -1.
          2   -1    0    0  502    0 -0.00000000000E+00 -0.00000000000E+00 -0.18753679092E+04  0.18753679092E+04  0.00000000000E+00 0. -1.
         24    2    1    2    0    0 -0.48158075269E+02  0.12646565864E+03 -0.29001677535E+03  0.32982674447E+03  0.79769595388E+02 0.  0.
         23    2    1    2    0    0 -0.36436220453E+03 -0.26473197705E+03 -0.86034805090E+03  0.97545053367E+03  0.91989886259E+02 0.  0.
        -13    1    3    3    0    0 -0.20573394134E+02  0.77406090630E+01 -0.94481009326E+01  0.23925889453E+02  0.00000000000E+00 0.  1.
         14    1    3    3    0    0 -0.27584681135E+02  0.11872504958E+03 -0.28056867442E+03  0.30590085501E+03  0.00000000000E+00 0. -1.
        -11    1    4    4    0    0 -0.56310094812E+02 -0.54969592698E+01 -0.12145540968E+03  0.13398678994E+03  0.00000000000E+00 0.  1.
         11    1    4    4    0    0 -0.30805210972E+03 -0.25923501778E+03 -0.73889264122E+03  0.84146374372E+03  0.00000000000E+00 0. -1.
         21    1    1    2  503  501  0.75873562889E+02  0.42158735481E+02 -0.58642854333E+02  0.10475276076E+03  0.00000000000E+00 0. -1.
          1    1    1    2  501    0  0.33664671691E+03  0.96107582927E+02 -0.51169693962E+03  0.62000115929E+03  0.00000000000E+00 0. -1.
<scales pt_clust_5="13000.00000" pt_clust_6="13000.00000" pt_clust_7="13000.00000" pt_clust_8="13000.00000" pt_clust_9="86.79952" pt_clust_10="13000.00000"></scales>
<clustering>
<clus scale="   79.770">  5  6 -1 -1</clus>
<clus scale="   86.800">  1  9  2 -1</clus>
<clus scale="   91.990">  7  8 -1 -1</clus>
<clus scale="  159.235">  2  5  1 -1</clus>
<clus scale="  392.291">  7 10 -1 -1</clus>
<clus scale="   86.800">  1  5  2 -1</clus>
</clustering>
</event>
<event>
10    4  0.2759992E-005  0.3321732E+03  0.7546771E-02  0.1121128E+00
         21   -1    0    0  501  502  0.00000000000E+00  0.00000000000E+00  0.27288822696E+03  0.27288822696E+03  0.00000000000E+00 0. -1.
          2   -1    0    0  503    0 -0.00000000000E+00 -0.00000000000E+00 -0.21078505553E+03  0.21078505553E+03  0.00000000000E+00 0. -1.
         24    2    1    2    0    0  0.14488069497E+02  0.27428848564E+02 -0.34232561537E+01  0.86004901715E+02  0.80142863344E+02 0.  0.
         23    2    1    2    0    0 -0.16079874343E+03 -0.73434122495E+02  0.45353279286E+02  0.20444850445E+03  0.92159995628E+02 0.  0.
        -13    1    3    3    0    0  0.10149449978E+02  0.45530163998E+02 -0.28582820082E+02  0.54708178295E+02  0.00000000000E+00 0.  1.
         14    1    3    3    0    0  0.43386195188E+01 -0.18101315434E+02  0.25159563928E+02  0.31296723420E+02  0.00000000000E+00 0. -1.
        -11    1    4    4    0    0 -0.69372239362E+02  0.14287846262E+01  0.51052843226E+02  0.86144888537E+02  0.00000000000E+00 0.  1.
         11    1    4    4    0    0 -0.91426504066E+02 -0.74862907122E+02 -0.56995639398E+01  0.11830361591E+03  0.00000000000E+00 0. -1.
         21    1    1    2  503  502  0.26114665317E+02  0.98724644940E+01  0.56105560576E+02  0.62667976091E+02  0.00000000000E+00 0. -1.
          1    1    1    2  501    0  0.12019600861E+03  0.36132809438E+02 -0.35932412280E+02  0.13055190024E+03  0.00000000000E+00 0. -1.
<scales pt_clust_5="13000.00000" pt_clust_6="13000.00000" pt_clust_7="13000.00000" pt_clust_8="13000.00000" pt_clust_9="27.91848" pt_clust_10="13000.00000"></scales>
<clustering>
<clus scale="   27.918">  1  9  2 -1</clus>
<clus scale="   80.143">  5  6 -1 -1</clus>
<clus scale="   87.552">  2  5  1 -1</clus>
<clus scale="   92.160">  7  8 -1 -1</clus>
<clus scale="  147.682">  7 10 -1 -1</clus>
<clus scale="   27.918">  1  5  2 -1</clus>
</clustering>
</event>
<event>
10    4  0.2759992E-005  0.2533242E+03  0.7546771E-02  0.1156382E+00
         -1   -1    0    0    0  501 -0.00000000000E+00  0.00000000000E+00  0.24807229610E+03  0.24807229610E+03  0.00000000000E+00 0.  1.
         21   -1    0    0  501  502  0.00000000000E+00 -0.00000000000E+00 -0.30126864876E+03  0.30126864876E+03  0.00000000000E+00 0.  1.
         24    2    1    2    0    0 -0.10460252349E+02  0.17077702175E+02  0.14867804268E+02  0.83351039102E+02  0.79531624684E+02 0.  0.
         23    2    1    2    0    0  0.33743528755E+02  0.80307016536E+02  0.88826038398E+02  0.15632913952E+03  0.94661988828E+02 0.  0.
        -11    1    3    3    0    0 -0.29388685443E+02  0.57514220420E+01 -0.24189304810E+02  0.38495404332E+02  0.00000000000E+00 0.  1.
         12    1    3    3    0    0  0.18928433094E+02  0.11326280133E+02  0.39057109078E+02  0.44855634769E+02  0.00000000000E+00 0. -1.
        -11    1    4    4    0    0  0.35009373839E+02  0.16849704213E+02 -0.88448684940E+01  0.39847214298E+02  0.00000000000E+00 0. -1.
         11    1    4    4    0    0 -0.12658450838E+01  0.63457312323E+02  0.97670906892E+02  0.11648192523E+03  0.00000000000E+00 0.  1.
         21    1    1    2  503  502 -0.10544476228E+02  0.23491394549E+02 -0.18344908447E+03  0.18524739726E+03  0.00000000000E+00 0.  1.
         -2    1    1    2    0  503 -0.12738800178E+02 -0.12087611326E+03  0.26558889146E+02  0.12441336897E+03  0.00000000000E+00 0.  1.
<scales pt_clust_5="13000.00000" pt_clust_6="13000.00000" pt_clust_7="13000.00000" pt_clust_8="13000.00000" pt_clust_9="25.74940" pt_clust_10="13000.00000"></scales>
<clustering>
<clus scale="   25.749">  2  9  1 -1</clus>
<clus scale="   79.532">  5  6 -1 -1</clus>
<clus scale="   84.159">  1  5  2 -1</clus>
<clus scale="   94.662">  7  8 -1 -1</clus>
<clus scale="  105.298">  7 10 -1 -1</clus>
<clus scale="   25.749">  2  5  1 -1</clus>
</clustering>
</event>
<event>
10    4  0.2759992E-005  0.2240414E+03  0.7546771E-02  0.1154936E+00
          2   -1    0    0  502    0 -0.00000000000E+00  0.00000000000E+00  0.41396535854E+03  0.41396535854E+03  0.00000000000E+00 0. -1.
         21   -1    0    0  503  502  0.00000000000E+00 -0.00000000000E+00 -0.17032751550E+03  0.17032751550E+03  0.00000000000E+00 0.  1.
         24    2    1    2    0    0 -0.27481794656E+02  0.14557037057E+03  0.11614308996E+02  0.16766587863E+03  0.77659338513E+02 0.  0.
         23    2    1    2    0    0  0.37068319437E+02  0.50119281201E+02  0.68581949839E+02  0.12959775922E+03  0.90587486430E+02 0.  0.
        -11    1    3    3    0    0 -0.38140830374E+02  0.15053988556E+03  0.86482540191E+01  0.15553704505E+03  0.00000000000E+00 0.  1.
         12    1    3    3    0    0  0.10659035717E+02 -0.49695149963E+01  0.29660549764E+01  0.12128833573E+02  0.00000000000E+00 0. -1.
        -13    1    4    4    0    0  0.54453998951E+02  0.65421634619E+02  0.62649842172E+02  0.10568931357E+03  0.00000000000E+00 0.  1.
         13    1    4    4    0    0 -0.17385679514E+02 -0.15302353418E+02  0.59321076670E+01  0.23908445656E+02  0.00000000000E+00 0. -1.
         21    1    1    2  503  501 -0.45779004249E+02 -0.10215984096E+03  0.22723731964E+02  0.11423098673E+03  0.00000000000E+00 0.  1.
          1    1    1    2  501    0  0.36192479469E+02 -0.93529810810E+02  0.14071785224E+03  0.17279824946E+03  0.00000000000E+00 0. -1.
<scales pt_clust_5="13000.00000" pt_clust_6="13000.00000" pt_clust_7="13000.00000" pt_clust_8="13000.00000" pt_clust_9="111.94798" pt_clust_10="13000.00000"></scales>
<clustering>
<clus scale="   77.659">  5  6 -1 -1</clus>
<clus scale="   90.587">  7  8 -1 -1</clus>
<clus scale="  100.288">  7 10 -1 -1</clus>
<clus scale="  111.948">  2  9  1 -1</clus>
<clus scale="  125.858">  1  5  2 -1</clus>
<clus scale="  111.948">  2  5  1 -1</clus>
</clustering>
</event>
<event>
10    4  0.2759992E-005  0.5864092E+03  0.7546771E-02  0.9947474E-01
          2   -1    0    0  503    0 -0.00000000000E+00  0.00000000000E+00  0.13827860940E+04  0.13827860940E+04  0.00000000000E+00 0. -1.
         21   -1    0    0  501  502  0.00000000000E+00 -0.00000000000E+00 -0.51347957211E+03  0.51347957211E+03  0.00000000000E+00 0. -1.
         24    2    1    2    0    0  0.36564049283E+03 -0.45165171014E+03  0.10413699187E+04  0.11944052391E+04  0.66860528454E+02 0.  0.
         23    2    1    2    0    0 -0.83223907686E+02  0.89680572405E+02  0.16520204623E+02  0.15386209952E+03  0.91824858460E+02 0.  0.
        -11    1    3    3    0    0  0.91730638387E+02 -0.14887272190E+03  0.27081735148E+03  0.32236568554E+03  0.00000000000E+00 0.  1.
         12    1    3    3    0    0  0.27390985445E+03 -0.30277898824E+03  0.77055256722E+03  0.87203955354E+03  0.00000000000E+00 0. -1.
        -11    1    4    4    0    0  0.54750753764E+01  0.56300553429E+02 -0.46413688128E+01  0.56756242575E+02  0.00000000000E+00 0.  1.
         11    1    4    4    0    0 -0.88698983063E+02  0.33380018976E+02  0.21161573435E+02  0.97105856947E+02  0.00000000000E+00 0. -1.
         21    1    1    2  503  502 -0.72012819589E+02  0.74459663793E+02 -0.15996446405E+03  0.19057470314E+03  0.00000000000E+00 0. -1.
          1    1    1    2  501    0 -0.21040376556E+03  0.28751147395E+03 -0.28619137425E+02  0.35742362434E+03  0.00000000000E+00 0. -1.
<scales pt_clust_5="13000.00000" pt_clust_6="13000.00000" pt_clust_7="13000.00000" pt_clust_8="13000.00000" pt_clust_9="103.58614" pt_clust_10="13000.00000"></scales>
<clustering>
<clus scale="   66.861">  5  6 -1 -1</clus>
<clus scale="   91.825">  7  8 -1 -1</clus>
<clus scale="  103.586">  2  9  1 -1</clus>
<clus scale="  414.919">  7 10 -1 -1</clus>
<clus scale="  561.757">  1  5  2 -1</clus>
<clus scale="  103.586">  2  5  1 -1</clus>
</clustering>
</event>
<event>
10    4  0.2759992E-005  0.3311967E+03  0.7546771E-02  0.1121173E+00
          2   -1    0    0  503    0 -0.00000000000E+00  0.00000000000E+00  0.17040717325E+04  0.17040717325E+04  0.00000000000E+00 0. -1.
         21   -1    0    0  501  502  0.00000000000E+00 -0.00000000000E+00 -0.10644923931E+03  0.10644923931E+03  0.00000000000E+00 0. -1.
         24    2    1    2    0    0  0.33204232598E+02  0.10158966223E+01  0.59572257408E+03  0.60206799540E+03  0.80603552684E+02 0.  0.
         23    2    1    2    0    0  0.38358378206E+02  0.13240914476E+03  0.43765359009E+03  0.46881144605E+03  0.96124711877E+02 0.  0.
        -11    1    3    3    0    0  0.18342365872E+02 -0.10044837305E+02  0.33180836303E+02  0.39221282998E+02  0.00000000000E+00 0.  1.
         12    1    3    3    0    0  0.14861866726E+02  0.11060733927E+02  0.56254173778E+03  0.56284671240E+03  0.00000000000E+00 0. -1.
        -11    1    4    4    0    0  0.29679941875E+02 -0.21002867583E+01  0.12214977783E+03  0.12572143165E+03  0.00000000000E+00 0.  1.
         11    1    4    4    0    0  0.86784363311E+01  0.13450943152E+03  0.31550381226E+03  0.34309001439E+03  0.00000000000E+00 0. -1.
         21    1    1    2  503  502  0.24016501860E+02 -0.62463811317E+01 -0.75987914302E+02  0.79937305176E+02  0.00000000000E+00 0. -1.
          1    1    1    2  501    0 -0.95579112664E+02 -0.12717866025E+03  0.64023424328E+03  0.65970422515E+03  0.00000000000E+00 0. -1.
<scales pt_clust_5="13000.00000" pt_clust_6="13000.00000" pt_clust_7="13000.00000" pt_clust_8="13000.00000" pt_clust_9="24.81551" pt_clust_10="13000.00000"></scales>
<clustering>
<clus scale="   24.816">  2  9  1 -1</clus>
<clus scale="   80.604">  5  6 -1 -1</clus>
<clus scale="   88.229">  1  5  2 -1</clus>
<clus scale="   96.125">  7  8 -1 -1</clus>
<clus scale="  145.342">  7 10 -1 -1</clus>
<clus scale="   24.816">  2  5  1 -1</clus>
</clustering>
</event>
<event>
10    4  0.2759992E-005  0.3170447E+03  0.7546771E-02  0.1128206E+00
          2   -1    0    0  503    0 -0.00000000000E+00  0.00000000000E+00  0.77628173256E+03  0.77628173256E+03  0.00000000000E+00 0. -1.
         21   -1    0    0  501  502  0.00000000000E+00 -0.00000000000E+00 -0.80864542751E+02  0.80864542751E+02  0.00000000000E+00 0.  1.
         24    2    1    2    0    0 -0.23252096531E+02 -0.20515507031E+02  0.30226829421E+02  0.90065690022E+02  0.78972281723E+02 0.  0.
         23    2    1    2    0    0 -0.41523210672E+02 -0.11103865973E+03  0.19877348919E+03  0.24888853491E+03  0.91546937823E+02 0.  0.
        -13    1    3    3    0    0 -0.10713191407E+02 -0.27489792260E+02 -0.21422343488E+02  0.36460635611E+02  0.00000000000E+00 0.  1.
         14    1    3    3    0    0 -0.12538905124E+02  0.69742852292E+01  0.51649172910E+02  0.53605054411E+02  0.00000000000E+00 0. -1.
        -11    1    4    4    0    0 -0.67549650984E+02 -0.52000131827E+02  0.11485930101E+03  0.14303715631E+03  0.00000000000E+00 0.  1.
         11    1    4    4    0    0  0.26026440312E+02 -0.59038527900E+02  0.83914188182E+02  0.10585137859E+03  0.00000000000E+00 0. -1.
         21    1    1    2  503  502  0.48162659135E+02 -0.21581641446E+02  0.44489522697E+02  0.69026999155E+02  0.00000000000E+00 0.  1.
          1    1    1    2  501    0  0.16612648067E+02  0.15313580820E+03  0.42192734850E+03  0.44916505123E+03  0.00000000000E+00 0. -1.
<scales pt_clust_5="13000.00000" pt_clust_6="13000.00000" pt_clust_7="13000.00000" pt_clust_8="13000.00000" pt_clust_9="52.77697" pt_clust_10="13000.00000"></scales>
<clustering>
<clus scale="   52.777">  2  9  1 -1</clus>
<clus scale="   78.972">  5  6 -1 -1</clus>
<clus scale="   84.483">  1  5  2 -1</clus>
<clus scale="   91.547">  7  8 -1 -1</clus>
<clus scale="  132.477">  7 10 -1 -1</clus>
<clus scale="   52.777">  2  5  1 -1</clus>
</clustering>
</event>
<event>
10    4  0.2759992E-005  0.1985753E+03  0.7546771E-02  0.1171846E+00
          2   -1    0    0  503    0 -0.00000000000E+00  0.00000000000E+00  0.58808431454E+03  0.58808431454E+03  0.00000000000E+00 0. -1.
         21   -1    0    0  501  502  0.00000000000E+00 -0.00000000000E+00 -0.20008528091E+03  0.20008528091E+03  0.00000000000E+00 0. -1.
         24    2    1    2    0    0  0.85235486230E+02  0.30167519937E+02  0.15020595389E+03  0.19837078667E+03  0.92811492009E+02 0.  0.
         23    2    1    2    0    0  0.29102639124E+02  0.15458758286E+01  0.17447402608E+03  0.19902807248E+03  0.91222993397E+02 0.  0.
        -11    1    3    3    0    0  0.16182856269E+01  0.36902724997E+02  0.16337507219E+02  0.40389900999E+02  0.00000000000E+00 0.  1.
         12    1    3    3    0    0  0.83617200603E+02 -0.67352050606E+01  0.13386844667E+03  0.15798088567E+03  0.00000000000E+00 0. -1.
        -13    1    4    4    0    0  0.55589050775E+02 -0.21584505600E+02  0.95653869474E+02  0.11271954663E+03  0.00000000000E+00 0.  1.
         13    1    4    4    0    0 -0.26486411650E+02  0.23130381428E+02  0.78820156602E+02  0.86308525847E+02  0.00000000000E+00 0. -1.
         21    1    1    2  503  502 -0.17328386339E+02 -0.15623094883E+02 -0.15214728035E+03  0.15392579052E+03  0.00000000000E+00 0. -1.
          1    1    1    2  501    0 -0.97009739016E+02 -0.16090300882E+02  0.21546633402E+03  0.23684494578E+03  0.00000000000E+00 0. -1.
<scales pt_clust_5="13000.00000" pt_clust_6="13000.00000" pt_clust_7="13000.00000" pt_clust_8="13000.00000" pt_clust_9="23.33140" pt_clust_10="13000.00000"></scales>
<clustering>
<clus scale="   23.331">  2  9  1 -1</clus>
<clus scale="   91.223">  7  8 -1 -1</clus>
<clus scale="   92.811">  5  6 -1 -1</clus>
<clus scale="  102.840">  7 10 -1 -1</clus>
<clus scale="  122.218">  1  5  2 -1</clus>
<clus scale="   23.331">  2  5  1 -1</clus>
</clustering>
</event>
<event>
10    4  0.2759992E-005  0.4857189E+03  0.7546771E-02  0.1070835E+00
         21   -1    0    0  503  502  0.00000000000E+00  0.00000000000E+00  0.10490431659E+03  0.10490431659E+03  0.00000000000E+00 0. -1.
          2   -1    0    0  502    0 -0.00000000000E+00 -0.00000000000E+00 -0.11068753921E+04  0.11068753921E+04  0.00000000000E+00 0. -1.
         24    2    1    2    0    0  0.37107646380E+02 -0.58800148189E+02 -0.21627520587E+03  0.24104155124E+03  0.80570651619E+02 0.  0.
         23    2    1    2    0    0  0.63536235045E+02 -0.12578416888E+03 -0.72648647351E+02  0.18307264703E+03  0.91538286119E+02 0.  0.
        -11    1    3    3    0    0  0.21718027168E+02  0.17652384922E+02 -0.47766940124E+02  0.55362080582E+02  0.00000000000E+00 0.  1.
         12    1    3    3    0    0  0.15389619213E+02 -0.76452533112E+02 -0.16850826574E+03  0.18567947066E+03  0.00000000000E+00 0. -1.
        -13    1    4    4    0    0  0.58306138361E+02 -0.75910899937E+02 -0.88620180049E+02  0.13044388377E+03  0.00000000000E+00 0.  1.
         13    1    4    4    0    0  0.52300966837E+01 -0.49873268944E+02  0.15971532699E+02  0.52628763269E+02  0.00000000000E+00 0. -1.
         21    1    1    2  503  501  0.30288889181E+01  0.26756684896E+02  0.18153578286E+02  0.32475325392E+02  0.00000000000E+00 0. -1.
          1    1    1    2  501    0 -0.10367277034E+03  0.15782763217E+03 -0.73120080062E+03  0.75519018507E+03  0.00000000000E+00 0. -1.
<scales pt_clust_5="13000.00000" pt_clust_6="13000.00000" pt_clust_7="13000.00000" pt_clust_8="13000.00000" pt_clust_9="26.92758" pt_clust_10="13000.00000"></scales>
<clustering>
<clus scale="   26.928">  1  9  2 -1</clus>
<clus scale="   80.571">  5  6 -1 -1</clus>
<clus scale="   91.538">  7  8 -1 -1</clus>
<clus scale="  104.350">  2  5  1 -1</clus>
<clus scale="  134.441">  7 10 -1 -1</clus>
<clus scale="   26.928">  1  5  2 -1</clus>
</clustering>
</event>
<event>
10    4  0.2759992E-005  0.4531747E+03  0.7546771E-02  0.1031050E+00
          2   -1    0    0  503    0 -0.00000000000E+00  0.00000000000E+00  0.12312438768E+04  0.12312438768E+04  0.00000000000E+00 0. -1.
         21   -1    0    0  501  502  0.00000000000E+00 -0.00000000000E+00 -0.19323613778E+03  0.19323613778E+03  0.00000000000E+00 0.  1.
         24    2    1    2    0    0 -0.32873818547E+03  0.20066046029E+03  0.32998809445E+03  0.51345618630E+03  0.80073078236E+02 0.  0.
         23    2    1    2    0    0  0.56900331644E+02 -0.13462415703E+03  0.24876726180E+03  0.30257666781E+03  0.91138235458E+02 0.  0.
        -11    1    3    3    0    0 -0.21240269644E+03  0.14733691625E+03  0.17361644398E+03  0.31139322723E+03  0.00000000000E+00 0.  1.
         12    1    3    3    0    0 -0.11633548904E+03  0.53323544045E+02  0.15637165046E+03  0.20206295907E+03  0.00000000000E+00 0. -1.
        -11    1    4    4    0    0  0.54270762134E+02 -0.84503100034E+02  0.85911305522E+02  0.13216218050E+03  0.00000000000E+00 0.  1.
         11    1    4    4    0    0  0.26295695097E+01 -0.50121057000E+02  0.16285595628E+03  0.17041448731E+03  0.00000000000E+00 0. -1.
         21    1    1    2  503  502  0.28541283890E+01  0.23256508692E+02 -0.32977768568E+02  0.40454226789E+02  0.00000000000E+00 0.  1.
          1    1    1    2  501    0  0.26898372544E+03 -0.89292811952E+02  0.49223015129E+03  0.56799293363E+03  0.00000000000E+00 0. -1.
<scales pt_clust_5="13000.00000" pt_clust_6="13000.00000" pt_clust_7="13000.00000" pt_clust_8="13000.00000" pt_clust_9="23.43099" pt_clust_10="13000.00000"></scales>
<clustering>
<clus scale="   23.431">  2  9  1 -1</clus>
<clus scale="   80.073">  5  6 -1 -1</clus>
<clus scale="   91.138">  7  8 -1 -1</clus>
<clus scale="  282.355">  7 10 -1 -1</clus>
<clus scale="  399.129">  1  5  2 -1</clus>
<clus scale="   23.431">  2  5  1 -1</clus>
</clustering>
</event>
<event>
10    4  0.2759992E-005  0.2408712E+03  0.7546771E-02  0.1161585E+00
          2   -1    0    0  503    0 -0.00000000000E+00  0.00000000000E+00  0.35046321724E+03  0.35046321724E+03  0.00000000000E+00 0. -1.
         21   -1    0    0  501  502  0.00000000000E+00 -0.00000000000E+00 -0.18358696911E+03  0.18358696911E+03  0.00000000000E+00 0.  1.
         24    2    1    2    0    0  0.30298685914E+02 -0.21348909339E+01  0.29759205719E+02  0.91676445782E+02  0.81218176899E+02 0.  0.
         23    2    1    2    0    0  0.23648824395E+02 -0.83961261719E+01  0.35522841051E+02  0.10177890012E+03  0.92017989781E+02 0.  0.
        -13    1    3    3    0    0 -0.26184467305E+02  0.69555759187E+01 -0.20733725687E+00  0.27093345182E+02  0.00000000000E+00 0.  1.
         14    1    3    3    0    0  0.56483153219E+02 -0.90904668526E+01  0.29966542976E+02  0.64583100600E+02  0.00000000000E+00 0. -1.
        -11    1    4    4    0    0  0.56117825604E+02  0.93057057311E+01  0.12578049622E+02  0.58258165453E+02  0.00000000000E+00 0.  1.
         11    1    4    4    0    0 -0.32469001209E+02 -0.17701831903E+02  0.22944791428E+02  0.43520734667E+02  0.00000000000E+00 0. -1.
         21    1    1    2  503  502  0.83735513508E+02 -0.35119825792E+02 -0.70910263713E+02  0.11520982548E+03  0.00000000000E+00 0.  1.
          1    1    1    2  501    0 -0.13768302382E+03  0.45650842898E+02  0.17250446507E+03  0.22538501497E+03  0.00000000000E+00 0. -1.
<scales pt_clust_5="13000.00000" pt_clust_6="13000.00000" pt_clust_7="13000.00000" pt_clust_8="13000.00000" pt_clust_9="93.00425" pt_clust_10="13000.00000"></scales>
<clustering>
<clus scale="   81.218">  5  6 -1 -1</clus>
<clus scale="   86.712">  1  5  2 -1</clus>
<clus scale="   92.018">  7  8 -1 -1</clus>
<clus scale="   93.004">  2  9  1 -1</clus>
<clus scale="   84.821">  7 10 -1 -1</clus>
<clus scale="   93.004">  2  5  1 -1</clus>
</clustering>
</event>
<event>
10    4  0.2759992E-005  0.3764210E+03  0.7546771E-02  0.1099566E+00
         21   -1    0    0  501  502  0.00000000000E+00  0.00000000000E+00  0.50731981553E+03  0.50731981553E+03  0.00000000000E+00 0.  1.
          2   -1    0    0  503    0 -0.00000000000E+00 -0.00000000000E+00 -0.16351155520E+03  0.16351155520E+03  0.00000000000E+00 0. -1.
         24    2    1    2    0    0 -0.28731550815E+02 -0.69019639646E+02  0.30971054201E+02  0.11343231309E+03  0.79488809190E+02 0.  0.
         23    2    1    2    0    0  0.97124866855E+02 -0.12753154955E+03  0.10005714764E+03  0.21266703442E+03  0.97561769365E+02 0.  0.
        -11    1    3    3    0    0 -0.74309115962E+01 -0.79424931830E+02  0.75839174680E+01  0.80131479754E+02  0.00000000000E+00 0.  1.
         12    1    3    3    0    0 -0.21300639219E+02  0.10405292184E+02  0.23387136733E+02  0.33300833340E+02  0.00000000000E+00 0. -1.
        -13    1    4    4    0    0  0.74800559592E+02 -0.11204432988E+03  0.30692010798E+02  0.13817038431E+03  0.00000000000E+00 0. -1.
         13    1    4    4    0    0  0.22324307262E+02 -0.15487219671E+02  0.69365136846E+02  0.74496650110E+02  0.00000000000E+00 0.  1.
         21    1    1    2  503  502  0.16209422411E+02  0.33558445334E+02  0.14381879993E+03  0.14856904738E+03  0.00000000000E+00 0. -1.
          1    1    1    2  501    0 -0.84602738451E+02  0.16299274386E+03  0.68961258561E+02  0.19616297583E+03  0.00000000000E+00 0. -1.
<scales pt_clust_5="13000.00000" pt_clust_6="13000.00000" pt_clust_7="13000.00000" pt_clust_8="13000.00000" pt_clust_9="37.26814" pt_clust_10="13000.00000"></scales>
<clustering>
<clus scale="   37.268">  1  9  2 -1</clus>
<clus scale="   79.489">  5  6 -1 -1</clus>
<clus scale="   97.562">  7  8 -1 -1</clus>
<clus scale="  104.167">  2  5  1 -1</clus>
<clus scale="  168.242">  7 10 -1 -1</clus>
<clus scale="   37.268">  1  5  2 -1</clus>
</clustering>
</event>
<event>
10    4  0.2759992E-005  0.1386931E+03  0.7546771E-02  0.1235987E+00
         21   -1    0    0  501  502  0.00000000000E+00  0.00000000000E+00  0.41021504589E+02  0.41021504589E+02  0.00000000000E+00 0.  1.
          2   -1    0    0  503    0 -0.00000000000E+00 -0.00000000000E+00 -0.92755392028E+03  0.92755392028E+03  0.00000000000E+00 0. -1.
         24    2    1    2    0    0  0.51272210973E+02 -0.18636828617E+02 -0.48005749808E+03  0.48978962268E+03  0.80389688540E+02 0.  0.
         23    2    1    2    0    0  0.19947917790E+02  0.10175984303E+02 -0.69286451510E+02  0.11674507482E+03  0.91254205659E+02 0.  0.
        -13    1    3    3    0    0  0.18512814437E+02  0.15922605269E+02 -0.37963377538E+02  0.45138361635E+02  0.00000000000E+00 0.  1.
         14    1    3    3    0    0  0.32759396536E+02 -0.34559433886E+02 -0.44209412054E+03  0.44465126104E+03  0.00000000000E+00 0. -1.
        -11    1    4    4    0    0 -0.25399033507E+02  0.26956266144E+02 -0.55033959041E+02  0.66336172902E+02  0.00000000000E+00 0.  1.
         11    1    4    4    0    0  0.45346951298E+02 -0.16780281841E+02 -0.14252492469E+02  0.50408901915E+02  0.00000000000E+00 0. -1.
         21    1    1    2  503  502 -0.88200885430E+02  0.39162144575E+02 -0.25656235536E+03  0.27411186028E+03  0.00000000000E+00 0.  1.
          1    1    1    2  501    0  0.16980756666E+02 -0.30701300262E+02 -0.80626110740E+02  0.87928867090E+02  0.00000000000E+00 0. -1.
<scales pt_clust_5="13000.00000" pt_clust_6="13000.00000" pt_clust_7="13000.00000" pt_clust_8="13000.00000" pt_clust_9="96.50430" pt_clust_10="13000.00000"></scales>
<clustering>
<clus scale="   80.390">  5  6 -1 -1</clus>
<clus scale="   91.254">  7  8 -1 -1</clus>
<clus scale="   35.084">  7 10 -1 -1</clus>
<clus scale="   96.504">  1  9  2 -1</clus>
<clus scale="   89.809">  2  5  1 -1</clus>
<clus scale="   96.504">  1  5  2 -1</clus>
</clustering>
</event>
<event>
10    4  0.2759992E-005  0.4213147E+03  0.7546771E-02  0.1085638E+00
         21   -1    0    0  503  502  0.00000000000E+00  0.00000000000E+00  0.60887099001E+02  0.60887099001E+02  0.00000000000E+00 0.  1.
          2   -1    0    0  502    0 -0.00000000000E+00 -0.00000000000E+00 -0.15608444832E+04  0.15608444832E+04  0.00000000000E+00 0. -1.
         24    2    1    2    0    0 -0.74017684372E+02 -0.50476304787E+00 -0.18718341113E+03  0.21619712652E+03  0.78896740916E+02 0.  0.
         23    2    1    2    0    0 -0.42522159287E+02  0.12296409927E+03 -0.22548123638E+03  0.27539143690E+03  0.89835136883E+02 0.  0.
        -11    1    3    3    0    0 -0.37861567565E+02 -0.34210065671E+02 -0.54763275800E+02  0.74852142708E+02  0.00000000000E+00 0.  1.
         12    1    3    3    0    0 -0.36156116806E+02  0.33705302623E+02 -0.13242013533E+03  0.14134498381E+03  0.00000000000E+00 0. -1.
        -11    1    4    4    0    0 -0.45033704560E+02  0.11711193351E+02 -0.74350950394E+02  0.87711176144E+02  0.00000000000E+00 0. -1.
         11    1    4    4    0    0  0.25115452729E+01  0.11125290592E+03 -0.15113028599E+03  0.18768026076E+03  0.00000000000E+00 0.  1.
         21    1    1    2  503  501  0.68135683770E+01  0.31756120077E+02 -0.67799531456E+01  0.33178963833E+02  0.00000000000E+00 0.  1.
          1    1    1    2  501    0  0.10972627528E+03 -0.15421545630E+03 -0.10805127836E+04  0.10969640550E+04  0.00000000000E+00 0. -1.
<scales pt_clust_5="13000.00000" pt_clust_6="13000.00000" pt_clust_7="13000.00000" pt_clust_8="13000.00000" pt_clust_9="32.47885" pt_clust_10="13000.00000"></scales>
<clustering>
<clus scale="   32.479">  1  9  2 -1</clus>
<clus scale="   78.897">  5  6 -1 -1</clus>
<clus scale="   89.835">  7  8 -1 -1</clus>
<clus scale="  107.166">  2  5  1 -1</clus>
<clus scale="  152.016">  7 10 -1 -1</clus>
<clus scale="   32.479">  1  5  2 -1</clus>
</clustering>
</event>
<event>
10    4  0.2759992E-005  0.3833371E+03  0.7546771E-02  0.1092221E+00
          2   -1    0    0  503    0 -0.00000000000E+00  0.00000000000E+00  0.39973766102E+03  0.39973766102E+03  0.00000000000E+00 0. -1.
         21   -1    0    0  501  502  0.00000000000E+00 -0.00000000000E+00 -0.39055929581E+03  0.39055929581E+03  0.00000000000E+00 0.  1.
         24    2    1    2    0    0 -0.40148743347E+02  0.74745856992E+02  0.91708833056E+02  0.14791025135E+03  0.79171128982E+02 0.  0.
         23    2    1    2    0    0  0.16628806663E+03  0.10912057613E+03 -0.80740372701E+01  0.21714675025E+03  0.86766928200E+02 0.  0.
        -11    1    3    3    0    0 -0.24348831518E+02  0.46836328142E+02  0.10147572596E+03  0.11438457147E+03  0.00000000000E+00 0.  1.
         12    1    3    3    0    0 -0.15799911829E+02  0.27909528850E+02 -0.97668929087E+01  0.33525679882E+02  0.00000000000E+00 0. -1.
        -11    1    4    4    0    0  0.60522938788E+02  0.87172284237E+02  0.13552550665E+02  0.10698460117E+03  0.00000000000E+00 0.  1.
         11    1    4    4    0    0  0.10576512784E+03  0.21948291896E+02 -0.21626587936E+02  0.11016214908E+03  0.00000000000E+00 0. -1.
         21    1    1    2  503  502 -0.99339760498E+02 -0.30125452881E+02 -0.19974619961E+03  0.22510991800E+03  0.00000000000E+00 0.  1.
          1    1    1    2  501    0 -0.26799562785E+02 -0.15374098024E+03  0.12528976903E+03  0.20013003722E+03  0.00000000000E+00 0. -1.
<scales pt_clust_5="13000.00000" pt_clust_6="13000.00000" pt_clust_7="13000.00000" pt_clust_8="13000.00000" pt_clust_9="103.80718" pt_clust_10="13000.00000"></scales>
<clustering>
<clus scale="   79.171">  5  6 -1 -1</clus>
<clus scale="   86.767">  7  8 -1 -1</clus>
<clus scale="  103.807">  2  9  1 -1</clus>
<clus scale="  119.512">  1  5  2 -1</clus>
<clus scale="  140.658">  7 10 -1 -1</clus>
<clus scale="  103.807">  2  5  1 -1</clus>
</clustering>
</event>
<event>
10    4  0.2759992E-005  0.2986597E+03  0.7546771E-02  0.1118892E+00
          2   -1    0    0  503    0 -0.00000000000E+00  0.00000000000E+00  0.21832237641E+03  0.21832237641E+03  0.00000000000E+00 0. -1.
         21   -1    0    0  501  502  0.00000000000E+00 -0.00000000000E+00 -0.35965158104E+03  0.35965158104E+03  0.00000000000E+00 0. -1.
         24    2    1    2    0    0 -0.76092694135E+02  0.35249394443E+02  0.66868039292E+00  0.11570898652E+03  0.79721418188E+02 0.  0.
         23    2    1    2    0    0  0.17728316637E+03 -0.13365301976E+03 -0.21179817108E+01  0.23808016559E+03  0.85937352950E+02 0.  0.
        -13    1    3    3    0    0 -0.38593123997E+02 -0.24093853368E+02  0.10722423153E+01  0.45509259427E+02  0.00000000000E+00 0.  1.
         14    1    3    3    0    0 -0.37499570138E+02  0.59343247811E+02 -0.40356192237E+00  0.70199727090E+02  0.00000000000E+00 0. -1.
        -13    1    4    4    0    0  0.33052931605E+02 -0.39841691301E+02  0.34449467433E+02  0.62182171559E+02  0.00000000000E+00 0.  1.
         13    1    4    4    0    0  0.14423023476E+03 -0.93811328464E+02 -0.36567449144E+02  0.17589799403E+03  0.00000000000E+00 0. -1.
         21    1    1    2  503  502 -0.44189043743E+02  0.44882440617E+02 -0.13117357932E+03  0.14551155615E+03  0.00000000000E+00 0. -1.
          1    1    1    2  501    0 -0.57001428487E+02  0.53521184704E+02 -0.87063239918E+01  0.78673249197E+02  0.00000000000E+00 0. -1.
<scales pt_clust_5="13000.00000" pt_clust_6="13000.00000" pt_clust_7="13000.00000" pt_clust_8="13000.00000" pt_clust_9="62.98496" pt_clust_10="13000.00000"></scales>
<clustering>
<clus scale="   62.985">  2  9  1 -1</clus>
<clus scale="   79.721">  5  6 -1 -1</clus>
<clus scale="   85.937">  7  8 -1 -1</clus>
<clus scale="   90.616">  7 10 -1 -1</clus>
<clus scale="  127.383">  1  5  2 -1</clus>
<clus scale="   62.985">  2  5  1 -1</clus>
</clustering>
</event>
<event>
10    4  0.2759992E-005  0.2685764E+03  0.7546771E-02  0.1149755E+00
         21   -1    0    0  503  502  0.00000000000E+00  0.00000000000E+00  0.73622804974E+02  0.73622804974E+02  0.00000000000E+00 0. -1.
          2   -1    0    0  502    0 -0.00000000000E+00 -0.00000000000E+00 -0.12358774025E+04  0.12358774025E+04  0.00000000000E+00 0. -1.
         24    2    1    2    0    0 -0.29968239098E+02  0.20718237598E+02 -0.13706439204E+03  0.16302507194E+03  0.80393941261E+02 0.  0.
         23    2    1    2    0    0  0.90932578292E+02  0.81704147196E+02 -0.43242813122E+03  0.45861403985E+03  0.91588467700E+02 0.  0.
        -11    1    3    3    0    0  0.13197206242E+02 -0.16813795899E+02 -0.77702545494E+02  0.80588805434E+02  0.00000000000E+00 0.  1.
         12    1    3    3    0    0 -0.43165445340E+02  0.37532033497E+02 -0.59361846549E+02  0.82436266506E+02  0.00000000000E+00 0. -1.
        -11    1    4    4    0    0  0.69855697112E+02  0.98025807508E+02 -0.39299448752E+03  0.41101526076E+03  0.00000000000E+00 0.  1.
         11    1    4    4    0    0  0.21076881180E+02 -0.16321660312E+02 -0.39433643698E+02  0.47598779091E+02  0.00000000000E+00 0. -1.
         21    1    1    2  503  501  0.26383365117E+02 -0.54100143386E+02  0.22720506399E+02  0.64336062051E+02  0.00000000000E+00 0. -1.
          1    1    1    2  501    0 -0.87347704311E+02 -0.48322241408E+02 -0.61548258066E+03  0.62352503362E+03  0.00000000000E+00 0. -1.
<scales pt_clust_5="13000.00000" pt_clust_6="13000.00000" pt_clust_7="13000.00000" pt_clust_8="13000.00000" pt_clust_9="60.19059" pt_clust_10="13000.00000"></scales>
<clustering>
<clus scale="   60.191">  1  9  2 -1</clus>
<clus scale="   80.394">  5  6 -1 -1</clus>
<clus scale="   82.556">  2  5  1 -1</clus>
<clus scale="   91.588">  7  8 -1 -1</clus>
<clus scale="  110.628">  7 10 -1 -1</clus>
<clus scale="   60.191">  1  5  2 -1</clus>
</clustering>
</event>
<event>
10    4  0.2759992E-005  0.2146171E+03  0.7546771E-02  0.1174174E+00
         21   -1    0    0  503  502  0.00000000000E+00  0.00000000000E+00  0.16967694231E+03  0.16967694231E+03  0.00000000000E+00 0.  1.
         -1   -1    0    0    0  501 -0.00000000000E+00 -0.00000000000E+00 -0.84489250901E+03  0.84489250901E+03  0.00000000000E+00 0.  1.
         24    2    1    2    0    0  0.63212779229E+01  0.23237660729E+02 -0.16345266130E+03  0.18365353580E+03  0.80199135259E+02 0.  0.
         23    2    1    2    0    0  0.14138347128E+02 -0.88563299906E+02 -0.50164120005E+03  0.51753408674E+03  0.90301087494E+02 0.  0.
        -11    1    3    3    0    0 -0.14456979603E+02 -0.14260752631E+02 -0.70721868591E+01  0.21503235845E+02  0.00000000000E+00 0.  1.
         12    1    3    3    0    0  0.20778257526E+02  0.37498413360E+02 -0.15638047444E+03  0.16215029995E+03  0.00000000000E+00 0. -1.
        -13    1    4    4    0    0  0.27670838890E+02  0.51308772887E+01 -0.66417171306E+02  0.72133500338E+02  0.00000000000E+00 0. -1.
         13    1    4    4    0    0 -0.13532491762E+02 -0.93694177195E+02 -0.43522402875E+03  0.44540058641E+03  0.00000000000E+00 0.  1.
         21    1    1    2  503  501  0.59493299510E+02  0.37572910797E+02  0.13107257886E+03  0.14876557815E+03  0.00000000000E+00 0.  1.
         -2    1    1    2    0  502 -0.79952924561E+02  0.27752728380E+02 -0.14119428421E+03  0.16461625063E+03  0.00000000000E+00 0.  1.
<scales pt_clust_5="13000.00000" pt_clust_6="13000.00000" pt_clust_7="13000.00000" pt_clust_8="13000.00000" pt_clust_9="70.36460" pt_clust_10="13000.00000"></scales>
<clustering>
<clus scale="   70.365">  1  9  2 -1</clus>
<clus scale="   80.199">  5  6 -1 -1</clus>
<clus scale="   90.301">  7  8 -1 -1</clus>
<clus scale="   70.756">  7 10 -1 -1</clus>
<clus scale="   91.816">  2  5  1 -1</clus>
<clus scale="   70.365">  1  5  2 -1</clus>
</clustering>
</event>
<event>
10    4  0.2759992E-005  0.2014687E+03  0.7546771E-02  0.1169304E+00
         21   -1    0    0  501  502  0.00000000000E+00  0.00000000000E+00  0.20239442257E+03  0.20239442257E+03  0.00000000000E+00 0.  1.
          4   -1    0    0  503    0 -0.00000000000E+00 -0.00000000000E+00 -0.24333049883E+03  0.24333049883E+03  0.00000000000E+00 0. -1.
         24    2    1    2    0    0 -0.83545827039E+02 -0.41832105881E+02  0.50483596098E+02  0.13298876307E+03  0.80047406766E+02 0.  0.
         23    2    1    2    0    0 -0.27085444276E+02  0.48803724781E+02 -0.55192889438E+02  0.11982654250E+03  0.90535740999E+02 0.  0.
        -11    1    3    3    0    0 -0.57356232719E+02  0.13820205116E+02  0.38149585243E+02  0.70257571517E+02  0.00000000000E+00 0.  1.
         12    1    3    3    0    0 -0.26189594320E+02 -0.55652310998E+02  0.12334010855E+02  0.62731191554E+02  0.00000000000E+00 0. -1.
        -11    1    4    4    0    0 -0.50863095615E+02  0.12297138174E+00 -0.17349217493E+02  0.53740719805E+02  0.00000000000E+00 0.  1.
         11    1    4    4    0    0  0.23777651339E+02  0.48680753399E+02 -0.37843671945E+02  0.66085822693E+02  0.00000000000E+00 0. -1.
         21    1    1    2  503  502  0.20380365286E+02 -0.33606993195E+02  0.51144562335E+02  0.64502368463E+02  0.00000000000E+00 0.  1.
          3    1    1    2  501    0  0.90250906029E+02  0.26635374295E+02 -0.87371345260E+02  0.12840724736E+03  0.00000000000E+00 0. -1.
<scales pt_clust_5="13000.00000" pt_clust_6="13000.00000" pt_clust_7="13000.00000" pt_clust_8="13000.00000" pt_clust_9="39.30381" pt_clust_10="13000.00000"></scales>
<clustering>
<clus scale="   39.304">  1  9  2 -1</clus>
<clus scale="   80.047">  5  6 -1 -1</clus>
<clus scale="   90.536">  7  8 -1 -1</clus>
<clus scale="   95.676">  7 10 -1 -1</clus>
<clus scale="  124.027">  2  5  1 -1</clus>
<clus scale="   39.304">  1  5  2 -1</clus>
</clustering>
</event>
<event>
10    4  0.2759992E-005  0.4889835E+03  0.7546771E-02  0.1033802E+00
         21   -1    0    0  503  502  0.00000000000E+00  0.00000000000E+00  0.64753233355E+02  0.64753233355E+02  0.00000000000E+00 0.  1.
          2   -1    0    0  502    0 -0.00000000000E+00 -0.00000000000E+00 -0.33219158632E+04  0.33219158632E+04  0.00000000000E+00 0. -1.
         24    2    1    2    0    0  0.16783294714E+03  0.24396534799E+03 -0.17089537747E+04  0.17361595329E+04  0.77716990103E+02 0.  0.
         23    2    1    2    0    0 -0.27522745575E+03 -0.82658239310E+02 -0.11003091178E+04  0.11408594013E+04  0.91090515551E+02 0.  0.
        -11    1    3    3    0    0  0.81214132072E+02  0.17220247522E+03 -0.94720317380E+03  0.96614868430E+03  0.00000000000E+00 0.  1.
         12    1    3    3    0    0  0.86618815071E+02  0.71762872768E+02 -0.76175060088E+03  0.77001084860E+03  0.00000000000E+00 0. -1.
        -11    1    4    4    0    0 -0.22181825593E+02 -0.32014902440E+02 -0.89110853679E+02  0.97250869448E+02  0.00000000000E+00 0.  1.
         11    1    4    4    0    0 -0.25304563016E+03 -0.50643336870E+02 -0.10111982641E+04  0.10436085319E+04  0.00000000000E+00 0. -1.
         21    1    1    2  503  501 -0.12361017965E+02 -0.51745955960E+02 -0.29417381907E+02  0.60793265101E+02  0.00000000000E+00 0.  1.
          1    1    1    2  501    0  0.11975552657E+03 -0.10956115272E+03 -0.41848235552E+03  0.44885689725E+03  0.00000000000E+00 0. -1.
<scales pt_clust_5="13000.00000" pt_clust_6="13000.00000" pt_clust_7="13000.00000" pt_clust_8="13000.00000" pt_clust_9="53.20187" pt_clust_10="13000.00000"></scales>
<clustering>
<clus scale="   53.202">  1  9  2 -1</clus>
<clus scale="   77.717">  5  6 -1 -1</clus>
<clus scale="   91.091">  7  8 -1 -1</clus>
<clus scale="  170.908">  7 10 -1 -1</clus>
<clus scale="  292.907">  2  5  1 -1</clus>
<clus scale="   53.202">  1  5  2 -1</clus>
</clustering>
</event>
<event>
10    4  0.2759992E-005  0.3708610E+03  0.7546771E-02  0.1109291E+00
         -3   -1    0    0    0  501 -0.00000000000E+00  0.00000000000E+00  0.28612896249E+03  0.28612896249E+03  0.00000000000E+00 0.  1.
         21   -1    0    0  503  502  0.00000000000E+00 -0.00000000000E+00 -0.40551769826E+03  0.40551769826E+03  0.00000000000E+00 0.  1.
         24    2    1    2    0    0 -0.28938999643E+02  0.27769992748E+00  0.57611835983E+02  0.10252299961E+03  0.79713856926E+02 0.  0.
         23    2    1    2    0    0 -0.13937173130E+02  0.36961367323E+02  0.16971283119E+03  0.19762744447E+03  0.93240411138E+02 0.  0.
        -13    1    3    3    0    0 -0.30229390856E+02 -0.29907022358E+02  0.58470738573E+02  0.72298501555E+02  0.00000000000E+00 0.  1.
         14    1    3    3    0    0  0.12903912135E+01  0.30184722286E+02 -0.85890259008E+00  0.30224498054E+02  0.00000000000E+00 0. -1.
        -11    1    4    4    0    0 -0.12806945874E+02 -0.26547610285E+02  0.21825857702E+02  0.36676443924E+02  0.00000000000E+00 0. -1.
         11    1    4    4    0    0 -0.11302272568E+01  0.63508977608E+02  0.14788697349E+03  0.16095100055E+03  0.00000000000E+00 0.  1.
         21    1    1    2  503  501  0.13496410256E+02 -0.10585577356E+03 -0.19005533329E+03  0.21796473935E+03  0.00000000000E+00 0.  1.
         -4    1    1    2    0  502  0.29379762517E+02  0.68616706314E+02 -0.15665806966E+03  0.17353147732E+03  0.00000000000E+00 0.  1.
<scales pt_clust_5="13000.00000" pt_clust_6="13000.00000" pt_clust_7="13000.00000" pt_clust_8="13000.00000" pt_clust_9="106.46388" pt_clust_10="13000.00000"></scales>
<clustering>
<clus scale="   79.714">  5  6 -1 -1</clus>
<clus scale="   84.805">  1  5  2 -1</clus>
<clus scale="   93.240">  7  8 -1 -1</clus>
<clus scale="   74.194">  7 10 -1 -1</clus>
<clus scale="  106.464">  2  9  1 -1</clus>
<clus scale="  106.464">  2  5  1 -1</clus>
</clustering>
</event>
<event>
10    4  0.2759992E-005  0.1710793E+03  0.7546771E-02  0.1189771E+00
          2   -1    0    0  502    0 -0.00000000000E+00  0.00000000000E+00  0.18610580816E+03  0.18610580816E+03  0.00000000000E+00 0. -1.
         21   -1    0    0  503  502  0.00000000000E+00 -0.00000000000E+00 -0.26388848303E+03  0.26388848303E+03  0.00000000000E+00 0. -1.
         24    2    1    2    0    0 -0.49253741998E+02  0.89569838499E+02  0.57270144652E+02  0.14029233651E+03  0.77158169669E+02 0.  0.
         23    2    1    2    0    0 -0.17848565082E+02 -0.69847810670E+02 -0.40626932969E+02  0.12354769343E+03  0.91739832890E+02 0.  0.
        -11    1    3    3    0    0 -0.54784140450E+02  0.33921546778E+02  0.65025240960E+01  0.64763077446E+02  0.00000000000E+00 0.  1.
         12    1    3    3    0    0  0.55303984520E+01  0.55648291721E+02  0.50767620556E+02  0.75529259068E+02  0.00000000000E+00 0. -1.
        -13    1    4    4    0    0 -0.60151250040E+01 -0.90604277617E+02 -0.41049432833E+02  0.99651255823E+02  0.00000000000E+00 0. -1.
         13    1    4    4    0    0 -0.11833440078E+02  0.20756466947E+02  0.42249986353E+00  0.23896437607E+02  0.00000000000E+00 0.  1.
         21    1    1    2  503  501  0.47561179203E+02  0.20367521651E+02 -0.12282771245E+03  0.13327996343E+03  0.00000000000E+00 0. -1.
          1    1    1    2  501    0  0.19541127878E+02 -0.40089549480E+02  0.28401825891E+02  0.52874297822E+02  0.00000000000E+00 0. -1.
<scales pt_clust_5="13000.00000" pt_clust_6="13000.00000" pt_clust_7="13000.00000" pt_clust_8="13000.00000" pt_clust_9="51.73878" pt_clust_10="13000.00000"></scales>
<clustering>
<clus scale="   51.739">  2  9  1 -1</clus>
<clus scale="   77.158">  5  6 -1 -1</clus>
<clus scale="   91.740">  7  8 -1 -1</clus>
<clus scale="   45.068">  7 10 -1 -1</clus>
<clus scale="  127.810">  1  5  2 -1</clus>
<clus scale="   51.739">  2  5  1 -1</clus>
</clustering>
</event>
<event>
10    4  0.2759992E-005  0.4355364E+03  0.7546771E-02  0.1093938E+00
         21   -1    0    0  501  502  0.00000000000E+00  0.00000000000E+00  0.78787477214E+03  0.78787477214E+03  0.00000000000E+00 0. -1.
          2   -1    0    0  503    0 -0.00000000000E+00 -0.00000000000E+00 -0.94300241357E+02  0.94300241357E+02  0.00000000000E+00 0. -1.
         24    2    1    2    0    0  0.37272608187E+01  0.18378164425E+02  0.89655499682E+02  0.11914076966E+03  0.76189008202E+02 0.  0.
         23    2    1    2    0    0 -0.15256549979E+03 -0.68266384851E+02  0.50471221068E+03  0.53888883655E+03  0.87921735222E+02 0.  0.
        -13    1    3    3    0    0  0.25498792329E+02  0.35025400639E+02  0.27775315820E+02  0.51462950451E+02  0.00000000000E+00 0.  1.
         14    1    3    3    0    0 -0.21771531511E+02 -0.16647236215E+02  0.61880183862E+02  0.67677819208E+02  0.00000000000E+00 0. -1.
        -11    1    4    4    0    0 -0.28223381093E+00 -0.23793739129E+02  0.29533198312E+02  0.37926659228E+02  0.00000000000E+00 0.  1.
         11    1    4    4    0    0 -0.15228326598E+03 -0.44472645722E+02  0.47517901237E+03  0.50096217733E+03  0.00000000000E+00 0. -1.
         21    1    1    2  503  502  0.15063706219E+02 -0.22907827360E+02  0.61371866592E+02  0.67217481420E+02  0.00000000000E+00 0. -1.
          1    1    1    2  501    0  0.13377453275E+03  0.72796047786E+02  0.37834953827E+02  0.15692792587E+03  0.00000000000E+00 0. -1.
<scales pt_clust_5="13000.00000" pt_clust_6="13000.00000" pt_clust_7="13000.00000" pt_clust_8="13000.00000" pt_clust_9="27.41685" pt_clust_10="13000.00000"></scales>
<clustering>
<clus scale="   27.417">  1  9  2 -1</clus>
<clus scale="   76.189">  5  6 -1 -1</clus>
<clus scale="   77.890">  2  5  1 -1</clus>
<clus scale="   87.922">  7  8 -1 -1</clus>
<clus scale="  162.081">  7 10 -1 -1</clus>
<clus scale="   27.417">  1  5  2 -1</clus>
</clustering>
</event>
<event>
10    4  0.2759992E-005  0.2416153E+03  0.7546771E-02  0.1158763E+00
         21   -1    0    0  503  502  0.00000000000E+00  0.00000000000E+00  0.37384802893E+03  0.37384802893E+03  0.00000000000E+00 0. -1.
          2   -1    0    0  502    0 -0.00000000000E+00 -0.00000000000E+00 -0.32564797547E+03  0.32564797547E+03  0.00000000000E+00 0. -1.
         24    2    1    2    0    0 -0.31489470896E+02 -0.31338242915E+02  0.31487965987E+02  0.96997836861E+02  0.80270892031E+02 0.  0.
         23    2    1    2    0    0 -0.31928190594E+02  0.15692426625E+03 -0.10162037509E+03  0.21063518398E+03  0.91628845924E+02 0.  0.
        -13    1    3    3    0    0 -0.39407049365E+02 -0.38228886203E+02 -0.85874075168E+01  0.55570737334E+02  0.00000000000E+00 0.  1.
         14    1    3    3    0    0  0.79175784698E+01  0.68906432881E+01  0.40075373504E+02  0.41427099527E+02  0.00000000000E+00 0. -1.
        -13    1    4    4    0    0 -0.20902397385E+02  0.21374858708E+02 -0.62245298875E+02  0.69052675787E+02  0.00000000000E+00 0.  1.
         13    1    4    4    0    0 -0.11025793209E+02  0.13554940754E+03 -0.39375076220E+02  0.14158250820E+03  0.00000000000E+00 0. -1.
         21    1    1    2  503  501  0.10372042623E+03 -0.16417923195E+03  0.20906575647E+03  0.28534406871E+03  0.00000000000E+00 0.  1.
          1    1    1    2  501    0 -0.40302764736E+02  0.38593208619E+02 -0.90733293901E+02  0.10651891484E+03  0.00000000000E+00 0. -1.
<scales pt_clust_5="13000.00000" pt_clust_6="13000.00000" pt_clust_7="13000.00000" pt_clust_8="13000.00000" pt_clust_9="195.53915" pt_clust_10="13000.00000"></scales>
<clustering>
<clus scale="   80.271">  5  6 -1 -1</clus>
<clus scale="   91.629">  7  8 -1 -1</clus>
<clus scale="   55.801">  7 10 -1 -1</clus>
<clus scale="   91.745">  2  5  1 -1</clus>
<clus scale="  195.539">  1  9  2 -1</clus>
<clus scale="  195.539">  1  5  2 -1</clus>
</clustering>
</event>
<event>
10    4  0.2759992E-005  0.3424624E+03  0.7546771E-02  0.1114629E+00
         21   -1    0    0  503  502  0.00000000000E+00  0.00000000000E+00  0.18078523645E+03  0.18078523645E+03  0.00000000000E+00 0.  1.
          2   -1    0    0  502    0 -0.00000000000E+00 -0.00000000000E+00 -0.35192558900E+03  0.35192558900E+03  0.00000000000E+00 0. -1.
         24    2    1    2    0    0  0.33548917984E+02  0.37148647258E+02 -0.13702887865E+03  0.16596045665E+03  0.79122738169E+02 0.  0.
         23    2    1    2    0    0  0.43074573188E+02 -0.11114688502E+02  0.12751193549E+03  0.16950616519E+03  0.10244067155E+03 0.  0.
        -11    1    3    3    0    0  0.58765261040E+02  0.33071809975E+02 -0.10768907805E+03  0.12705919113E+03  0.00000000000E+00 0.  1.
         12    1    3    3    0    0 -0.25216343056E+02  0.40768372836E+01 -0.29339800604E+02  0.38901265517E+02  0.00000000000E+00 0. -1.
        -11    1    4    4    0    0  0.46519616527E+02  0.39090939308E+02  0.78388445098E+02  0.99181271330E+02  0.00000000000E+00 0.  1.
         11    1    4    4    0    0 -0.34450433395E+01 -0.50205627810E+02  0.49123490395E+02  0.70324893857E+02  0.00000000000E+00 0. -1.
         21    1    1    2  503  501 -0.72632326248E+01  0.19023313476E+02 -0.63742379880E+01  0.21337101811E+02  0.00000000000E+00 0.  1.
          1    1    1    2  501    0 -0.69360258547E+02 -0.45057272232E+02 -0.15524917140E+03  0.17590710181E+03  0.00000000000E+00 0. -1.
<scales pt_clust_5="13000.00000" pt_clust_6="13000.00000" pt_clust_7="13000.00000" pt_clust_8="13000.00000" pt_clust_9="20.36274" pt_clust_10="13000.00000"></scales>
<clustering>
<clus scale="   20.363">  1  9  2 -1</clus>
<clus scale="   79.123">  5  6 -1 -1</clus>
<clus scale="   94.054">  2  5  1 -1</clus>
<clus scale="  102.441">  7  8 -1 -1</clus>
<clus scale="   43.870">  7 10 -1 -1</clus>
<clus scale="   20.363">  1  5  2 -1</clus>
</clustering>
</event>
<event>
10    4  0.2759992E-005  0.8019361E+03  0.7546771E-02  0.9778043E-01
          2   -1    0    0  503    0 -0.00000000000E+00  0.00000000000E+00  0.27410577792E+04  0.27410577792E+04  0.00000000000E+00 0. -1.
         21   -1    0    0  501  502  0.00000000000E+00 -0.00000000000E+00 -0.17730174273E+03  0.17730174273E+03  0.00000000000E+00 0. -1.
         24    2    1    2    0    0 -0.35331544797E+03 -0.14249515321E+03  0.95207659399E+03  0.10286372815E+04  0.80673053971E+02 0.  0.
         23    2    1    2    0    0 -0.75161396361E+02  0.12025982873E+02 -0.11275129146E+02  0.11691550802E+03  0.88024131416E+02 0.  0.
        -11    1    3    3    0    0 -0.50758945342E+02 -0.20537881415E+02  0.22779315228E+03  0.23428187154E+03  0.00000000000E+00 0.  1.
         12    1    3    3    0    0 -0.30255650263E+03 -0.12195727180E+03  0.72428344171E+03  0.79435540998E+03  0.00000000000E+00 0. -1.
        -13    1    4    4    0    0 -0.48070054013E+02  0.47754075624E+02  0.77663713627E+01  0.68201894077E+02  0.00000000000E+00 0.  1.
         13    1    4    4    0    0 -0.27091342347E+02 -0.35728092751E+02 -0.19041500509E+02  0.48713613944E+02  0.00000000000E+00 0. -1.
         21    1    1    2  503  502  0.26715425448E+02  0.15948095132E+02 -0.44229891831E+02  0.54077158086E+02  0.00000000000E+00 0. -1.
          1    1    1    2  501    0  0.40176141889E+03  0.11452107520E+03  0.16671844634E+04  0.17187295743E+04  0.00000000000E+00 0. -1.
<scales pt_clust_5="13000.00000" pt_clust_6="13000.00000" pt_clust_7="13000.00000" pt_clust_8="13000.00000" pt_clust_9="31.11359" pt_clust_10="13000.00000"></scales>
<clustering>
<clus scale="   31.114">  2  9  1 -1</clus>
<clus scale="   80.673">  5  6 -1 -1</clus>
<clus scale="   88.024">  7  8 -1 -1</clus>
<clus scale="  380.440">  1  5  2 -1</clus>
<clus scale="   73.303">  7 10 -1 -1</clus>
<clus scale="   31.114">  2  5  1 -1</clus>
</clustering>
</event>
<event>
10    4  0.2759992E-005  0.1763124E+03  0.7546771E-02  0.1193861E+00
          2   -1    0    0  503    0 -0.00000000000E+00  0.00000000000E+00  0.32994217779E+03  0.32994217779E+03  0.00000000000E+00 0. -1.
         21   -1    0    0  501  502  0.00000000000E+00 -0.00000000000E+00 -0.13376834667E+03  0.13376834667E+03  0.00000000000E+00 0.  1.
         24    2    1    2    0    0  0.63449728429E+02 -0.19215438136E+02  0.95078787911E+02  0.14291986598E+03  0.83612266329E+02 0.  0.
         23    2    1    2    0    0 -0.28873091243E+01 -0.28681948002E+02  0.54891236355E+02  0.11350642807E+03  0.95077182805E+02 0.  0.
        -13    1    3    3    0    0 -0.15832725445E+02 -0.21905539152E+02  0.19278842159E+02  0.33199421614E+02  0.00000000000E+00 0.  1.
         14    1    3    3    0    0  0.79282453874E+02  0.26901010157E+01  0.75799945752E+02  0.10972044437E+03  0.00000000000E+00 0. -1.
        -13    1    4    4    0    0  0.36712590534E+02 -0.14361030806E+02  0.59255838246E+02  0.71170976358E+02  0.00000000000E+00 0.  1.
         13    1    4    4    0    0 -0.39599899658E+02 -0.14320917196E+02 -0.43646018907E+01  0.42335451715E+02  0.00000000000E+00 0. -1.
         21    1    1    2  503  502 -0.35145503900E+02  0.11191878637E+03 -0.10896570383E+02  0.11781237809E+03  0.00000000000E+00 0.  1.
          1    1    1    2  501    0 -0.25416915406E+02 -0.64021400229E+02  0.57100377234E+02  0.89471852313E+02  0.00000000000E+00 0. -1.
<scales pt_clust_5="13000.00000" pt_clust_6="13000.00000" pt_clust_7="13000.00000" pt_clust_8="13000.00000" pt_clust_9="108.73373" pt_clust_10="13000.00000"></scales>
<clustering>
<clus scale="   83.612">  5  6 -1 -1</clus>
<clus scale="   95.077">  7  8 -1 -1</clus>
<clus scale="   68.882">  7 10 -1 -1</clus>
<clus scale="  106.706">  1  5  2 -1</clus>
<clus scale="  108.734">  2  9  1 -1</clus>
<clus scale="  108.734">  2  5  1 -1</clus>
</clustering>
</event>
<event>
10    4  0.2759992E-005  0.4992460E+03  0.7546771E-02  0.1073762E+00
         21   -1    0    0  503  502  0.00000000000E+00  0.00000000000E+00  0.26847369792E+03  0.26847369792E+03  0.00000000000E+00 0. -1.
          2   -1    0    0  502    0 -0.00000000000E+00 -0.00000000000E+00 -0.72306773943E+03  0.72306773943E+03  0.00000000000E+00 0. -1.
         24    2    1    2    0    0 -0.29180216230E+02  0.32560642571E+01  0.28356453525E+02  0.90394041689E+02  0.80653005788E+02 0.  0.
         23    2    1    2    0    0 -0.11274187226E+03 -0.14497324647E+03 -0.49735866057E+03  0.53807727437E+03  0.91834329057E+02 0.  0.
        -11    1    3    3    0    0 -0.31566867927E+02  0.16072676247E+02 -0.19746891764E+02  0.40555367176E+02  0.00000000000E+00 0.  1.
         12    1    3    3    0    0  0.23866516965E+01 -0.12816611990E+02  0.48103345289E+02  0.49838674513E+02  0.00000000000E+00 0. -1.
        -13    1    4    4    0    0 -0.17343116022E+02 -0.94483905884E+02 -0.20381934447E+03  0.22532269598E+03  0.00000000000E+00 0.  1.
         13    1    4    4    0    0 -0.95398756234E+02 -0.50489340587E+02 -0.29353931610E+03  0.31275457839E+03  0.00000000000E+00 0. -1.
         21    1    1    2  503  501 -0.19580207046E+02 -0.85706028754E+01  0.11759343557E+03  0.11952010638E+03  0.00000000000E+00 0. -1.
          1    1    1    2  501    0  0.16150229553E+03  0.15028778509E+03 -0.10318527003E+03  0.24355001490E+03  0.00000000000E+00 0. -1.
<scales pt_clust_5="13000.00000" pt_clust_6="13000.00000" pt_clust_7="13000.00000" pt_clust_8="13000.00000" pt_clust_9="21.37381" pt_clust_10="13000.00000"></scales>
<clustering>
<clus scale="   21.374">  1  9  2 -1</clus>
<clus scale="   80.653">  5  6 -1 -1</clus>
<clus scale="   88.708">  2  5  1 -1</clus>
<clus scale="   91.834">  7  8 -1 -1</clus>
<clus scale="  205.086">  7 10 -1 -1</clus>
<clus scale="   21.374">  1  5  2 -1</clus>
</clustering>
</event>
<event>
10    4  0.2759992E-005  0.3655862E+03  0.7546771E-02  0.1078783E+00
         21   -1    0    0  501  502  0.00000000000E+00  0.00000000000E+00  0.88769909568E+03  0.88769909568E+03  0.00000000000E+00 0. -1.
          2   -1    0    0  503    0 -0.00000000000E+00 -0.00000000000E+00 -0.21276028745E+03  0.21276028745E+03  0.00000000000E+00 0. -1.
         24    2    1    2    0    0 -0.15256017909E+03 -0.68051617788E+02  0.60781630632E+03  0.63425973234E+03  0.70278836902E+02 0.  0.
         23    2    1    2    0    0 -0.35706822591E+02 -0.33996276576E+02 -0.74301745192E+02  0.12837606956E+03  0.92352270659E+02 0.  0.
        -13    1    3    3    0    0 -0.93455641388E+02 -0.75970629864E+02  0.37147839922E+03  0.39051465350E+03  0.00000000000E+00 0.  1.
         14    1    3    3    0    0 -0.59104537704E+02  0.79190120761E+01  0.23633790710E+03  0.24374507884E+03  0.00000000000E+00 0. -1.
        -11    1    4    4    0    0 -0.16239501163E+02  0.25444633584E+02  0.13507667504E+01  0.30215481910E+02  0.00000000000E+00 0.  1.
         11    1    4    4    0    0 -0.19467321428E+02 -0.59440910159E+02 -0.75652511942E+02  0.98160587648E+02  0.00000000000E+00 0. -1.
         21    1    1    2  503  502 -0.36716823762E+02  0.44144223556E+02  0.78278268803E+02  0.97078962641E+02  0.00000000000E+00 0. -1.
          1    1    1    2  501    0  0.22498382545E+03  0.57903670808E+02  0.63145978304E+02  0.24074461859E+03  0.00000000000E+00 0. -1.
<scales pt_clust_5="13000.00000" pt_clust_6="13000.00000" pt_clust_7="13000.00000" pt_clust_8="13000.00000" pt_clust_9="57.41809" pt_clust_10="13000.00000"></scales>
<clustering>
<clus scale="   57.418">  1  9  2 -1</clus>
<clus scale="   70.279">  5  6 -1 -1</clus>
<clus scale="   92.352">  7  8 -1 -1</clus>
<clus scale="  197.140">  2  5  1 -1</clus>
<clus scale="  144.388">  7 10 -1 -1</clus>
<clus scale="   57.418">  1  5  2 -1</clus>
</clustering>
</event>
<event>
10    4  0.2759992E-005  0.2122126E+03  0.7546771E-02  0.1180457E+00
         21   -1    0    0  503  502  0.00000000000E+00  0.00000000000E+00  0.58097460515E+02  0.58097460515E+02  0.00000000000E+00 0. -1.
          2   -1    0    0  502    0 -0.00000000000E+00 -0.00000000000E+00 -0.49849190449E+03  0.49849190449E+03  0.00000000000E+00 0. -1.
         24    2    1    2    0    0 -0.23857939853E+02 -0.17192416475E+01 -0.11220089092E+03  0.14028905247E+03  0.80745409997E+02 0.  0.
         23    2    1    2    0    0 -0.70401177840E+02 -0.18570491598E+02 -0.10124772161E+03  0.15528096751E+03  0.92519666777E+02 0.  0.
        -11    1    3    3    0    0  0.15964151752E+02 -0.30082748063E+02 -0.58299678027E+02  0.67517985235E+02  0.00000000000E+00 0.  1.
         12    1    3    3    0    0 -0.39822091606E+02  0.28363506415E+02 -0.53901212890E+02  0.72771067238E+02  0.00000000000E+00 0. -1.
        -13    1    4    4    0    0 -0.39269310399E+02  0.11877196486E+02  0.41561039264E+01  0.41236145982E+02  0.00000000000E+00 0. -1.
         13    1    4    4    0    0 -0.31131867441E+02 -0.30447688084E+02 -0.10540382554E+03  0.11404482153E+03  0.00000000000E+00 0.  1.
         21    1    1    2  503  501  0.26193046397E+02  0.19668938146E+02 -0.10927785876E+02  0.34530556200E+02  0.00000000000E+00 0. -1.
          1    1    1    2  501    0  0.68066071297E+02  0.62079509990E+00 -0.21601804558E+03  0.22648878882E+03  0.00000000000E+00 0. -1.
<scales pt_clust_5="13000.00000" pt_clust_6="13000.00000" pt_clust_7="13000.00000" pt_clust_8="13000.00000" pt_clust_9="32.75581" pt_clust_10="13000.00000"></scales>
<clustering>
<clus scale="   32.756">  1  9  2 -1</clus>
<clus scale="   80.745">  5  6 -1 -1</clus>
<clus scale="   82.408">  2  5  1 -1</clus>
<clus scale="   92.520">  7  8 -1 -1</clus>
<clus scale="   60.779">  7 10 -1 -1</clus>
<clus scale="   32.756">  1  5  2 -1</clus>
</clustering>
</event>
<event>
10    4  0.2759992E-005  0.2614726E+03  0.7546771E-02  0.1111187E+00
         21   -1    0    0  503  502  0.00000000000E+00  0.00000000000E+00  0.25892175857E+03  0.25892175857E+03  0.00000000000E+00 0.  1.
          2   -1    0    0  502    0 -0.00000000000E+00 -0.00000000000E+00 -0.43586142570E+03  0.43586142570E+03  0.00000000000E+00 0. -1.
         24    2    1    2    0    0  0.29502673054E+02 -0.18759364274E+03 -0.87130399430E+02  0.22457543079E+03  0.82344611803E+02 0.  0.
         23    2    1    2    0    0 -0.12397475037E+02  0.13889391598E+03 -0.66980550944E+02  0.17964306674E+03  0.91323709624E+02 0.  0.
        -13    1    3    3    0    0  0.53367332296E+02 -0.13847614795E+03 -0.82443670155E+02  0.16976652926E+03  0.00000000000E+00 0.  1.
         14    1    3    3    0    0 -0.23864659242E+02 -0.49117494790E+02 -0.46867292744E+01  0.54808901526E+02  0.00000000000E+00 0. -1.
        -13    1    4    4    0    0  0.16198715160E+02  0.12189471810E+03 -0.76772472404E+02  0.14496459290E+03  0.00000000000E+00 0.  1.
         13    1    4    4    0    0 -0.28596190197E+02  0.16999197874E+02  0.97919214601E+01  0.34678473843E+02  0.00000000000E+00 0. -1.
         21    1    1    2  503  501 -0.18092801160E+02 -0.55839240619E+02  0.10810633897E+03  0.12301362027E+03  0.00000000000E+00 0.  1.
          1    1    1    2  501    0  0.98760314319E+00  0.10453896738E+03 -0.13093505572E+03  0.16755106648E+03  0.00000000000E+00 0. -1.
<scales pt_clust_5="13000.00000" pt_clust_6="13000.00000" pt_clust_7="13000.00000" pt_clust_8="13000.00000" pt_clust_9="58.69728" pt_clust_10="13000.00000"></scales>
<clustering>
<clus scale="   58.697">  1  9  2 -1</clus>
<clus scale="   82.345">  5  6 -1 -1</clus>
<clus scale="   91.324">  7  8 -1 -1</clus>
<clus scale="   97.417">  7 10 -1 -1</clus>
<clus scale="  230.576">  2  5  1 -1</clus>
<clus scale="   58.697">  1  5  2 -1</clus>
</clustering>
</event>
<event>
10    4  0.2759992E-005  0.3114769E+03  0.7546771E-02  0.1129926E+00
         21   -1    0    0  501  502  0.00000000000E+00  0.00000000000E+00  0.27228351050E+03  0.27228351050E+03  0.00000000000E+00 0.  1.
          2   -1    0    0  503    0 -0.00000000000E+00 -0.00000000000E+00 -0.82835350998E+03  0.82835350998E+03  0.00000000000E+00 0. -1.
         24    2    1    2    0    0  0.19436083654E+02  0.20334204367E+02 -0.67259223459E+03  0.67800163940E+03  0.80713491936E+02 0.  0.
         23    2    1    2    0    0 -0.64054755923E+02  0.69146674620E+02 -0.39033445681E+01  0.13242541896E+03  0.92935359898E+02 0.  0.
        -13    1    3    3    0    0 -0.29379279629E+02  0.26488382332E+01 -0.15269055079E+03  0.15551386664E+03  0.00000000000E+00 0.  1.
         14    1    3    3    0    0  0.48815363283E+02  0.17685366134E+02 -0.51990168380E+03  0.52248777277E+03  0.00000000000E+00 0. -1.
        -13    1    4    4    0    0 -0.86923121283E+02  0.61978286565E+02  0.49645228630E+01  0.10687180875E+03  0.00000000000E+00 0.  1.
         13    1    4    4    0    0  0.22868365360E+02  0.71683880554E+01 -0.88678674311E+01  0.25553610201E+02  0.00000000000E+00 0. -1.
         21    1    1    2  503  502 -0.55040582421E+02  0.23225764724E+02 -0.38733101075E+02  0.71197998421E+02  0.00000000000E+00 0.  1.
          1    1    1    2  501    0  0.99659254691E+02 -0.11270664371E+03  0.15915868076E+03  0.21901196370E+03  0.00000000000E+00 0. -1.
<scales pt_clust_5="13000.00000" pt_clust_6="13000.00000" pt_clust_7="13000.00000" pt_clust_8="13000.00000" pt_clust_9="59.74032" pt_clust_10="13000.00000"></scales>
<clustering>
<clus scale="   59.740">  1  9  2 -1</clus>
<clus scale="   80.713">  5  6 -1 -1</clus>
<clus scale="   85.403">  2  5  1 -1</clus>
<clus scale="   92.935">  7  8 -1 -1</clus>
<clus scale="  109.860">  7 10 -1 -1</clus>
<clus scale="   59.740">  1  5  2 -1</clus>
</clustering>
</event>
<event>
10    4  0.2759992E-005  0.2224389E+03  0.7546771E-02  0.1152787E+00
         21   -1    0    0  501  502  0.00000000000E+00  0.00000000000E+00  0.13342006222E+03  0.13342006222E+03  0.00000000000E+00 0.  1.
          2   -1    0    0  503    0 -0.00000000000E+00 -0.00000000000E+00 -0.44298292574E+03  0.44298292574E+03  0.00000000000E+00 0. -1.
         24    2    1    2    0    0 -0.73939972043E+02  0.76207744124E+02 -0.28749887092E+03  0.31722176228E+03  0.81849288068E+02 0.  0.
         23    2    1    2    0    0  0.49778822904E+02 -0.65004638153E+02  0.56847677450E+02  0.13437067391E+03  0.90112626113E+02 0.  0.
        -11    1    3    3    0    0  0.77341764357E+01  0.37820045923E+02 -0.50090715807E+02  0.63239648709E+02  0.00000000000E+00 0.  1.
         12    1    3    3    0    0 -0.81674148479E+02  0.38387698201E+02 -0.23740815511E+03  0.25398211357E+03  0.00000000000E+00 0. -1.
        -13    1    4    4    0    0  0.33149915064E+02 -0.27809458416E+02  0.77448010905E+02  0.88715710217E+02  0.00000000000E+00 0. -1.
         13    1    4    4    0    0  0.16628907839E+02 -0.37195179737E+02 -0.20600333454E+02  0.45654963695E+02  0.00000000000E+00 0.  1.
         21    1    1    2  503  502 -0.26990982460E+02 -0.10073807019E+02  0.22178662359E+01  0.28894872429E+02  0.00000000000E+00 0. -1.
          1    1    1    2  501    0  0.51152131600E+02 -0.11292989517E+01 -0.81129536295E+02  0.95915679337E+02  0.00000000000E+00 0. -1.
<scales pt_clust_5="13000.00000" pt_clust_6="13000.00000" pt_clust_7="13000.00000" pt_clust_8="13000.00000" pt_clust_9="28.80963" pt_clust_10="13000.00000"></scales>
<clustering>
<clus scale="   28.810">  1  9  2 -1</clus>
<clus scale="   81.849">  5  6 -1 -1</clus>
<clus scale="   90.113">  7  8 -1 -1</clus>
<clus scale="   49.490">  7 10 -1 -1</clus>
<clus scale="  135.266">  2  5  1 -1</clus>
<clus scale="   28.810">  1  5  2 -1</clus>
</clustering>
</event>
<event>
10    4  0.2759992E-005  0.2441089E+03  0.7546771E-02  0.1159974E+00
         21   -1    0    0  503  502  0.00000000000E+00  0.00000000000E+00  0.59206594057E+02  0.59206594057E+02  0.00000000000E+00 0. -1.
          2   -1    0    0  502    0 -0.00000000000E+00 -0.00000000000E+00 -0.91791473234E+03  0.91791473234E+03  0.00000000000E+00 0. -1.
         24    2    1    2    0    0 -0.22461103674E+02 -0.17161557105E+02 -0.33180828219E+03  0.34248534228E+03  0.80002833210E+02 0.  0.
         23    2    1    2    0    0  0.16343400532E+02 -0.85986093617E+02 -0.25371555387E+03  0.28339394183E+03  0.90993565472E+02 0.  0.
        -13    1    3    3    0    0 -0.49602204741E+02 -0.12663387258E+02 -0.27029488081E+03  0.27510009575E+03  0.00000000000E+00 0.  1.
         14    1    3    3    0    0  0.27141101067E+02 -0.44981698472E+01 -0.61513401383E+02  0.67385246522E+02  0.00000000000E+00 0. -1.
        -13    1    4    4    0    0 -0.26177825879E+02  0.40834568259E+01 -0.47691607717E+02  0.54556783575E+02  0.00000000000E+00 0.  1.
         13    1    4    4    0    0  0.42521226411E+02 -0.90069550443E+02 -0.20602394615E+03  0.22883715826E+03  0.00000000000E+00 0. -1.
         21    1    1    2  503  501 -0.23936562148E+02 -0.14218395511E+02  0.19821805427E+02  0.34176391687E+02  0.00000000000E+00 0. -1.
          1    1    1    2  501    0  0.30054265290E+02  0.11736604623E+03 -0.29300610765E+03  0.31706565060E+03  0.00000000000E+00 0. -1.
<scales pt_clust_5="13000.00000" pt_clust_6="13000.00000" pt_clust_7="13000.00000" pt_clust_8="13000.00000" pt_clust_9="27.84101" pt_clust_10="13000.00000"></scales>
<clustering>
<clus scale="   27.841">  1  9  2 -1</clus>
<clus scale="   80.003">  5  6 -1 -1</clus>
<clus scale="   86.486">  2  5  1 -1</clus>
<clus scale="   90.994">  7  8 -1 -1</clus>
<clus scale="  102.921">  7 10 -1 -1</clus>
<clus scale="   27.841">  1  5  2 -1</clus>
</clustering>
</event>
<event>
10    4  0.2759992E-005  0.1333358E+03  0.7546771E-02  0.1238788E+00
         21   -1    0    0  501  502  0.00000000000E+00  0.00000000000E+00  0.25274471357E+03  0.25274471357E+03  0.00000000000E+00 0.  1.
          2   -1    0    0  503    0 -0.00000000000E+00 -0.00000000000E+00 -0.40669368151E+03  0.40669368151E+03  0.00000000000E+00 0. -1.
         24    2    1    2    0    0  0.27551159473E+02 -0.32281826154E+02 -0.36683068243E+03  0.37911353391E+03  0.85797082317E+02 0.  0.
         23    2    1    2    0    0 -0.11395927541E+02  0.26051465154E+02  0.15329477964E+03  0.17985301035E+03  0.89661975581E+02 0.  0.
        -11    1    3    3    0    0  0.42824661920E+02  0.60114734046E+01 -0.97690503141E+02  0.10683409514E+03  0.00000000000E+00 0.  1.
         12    1    3    3    0    0 -0.15273502446E+02 -0.38293299559E+02 -0.26914017929E+03  0.27227943877E+03  0.00000000000E+00 0. -1.
        -11    1    4    4    0    0  0.19208057931E+02 -0.80532396328E+01  0.10418719853E+01  0.20854008135E+02  0.00000000000E+00 0. -1.
         11    1    4    4    0    0 -0.30603985472E+02  0.34104704787E+02  0.15225290766E+03  0.15899900221E+03  0.00000000000E+00 0.  1.
         21    1    1    2  503  502  0.69881803980E+01  0.35091367308E+02  0.74570352559E+01  0.36549228441E+02  0.00000000000E+00 0.  1.
          1    1    1    2  501    0 -0.23143412330E+02 -0.28861006308E+02  0.52129899592E+02  0.63922622372E+02  0.00000000000E+00 0. -1.
<scales pt_clust_5="13000.00000" pt_clust_6="13000.00000" pt_clust_7="13000.00000" pt_clust_8="13000.00000" pt_clust_9="35.78042" pt_clust_10="13000.00000"></scales>
<clustering>
<clus scale="   35.780">  1  9  2 -1</clus>
<clus scale="   85.797">  5  6 -1 -1</clus>
<clus scale="   89.662">  7  8 -1 -1</clus>
<clus scale="   29.306">  7 10 -1 -1</clus>
<clus scale="   95.463">  2  5  1 -1</clus>
<clus scale="   35.780">  1  5  2 -1</clus>
</clustering>
</event>
<event>
10    4  0.2759992E-005  0.3964295E+03  0.7546771E-02  0.1057371E+00
          2   -1    0    0  503    0 -0.00000000000E+00  0.00000000000E+00  0.75245918454E+03  0.75245918454E+03  0.00000000000E+00 0. -1.
         21   -1    0    0  501  502  0.00000000000E+00 -0.00000000000E+00 -0.17524424626E+03  0.17524424626E+03  0.00000000000E+00 0. -1.
         24    2    1    2    0    0 -0.16219266115E+03  0.21006000251E+03  0.24494235022E+03  0.37004120592E+03  0.80635446059E+02 0.  0.
         23    2    1    2    0    0 -0.30762393920E+02 -0.29528577219E+01  0.31870194863E+02  0.10325473046E+03  0.93224384115E+02 0.  0.
        -11    1    3    3    0    0 -0.12087690817E+03  0.90890189081E+02  0.13465401225E+03  0.20249433675E+03  0.00000000000E+00 0.  1.
         12    1    3    3    0    0 -0.41315752984E+02  0.11916981343E+03  0.11028833797E+03  0.16754686917E+03  0.00000000000E+00 0. -1.
        -11    1    4    4    0    0 -0.30186643344E+02  0.42417948217E+02  0.23474223608E+02  0.57110024876E+02  0.00000000000E+00 0.  1.
         11    1    4    4    0    0 -0.57575057569E+00 -0.45370805939E+02  0.83959712552E+01  0.46144705585E+02  0.00000000000E+00 0. -1.
         21    1    1    2  503  502  0.17693250908E+02  0.18129382734E+02 -0.14689076994E+02  0.29283009220E+02  0.00000000000E+00 0.  1.
          1    1    1    2  501    0  0.17526180417E+03 -0.22523652752E+03  0.31509147019E+03  0.42512448520E+03  0.00000000000E+00 0. -1.
<scales pt_clust_5="13000.00000" pt_clust_6="13000.00000" pt_clust_7="13000.00000" pt_clust_8="13000.00000" pt_clust_9="25.33230" pt_clust_10="13000.00000"></scales>
<clustering>
<clus scale="   25.332">  2  9  1 -1</clus>
<clus scale="   80.635">  5  6 -1 -1</clus>
<clus scale="   93.224">  7  8 -1 -1</clus>
<clus scale="  278.939">  1  5  2 -1</clus>
<clus scale="   62.063">  7 10 -1 -1</clus>
<clus scale="   25.332">  2  5  1 -1</clus>
</clustering>
</event>
<event>
10    4  0.4647206E-005  0.5671837E+03  0.7546771E-02  0.1048145E+00
         -1   -1    0    0    0  501 -0.00000000000E+00  0.00000000000E+00  0.35286876225E+03  0.35286876225E+03  0.00000000000E+00 0.  1.
         21   -1    0    0  503  502  0.00000000000E+00 -0.00000000000E+00 -0.61854737464E+03  0.61854737464E+03  0.00000000000E+00 0.  1.
         24    2    1    2    0    0 -0.82730393865E+02  0.36534065565E+02  0.15249687824E+03  0.19562180913E+03  0.82665218323E+02 0.  0.
         23    2    1    2    0    0 -0.90560746931E+02  0.25980328186E+02  0.11428163917E+03  0.17518169015E+03  0.93552686630E+02 0.  0.
        -13    1    3    3    0    0 -0.83549836446E+02  0.52143745009E+02  0.15050438373E+03  0.17986415661E+03  0.00000000000E+00 0.  1.
         14    1    3    3    0    0  0.81944258040E+00 -0.15609679444E+02  0.19924945093E+01  0.15757652517E+02  0.00000000000E+00 0. -1.
        -11    1    4    4    0    0 -0.49279281041E+02 -0.33854257606E+02  0.45833399200E+02  0.75334313431E+02  0.00000000000E+00 0. -1.
         11    1    4    4    0    0 -0.41281465890E+02  0.59834585792E+02  0.68448239972E+02  0.99847376722E+02  0.00000000000E+00 0.  1.
         21    1    1    2  503  501 -0.48266618051E+02 -0.15456976982E+02 -0.11486578367E+03  0.12554972248E+03  0.00000000000E+00 0.  1.
         -2    1    1    2    0  502  0.22155775885E+03 -0.47057416769E+02 -0.41759134613E+03  0.47506291514E+03  0.00000000000E+00 0.  1.
<scales pt_clust_5="13000.00000" pt_clust_6="13000.00000" pt_clust_7="13000.00000" pt_clust_8="13000.00000" pt_clust_9="50.68121" pt_clust_10="13000.00000"></scales>
<clustering>
<clus scale="   50.681">  2  9  1 -1</clus>
<clus scale="   82.665">  5  6 -1 -1</clus>
<clus scale="   93.553">  7  8 -1 -1</clus>
<clus scale="  123.750">  1  5  2 -1</clus>
<clus scale="  175.210">  7 10 -1 -1</clus>
<clus scale="   50.681">  2  5  1 -1</clus>
</clustering>
</event>
<event>
10    4  0.2759992E-005  0.2265669E+03  0.7546771E-02  0.1165704E+00
          4   -1    0    0  503    0 -0.00000000000E+00  0.00000000000E+00  0.51366020746E+03  0.51366020746E+03  0.00000000000E+00 0. -1.
         21   -1    0    0  501  502  0.00000000000E+00 -0.00000000000E+00 -0.25328866996E+03  0.25328866996E+03  0.00000000000E+00 0.  1.
         24    2    1    2    0    0 -0.33904206176E+02 -0.38174596579E+02  0.23175558691E+03  0.25036701869E+03  0.79788451309E+02 0.  0.
         23    2    1    2    0    0 -0.10331055577E+03  0.53908696458E+00  0.91473742329E+02  0.16561408482E+03  0.91581755861E+02 0.  0.
        -13    1    3    3    0    0  0.13093750058E+02  0.16559029228E+02  0.72945478542E+02  0.75938729113E+02  0.00000000000E+00 0.  1.
         14    1    3    3    0    0 -0.46997956234E+02 -0.54733625807E+02  0.15881010837E+03  0.17442828958E+03  0.00000000000E+00 0. -1.
        -13    1    4    4    0    0 -0.64628245079E+02 -0.40702397534E+02  0.29912304053E+02  0.82025856660E+02  0.00000000000E+00 0.  1.
         13    1    4    4    0    0 -0.38682310686E+02  0.41241484499E+02  0.61561438276E+02  0.83588228156E+02  0.00000000000E+00 0. -1.
         21    1    1    2  503  502  0.94654071436E+02  0.65606251517E+02 -0.18540299168E+03  0.21826095116E+03  0.00000000000E+00 0.  1.
          3    1    1    2  501    0  0.42560690505E+02 -0.27970741903E+02  0.12254519993E+03  0.13270682275E+03  0.00000000000E+00 0. -1.
<scales pt_clust_5="13000.00000" pt_clust_6="13000.00000" pt_clust_7="13000.00000" pt_clust_8="13000.00000" pt_clust_9="112.17995" pt_clust_10="13000.00000"></scales>
<clustering>
<clus scale="   79.788">  5  6 -1 -1</clus>
<clus scale="   91.582">  7  8 -1 -1</clus>
<clus scale="   50.929">  7 10 -1 -1</clus>
<clus scale="   94.726">  1  5  2 -1</clus>
<clus scale="  112.180">  2  9  1 -1</clus>
<clus scale="  112.180">  2  5  1 -1</clus>
</clustering>
</event>
<event>
10    4  0.2759992E-005  0.6616994E+03  0.7546771E-02  0.1045717E+00
          2   -1    0    0  503    0 -0.00000000000E+00  0.00000000000E+00  0.21528343553E+04  0.21528343553E+04  0.00000000000E+00 0. -1.
         21   -1    0    0  501  502  0.00000000000E+00 -0.00000000000E+00 -0.21394772095E+03  0.21394772095E+03  0.00000000000E+00 0. -1.
         24    2    1    2    0    0  0.90803722683E+01 -0.22256107833E+02  0.38227399740E+03  0.39130045942E+03  0.80030325230E+02 0.  0.
         23    2    1    2    0    0  0.67117300011E+02 -0.12120192337E+03  0.92688961271E+02  0.19153707387E+03  0.94342826625E+02 0.  0.
        -13    1    3    3    0    0 -0.16053489370E+02  0.16507364905E+02  0.41941148489E+02  0.47846290908E+02  0.00000000000E+00 0.  1.
         14    1    3    3    0    0  0.25133861638E+02 -0.38763472738E+02  0.34033284891E+03  0.34345416851E+03  0.00000000000E+00 0. -1.
        -11    1    4    4    0    0  0.99576892605E+01 -0.10844368276E+03  0.64115201076E+02  0.12637225532E+03  0.00000000000E+00 0.  1.
         11    1    4    4    0    0  0.57159610751E+02 -0.12758240608E+02  0.28573760194E+02  0.65164818547E+02  0.00000000000E+00 0. -1.
         21    1    1    2  503  502 -0.46867464642E+03  0.15403551441E+03  0.35561786731E+03  0.60815041844E+03  0.00000000000E+00 0. -1.
          1    1    1    2  501    0  0.39247697414E+03 -0.10577483209E+02  0.11083058083E+04  0.11757941245E+04  0.00000000000E+00 0. -1.
<scales pt_clust_5="13000.00000" pt_clust_6="13000.00000" pt_clust_7="13000.00000" pt_clust_8="13000.00000" pt_clust_9="489.11408" pt_clust_10="13000.00000"></scales>
<clustering>
<clus scale="   80.030">  5  6 -1 -1</clus>
<clus scale="   83.562">  1  5  2 -1</clus>
<clus scale="   94.343">  7  8 -1 -1</clus>
<clus scale="  399.131">  7 10 -1 -1</clus>
<clus scale="  489.114">  2  9  1 -1</clus>
<clus scale="  489.114">  2  5  1 -1</clus>
</clustering>
</event>
<event>
10    4  0.2759992E-005  0.1705065E+03  0.7546771E-02  0.1210287E+00
         -1   -1    0    0    0  501 -0.00000000000E+00  0.00000000000E+00  0.12047346783E+03  0.12047346783E+03  0.00000000000E+00 0.  1.
         21   -1    0    0  503  502  0.00000000000E+00 -0.00000000000E+00 -0.17804049985E+03  0.17804049985E+03  0.00000000000E+00 0. -1.
         24    2    1    2    0    0  0.14222269571E+02  0.12076715532E+02 -0.25155224403E+02  0.87406959885E+02  0.81603132978E+02 0.  0.
         23    2    1    2    0    0 -0.55763615648E+01 -0.15176557517E+02 -0.57137090147E+02  0.10609995451E+03  0.87926842153E+02 0.  0.
        -11    1    3    3    0    0 -0.12361652376E+02  0.41759688052E+02 -0.16892448106E+02  0.46712276745E+02  0.00000000000E+00 0.  1.
         12    1    3    3    0    0  0.26583921947E+02 -0.29682972521E+02 -0.82627762966E+01  0.40694683140E+02  0.00000000000E+00 0. -1.
        -11    1    4    4    0    0 -0.25061719087E+02 -0.29491347705E+02  0.53765572649E+01  0.39073478487E+02  0.00000000000E+00 0.  1.
         11    1    4    4    0    0  0.19485357522E+02  0.14314790188E+02 -0.62513647412E+02  0.67026476027E+02  0.00000000000E+00 0. -1.
         21    1    1    2  503  501 -0.39461478363E+01 -0.19649661102E+02 -0.35328179427E+02  0.40617256502E+02  0.00000000000E+00 0. -1.
         -2    1    1    2    0  502 -0.46997601695E+01  0.22749503087E+02  0.60053461957E+02  0.64389796780E+02  0.00000000000E+00 0.  1.
<scales pt_clust_5="13000.00000" pt_clust_6="13000.00000" pt_clust_7="13000.00000" pt_clust_8="13000.00000" pt_clust_9="20.04199" pt_clust_10="13000.00000"></scales>
<clustering>
<clus scale="   20.042">  2  9  1 -1</clus>
<clus scale="   81.603">  5  6 -1 -1</clus>
<clus scale="   82.682">  1  5  2 -1</clus>
<clus scale="   87.927">  7  8 -1 -1</clus>
<clus scale="   25.606">  7 10 -1 -1</clus>
<clus scale="   20.042">  2  5  1 -1</clus>
</clustering>
</event>
<event>
10    4  0.2759992E-005  0.3856505E+03  0.7546771E-02  0.1089928E+00
         21   -1    0    0  501  502  0.00000000000E+00  0.00000000000E+00  0.73153937747E+03  0.73153937747E+03  0.00000000000E+00 0. -1.
          2   -1    0    0  503    0 -0.00000000000E+00 -0.00000000000E+00 -0.24482469650E+03  0.24482469650E+03  0.00000000000E+00 0. -1.
         24    2    1    2    0    0  0.12086229356E+02  0.10883122359E+03 -0.41049421765E+02  0.14211945322E+03  0.80762440448E+02 0.  0.
         23    2    1    2    0    0 -0.20732323984E+02  0.16017838453E+03  0.49537903371E+02  0.19195270263E+03  0.91131180453E+02 0.  0.
        -13    1    3    3    0    0 -0.32670930877E+02  0.32293544581E+02 -0.42888353325E+01  0.46137369393E+02  0.00000000000E+00 0.  1.
         14    1    3    3    0    0  0.44757160233E+02  0.76537679007E+02 -0.36760586433E+02  0.95982083822E+02  0.00000000000E+00 0. -1.
        -11    1    4    4    0    0 -0.50389934722E+02  0.99819883108E+02  0.54746064347E+02  0.12450014517E+03  0.00000000000E+00 0. -1.
         11    1    4    4    0    0  0.29657610738E+02  0.60358501417E+02 -0.52081609759E+01  0.67452557466E+02  0.00000000000E+00 0.  1.
         21    1    1    2  503  502 -0.12006702830E+02 -0.81060617990E+02  0.44230233372E+03  0.44982923328E+03  0.00000000000E+00 0. -1.
          1    1    1    2  501    0  0.20652797458E+02 -0.18794899012E+03  0.35923865651E+02  0.19246268484E+03  0.00000000000E+00 0. -1.
<scales pt_clust_5="13000.00000" pt_clust_6="13000.00000" pt_clust_7="13000.00000" pt_clust_8="13000.00000" pt_clust_9="81.94501" pt_clust_10="13000.00000"></scales>
<clustering>
<clus scale="   80.762">  5  6 -1 -1</clus>
<clus scale="   81.945">  1  9  2 -1</clus>
<clus scale="   91.131">  7  8 -1 -1</clus>
<clus scale="  124.694">  2  5  1 -1</clus>
<clus scale="  159.856">  7 10 -1 -1</clus>
<clus scale="   81.945">  1  5  2 -1</clus>
</clustering>
</event>
<event>
10    4  0.2759992E-005  0.3997853E+03  0.7546771E-02  0.1078026E+00
         21   -1    0    0  501  502  0.00000000000E+00  0.00000000000E+00  0.83702445501E+02  0.83702445501E+02  0.00000000000E+00 0. -1.
          2   -1    0    0  503    0 -0.00000000000E+00 -0.00000000000E+00 -0.16495966919E+04  0.16495966919E+04  0.00000000000E+00 0. -1.
         24    2    1    2    0    0 -0.30144580407E+01  0.13118761814E+03 -0.68714985533E+03  0.70413728590E+03  0.80094416844E+02 0.  0.
         23    2    1    2    0    0 -0.18701415309E+02  0.73459149189E+02 -0.93917086352E+02  0.15296121016E+03  0.93971927560E+02 0.  0.
        -11    1    3    3    0    0 -0.25211586900E+02  0.77153453206E+01 -0.82511793845E+02  0.86621860930E+02  0.00000000000E+00 0.  1.
         12    1    3    3    0    0  0.22197128859E+02  0.12347227282E+03 -0.60463806148E+03  0.61751542497E+03  0.00000000000E+00 0. -1.
        -11    1    4    4    0    0 -0.24898640312E+02  0.95012864006E+02 -0.74170574443E+02  0.12307989572E+03  0.00000000000E+00 0. -1.
         11    1    4    4    0    0  0.61972250033E+01 -0.21553714817E+02 -0.19746511908E+02  0.29881314441E+02  0.00000000000E+00 0.  1.
         21    1    1    2  503  502 -0.71447803677E+02 -0.37603047190E+01 -0.12341889310E+02  0.72603379904E+02  0.00000000000E+00 0. -1.
          1    1    1    2  501    0  0.93163677026E+02 -0.20088646261E+03 -0.77248541545E+03  0.80359726148E+03  0.00000000000E+00 0. -1.
<scales pt_clust_5="13000.00000" pt_clust_6="13000.00000" pt_clust_7="13000.00000" pt_clust_8="13000.00000" pt_clust_9="71.54669" pt_clust_10="13000.00000"></scales>
<clustering>
<clus scale="   71.547">  1  9  2 -1</clus>
<clus scale="   80.094">  5  6 -1 -1</clus>
<clus scale="   93.972">  7  8 -1 -1</clus>
<clus scale="  153.867">  2  5  1 -1</clus>
<clus scale="  115.444">  7 10 -1 -1</clus>
<clus scale="   71.547">  1  5  2 -1</clus>
</clustering>
</event>
<event>
10    4  0.2759992E-005  0.2760236E+03  0.7546771E-02  0.1130114E+00
         21   -1    0    0  503  502  0.00000000000E+00  0.00000000000E+00  0.96230683086E+02  0.96230683086E+02  0.00000000000E+00 0. -1.
          2   -1    0    0  502    0 -0.00000000000E+00 -0.00000000000E+00 -0.70167652859E+03  0.70167652859E+03  0.00000000000E+00 0. -1.
         24    2    1    2    0    0  0.99681768187E+02  0.21407961254E+02 -0.15348341611E+03  0.20108722184E+03  0.80524257540E+02 0.  0.
         23    2    1    2    0    0  0.63102654299E+02 -0.12838551699E+02 -0.32047836888E+03  0.33842458879E+03  0.87624448569E+02 0.  0.
        -13    1    3    3    0    0  0.47660473101E+02 -0.30374733790E+02 -0.66306162959E+02  0.87124350186E+02  0.00000000000E+00 0.  1.
         14    1    3    3    0    0  0.52021295086E+02  0.51782695044E+02 -0.87177253150E+02  0.11396287165E+03  0.00000000000E+00 0. -1.
        -13    1    4    4    0    0  0.61069921240E+02  0.20916149544E+02 -0.27039736348E+03  0.27799596178E+03  0.00000000000E+00 0.  1.
         13    1    4    4    0    0  0.20327330585E+01 -0.33754701243E+02 -0.50081005409E+02  0.60428627012E+02  0.00000000000E+00 0. -1.
         21    1    1    2  503  501 -0.21676466039E+02 -0.22270972159E+02  0.30216265371E+02  0.43346142548E+02  0.00000000000E+00 0. -1.
          1    1    1    2  501    0 -0.14110795645E+03  0.13701562604E+02 -0.16170032588E+03  0.21504925850E+03  0.00000000000E+00 0. -1.
<scales pt_clust_5="13000.00000" pt_clust_6="13000.00000" pt_clust_7="13000.00000" pt_clust_8="13000.00000" pt_clust_9="31.07837" pt_clust_10="13000.00000"></scales>
<clustering>
<clus scale="   31.078">  1  9  2 -1</clus>
<clus scale="   80.524">  5  6 -1 -1</clus>
<clus scale="   87.624">  7  8 -1 -1</clus>
<clus scale="  122.155">  2  5  1 -1</clus>
<clus scale="  114.740">  7 10 -1 -1</clus>
<clus scale="   31.078">  1  5  2 -1</clus>
</clustering>
</event>
<event>
10    4  0.2759992E-005  0.1899577E+03  0.7546771E-02  0.1193606E+00
          2   -1    0    0  503    0 -0.00000000000E+00  0.00000000000E+00  0.82384376536E+03  0.82384376536E+03  0.00000000000E+00 0. -1.
         21   -1    0    0  501  502  0.00000000000E+00 -0.00000000000E+00 -0.27875306097E+03  0.27875306097E+03  0.00000000000E+00 0. -1.
         24    2    1    2    0    0  0.29126638506E+02  0.77029951018E+01  0.30415930039E+02  0.91033521937E+02  0.80338509520E+02 0.  0.
         23    2    1    2    0    0  0.15736678217E+02  0.64298539786E+02  0.48164431298E+03  0.49575465331E+03  0.97002509226E+02 0.  0.
        -11    1    3    3    0    0  0.41461654835E+02 -0.24285766246E+02  0.30190885610E+02  0.56748187968E+02  0.00000000000E+00 0.  1.
         12    1    3    3    0    0 -0.12335016329E+02  0.31988761347E+02  0.22504442918E+00  0.34285333969E+02  0.00000000000E+00 0. -1.
        -13    1    4    4    0    0 -0.13653572118E+02  0.79964254121E+02  0.28542832598E+03  0.29673225514E+03  0.00000000000E+00 0. -1.
         13    1    4    4    0    0  0.29390250335E+02 -0.15665714335E+02  0.19621598699E+03  0.19902239817E+03  0.00000000000E+00 0.  1.
         21    1    1    2  503  502 -0.10088093525E+03 -0.67752774290E+02 -0.22285218888E+03  0.25383163634E+03  0.00000000000E+00 0. -1.
          1    1    1    2  501    0  0.56017618525E+02 -0.42487605980E+01  0.25588265025E+03  0.26197701474E+03  0.00000000000E+00 0. -1.
<scales pt_clust_5="13000.00000" pt_clust_6="13000.00000" pt_clust_7="13000.00000" pt_clust_8="13000.00000" pt_clust_9="120.94340" pt_clust_10="13000.00000"></scales>
<clustering>
<clus scale="   80.339">  5  6 -1 -1</clus>
<clus scale="   85.802">  1  5  2 -1</clus>
<clus scale="   97.003">  7  8 -1 -1</clus>
<clus scale="   65.921">  7 10 -1 -1</clus>
<clus scale="  120.943">  2  9  1 -1</clus>
<clus scale="  120.943">  2  5  1 -1</clus>
</clustering>
</event>
<event>
10    4  0.2759992E-005  0.3435143E+03  0.7546771E-02  0.1098959E+00
          2   -1    0    0  502    0 -0.00000000000E+00  0.00000000000E+00  0.91721693621E+03  0.91721693621E+03  0.00000000000E+00 0. -1.
         21   -1    0    0  503  502  0.00000000000E+00 -0.00000000000E+00 -0.48067739575E+03  0.48067739575E+03  0.00000000000E+00 0.  1.
         24    2    1    2    0    0 -0.10215659122E+03  0.47857945528E+02  0.47204487007E+03  0.49215288127E+03  0.81619526511E+02 0.  0.
         23    2    1    2    0    0  0.38008098276E+02  0.29009637552E+02  0.20410913387E+03  0.22811400785E+03  0.89940466121E+02 0.  0.
        -13    1    3    3    0    0 -0.14145552992E+02 -0.20829505396E+02  0.56200351392E+02  0.61582826024E+02  0.00000000000E+00 0.  1.
         14    1    3    3    0    0 -0.88011038227E+02  0.68687450924E+02  0.41584451867E+03  0.43057005525E+03  0.00000000000E+00 0. -1.
        -13    1    4    4    0    0 -0.16017892264E+02  0.17429048325E+02  0.89879022971E+01  0.25320485497E+02  0.00000000000E+00 0. -1.
         13    1    4    4    0    0  0.54025990540E+02  0.11580589226E+02  0.19512123157E+03  0.20279352236E+03  0.00000000000E+00 0.  1.
         21    1    1    2  503  501 -0.76220421582E+01  0.16013966863E+03 -0.36602278333E+03  0.39959415275E+03  0.00000000000E+00 0.  1.
          1    1    1    2  501    0  0.71770535102E+02 -0.23700725171E+03  0.12640831986E+03  0.27803329009E+03  0.00000000000E+00 0. -1.
<scales pt_clust_5="13000.00000" pt_clust_6="13000.00000" pt_clust_7="13000.00000" pt_clust_8="13000.00000" pt_clust_9="162.39807" pt_clust_10="13000.00000"></scales>
<clustering>
<clus scale="   81.620">  5  6 -1 -1</clus>
<clus scale="   89.940">  7  8 -1 -1</clus>
<clus scale="  139.241">  1  5  2 -1</clus>
<clus scale="  162.398">  2  9  1 -1</clus>
<clus scale="  101.003">  7 10 -1 -1</clus>
<clus scale="  162.398">  2  5  1 -1</clus>
</clustering>
</event>
<event>
10    4  0.2759992E-005  0.1498374E+03  0.7546771E-02  0.1219503E+00
         21   -1    0    0  503  502  0.00000000000E+00  0.00000000000E+00  0.11946496230E+03  0.11946496230E+03  0.00000000000E+00 0. -1.
          2   -1    0    0  502    0 -0.00000000000E+00 -0.00000000000E+00 -0.13607491910E+04  0.13607491910E+04  0.00000000000E+00 0. -1.
         24    2    1    2    0    0 -0.51553460222E+02 -0.26827307587E+02 -0.81777205839E+03  0.82369301133E+03  0.79633998693E+02 0.  0.
         23    2    1    2    0    0  0.24202257681E+02  0.29692500953E+02 -0.28062986768E+03  0.29755555508E+03  0.91207411055E+02 0.  0.
        -13    1    3    3    0    0 -0.20266113652E+02 -0.58776340087E+00 -0.39953896362E+02  0.44803734921E+02  0.00000000000E+00 0.  1.
         14    1    3    3    0    0 -0.31287346570E+02 -0.26239544186E+02 -0.77781816202E+03  0.77888927641E+03  0.00000000000E+00 0. -1.
        -11    1    4    4    0    0  0.14483370358E+02 -0.20435922606E+02 -0.20231348049E+02  0.32197863184E+02  0.00000000000E+00 0.  1.
         11    1    4    4    0    0  0.97188873225E+01  0.50128423559E+02 -0.26039851963E+03  0.26535769189E+03  0.00000000000E+00 0. -1.
         21    1    1    2  503  501 -0.22158594215E+02  0.16122935629E+02  0.10343592329E+03  0.10700440448E+03  0.00000000000E+00 0. -1.
          1    1    1    2  501    0  0.49509796756E+02 -0.18988128995E+02 -0.24631822589E+03  0.25196118237E+03  0.00000000000E+00 0. -1.
<scales pt_clust_5="13000.00000" pt_clust_6="13000.00000" pt_clust_7="13000.00000" pt_clust_8="13000.00000" pt_clust_9="27.40351" pt_clust_10="13000.00000"></scales>
<clustering>
<clus scale="   27.404">  1  9  2 -1</clus>
<clus scale="   79.634">  5  6 -1 -1</clus>
<clus scale="   91.207">  7  8 -1 -1</clus>
<clus scale="   47.805">  7 10 -1 -1</clus>
<clus scale="  100.232">  2  5  1 -1</clus>
<clus scale="   27.404">  1  5  2 -1</clus>
</clustering>
</event>
<event>
10    4  0.2759992E-005  0.2872556E+03  0.7546771E-02  0.1139253E+00
         -1   -1    0    0    0  501 -0.00000000000E+00  0.00000000000E+00  0.12932623363E+04  0.12932623363E+04  0.00000000000E+00 0.  1.
         21   -1    0    0  503  502  0.00000000000E+00 -0.00000000000E+00 -0.66844206034E+02  0.66844206034E+02  0.00000000000E+00 0.  1.
         24    2    1    2    0    0 -0.14321728855E+02  0.92879938748E+02  0.90765513361E+02  0.15432599744E+03  0.82136107344E+02 0.  0.
         23    2    1    2    0    0  0.96051288559E+02 -0.42953419806E+02  0.24411718447E+03  0.28075143987E+03  0.90317910365E+02 0.  0.
        -13    1    3    3    0    0 -0.91914348990E+01  0.97036006760E+02  0.10213349924E+03  0.14117974625E+03  0.00000000000E+00 0.  1.
         14    1    3    3    0    0 -0.51302939564E+01 -0.41560680116E+01 -0.11367985879E+02  0.13146251189E+02  0.00000000000E+00 0. -1.
        -11    1    4    4    0    0  0.62788543585E+02  0.13257609300E+02  0.17133776774E+03  0.18296118732E+03  0.00000000000E+00 0.  1.
         11    1    4    4    0    0  0.33262744974E+02 -0.56211029106E+02  0.72779416725E+02  0.97790252557E+02  0.00000000000E+00 0. -1.
         21    1    1    2  503  501  0.68748492971E+01 -0.11580842118E+03  0.27162563552E+03  0.29536306445E+03  0.00000000000E+00 0.  1.
         -2    1    1    2    0  502 -0.88604409000E+02  0.65881902240E+02  0.61990979690E+03  0.62966604056E+03  0.00000000000E+00 0.  1.
<scales pt_clust_5="13000.00000" pt_clust_6="13000.00000" pt_clust_7="13000.00000" pt_clust_8="13000.00000" pt_clust_9="116.01236" pt_clust_10="13000.00000"></scales>
<clustering>
<clus scale="   82.136">  5  6 -1 -1</clus>
<clus scale="   90.318">  7  8 -1 -1</clus>
<clus scale="  110.414">  7 10 -1 -1</clus>
<clus scale="  116.012">  2  9  1 -1</clus>
<clus scale="   86.752">  1  5  2 -1</clus>
<clus scale="  116.012">  2  5  1 -1</clus>
</clustering>
</event>
<event>
10    4  0.2759992E-005  0.4435541E+03  0.7546771E-02  0.1072304E+00
         21   -1    0    0  503  502  0.00000000000E+00  0.00000000000E+00  0.84238367445E+03  0.84238367445E+03  0.00000000000E+00 0.  1.
         -3   -1    0    0    0  501 -0.00000000000E+00 -0.00000000000E+00 -0.17326711543E+03  0.17326711543E+03  0.00000000000E+00 0.  1.
         24    2    1    2    0    0 -0.77783222607E+02 -0.32506524573E+02  0.40569085373E+03  0.42210055084E+03  0.80479204551E+02 0.  0.
         23    2    1    2    0    0  0.90212467472E+02  0.84266664946E+02 -0.87204637063E+02  0.17937851095E+03  0.96606632048E+02 0.  0.
        -11    1    3    3    0    0 -0.58618438361E+02  0.17347076043E+02  0.25497195377E+03  0.26219790154E+03  0.00000000000E+00 0.  1.
         12    1    3    3    0    0 -0.19164784246E+02 -0.49853600616E+02  0.15071889996E+03  0.15990264930E+03  0.00000000000E+00 0. -1.
        -13    1    4    4    0    0  0.60754080729E+02  0.82398939870E+02 -0.17737505470E+02  0.10390025369E+03  0.00000000000E+00 0. -1.
         13    1    4    4    0    0  0.29458386743E+02  0.18677250757E+01 -0.69467131593E+02  0.75478257255E+02  0.00000000000E+00 0.  1.
         21    1    1    2  503  501 -0.48599609603E+02  0.62790887699E+02  0.59467457941E+02  0.99201795274E+02  0.00000000000E+00 0.  1.
         -4    1    1    2    0  502  0.36170364738E+02 -0.11455102807E+03  0.29116288441E+03  0.31496993281E+03  0.00000000000E+00 0.  1.
<scales pt_clust_5="13000.00000" pt_clust_6="13000.00000" pt_clust_7="13000.00000" pt_clust_8="13000.00000" pt_clust_9="79.40166" pt_clust_10="13000.00000"></scales>
<clustering>
<clus scale="   79.402">  1  9  2 -1</clus>
<clus scale="   80.479">  5  6 -1 -1</clus>
<clus scale="   96.607">  7  8 -1 -1</clus>
<clus scale="   91.186">  7 10 -1 -1</clus>
<clus scale="  131.626">  2  5  1 -1</clus>
<clus scale="   79.402">  1  5  2 -1</clus>
</clustering>
</event>
<event>
10    4  0.2759992E-005  0.6136259E+03  0.7546771E-02  0.1031190E+00
          2   -1    0    0  502    0 -0.00000000000E+00  0.00000000000E+00  0.30654053279E+03  0.30654053279E+03  0.00000000000E+00 0. -1.
         21   -1    0    0  503  502  0.00000000000E+00 -0.00000000000E+00 -0.10163785196E+04  0.10163785196E+04  0.00000000000E+00 0.  1.
         24    2    1    2    0    0 -0.65546611979E+02  0.12507694156E+03  0.13453855637E+03  0.21263699710E+03  0.84695157661E+02 0.  0.
         23    2    1    2    0    0 -0.14141186250E+03  0.19986784715E+03 -0.49144169255E+03  0.55696908615E+03  0.93568982945E+02 0.  0.
        -13    1    3    3    0    0 -0.75237880059E+02  0.11683998105E+03  0.14133873492E+03  0.19821442369E+03  0.00000000000E+00 0.  1.
         14    1    3    3    0    0  0.96912680799E+01  0.82369605107E+01 -0.68001785505E+01  0.14422573410E+02  0.00000000000E+00 0. -1.
        -11    1    4    4    0    0 -0.10149171173E+03  0.90336253494E+02 -0.33782513037E+03  0.36412501281E+03  0.00000000000E+00 0.  1.
         11    1    4    4    0    0 -0.39920150774E+02  0.10953159365E+03 -0.15361656218E+03  0.19284407334E+03  0.00000000000E+00 0. -1.
         21    1    1    2  503  501  0.36831198795E+02 -0.10252040618E+03 -0.21529584747E+03  0.24128670255E+03  0.00000000000E+00 0. -1.
          1    1    1    2  501    0  0.17012727568E+03 -0.22242438252E+03 -0.13763900321E+03  0.31202626665E+03  0.00000000000E+00 0. -1.
<scales pt_clust_5="13000.00000" pt_clust_6="13000.00000" pt_clust_7="13000.00000" pt_clust_8="13000.00000" pt_clust_9="108.93563" pt_clust_10="13000.00000"></scales>
<clustering>
<clus scale="   84.695">  5  6 -1 -1</clus>
<clus scale="   93.569">  7  8 -1 -1</clus>
<clus scale="  108.936">  2  9  1 -1</clus>
<clus scale="  160.103">  1  5  2 -1</clus>
<clus scale="  206.225">  7 10 -1 -1</clus>
<clus scale="  108.936">  2  5  1 -1</clus>
</clustering>
</event>
<event>
10    4  0.2759992E-005  0.3960844E+03  0.7546771E-02  0.1084105E+00
         -3   -1    0    0    0  501 -0.00000000000E+00  0.00000000000E+00  0.31160172609E+03  0.31160172609E+03  0.00000000000E+00 0.  1.
         21   -1    0    0  501  502  0.00000000000E+00 -0.00000000000E+00 -0.45619013951E+03  0.45619013951E+03  0.00000000000E+00 0. -1.
         24    2    1    2    0    0  0.39573441584E+02  0.97372939636E+02  0.37304864714E+02  0.13610342261E+03  0.78006038626E+02 0.  0.
         23    2    1    2    0    0  0.16048840477E+03 -0.18729252561E+03 -0.10689918927E+03  0.28334918097E+03  0.89578476624E+02 0.  0.
        -13    1    3    3    0    0  0.62435010131E+02  0.66508302636E+02  0.34723612390E+02  0.97607448829E+02  0.00000000000E+00 0.  1.
         14    1    3    3    0    0 -0.22861568547E+02  0.30864637000E+02  0.25812523236E+01  0.38495973778E+02  0.00000000000E+00 0. -1.
        -13    1    4    4    0    0  0.34960709696E+02  0.94427404033E+00 -0.23868998857E+02  0.42342319047E+02  0.00000000000E+00 0.  1.
         13    1    4    4    0    0  0.12552769507E+03 -0.18823679965E+03 -0.83030190409E+02  0.24100686192E+03  0.00000000000E+00 0. -1.
         21    1    1    2  503  502 -0.11449589995E+03  0.56042552117E+02 -0.17235082880E+03  0.21437090974E+03  0.00000000000E+00 0. -1.
         -4    1    1    2    0  503 -0.85565946400E+02  0.33877033855E+02  0.97356739928E+02  0.13396835229E+03  0.00000000000E+00 0.  1.
<scales pt_clust_5="13000.00000" pt_clust_6="13000.00000" pt_clust_7="13000.00000" pt_clust_8="13000.00000" pt_clust_9="127.47580" pt_clust_10="13000.00000"></scales>
<clustering>
<clus scale="   78.006">  5  6 -1 -1</clus>
<clus scale="   89.578">  7  8 -1 -1</clus>
<clus scale="   92.028">  7 10 -1 -1</clus>
<clus scale="  127.476">  2  9  1 -1</clus>
<clus scale="  134.368">  1  5  2 -1</clus>
<clus scale="  127.476">  2  5  1 -1</clus>
</clustering>
</event>
<event>
10    4  0.2759992E-005  0.3218075E+03  0.7546771E-02  0.1095333E+00
          2   -1    0    0  502    0 -0.00000000000E+00  0.00000000000E+00  0.13749516998E+03  0.13749516998E+03  0.00000000000E+00 0. -1.
         21   -1    0    0  503  502  0.00000000000E+00 -0.00000000000E+00 -0.90504631689E+03  0.90504631689E+03  0.00000000000E+00 0. -1.
         24    2    1    2    0    0 -0.15683120014E+03 -0.25840165103E+01 -0.31038799167E+02  0.17878027092E+03  0.79976719977E+02 0.  0.
         23    2    1    2    0    0  0.40105449964E+02  0.10182461046E+03 -0.29412419434E+03  0.32703482759E+03  0.92011077323E+02 0.  0.
        -13    1    3    3    0    0 -0.28663084490E+02 -0.30022821880E+02 -0.23016597663E+02  0.47462680225E+02  0.00000000000E+00 0.  1.
         14    1    3    3    0    0 -0.12816811565E+03  0.27438805370E+02 -0.80222015032E+01  0.13131759070E+03  0.00000000000E+00 0. -1.
        -11    1    4    4    0    0  0.51616473959E+01  0.48783139787E+02 -0.23564408974E+03  0.24069602065E+03  0.00000000000E+00 0. -1.
         11    1    4    4    0    0  0.34943802568E+02  0.53041470669E+02 -0.58480104600E+02  0.86338806933E+02  0.00000000000E+00 0.  1.
         21    1    1    2  503  501 -0.69310255161E+02 -0.28454963064E+02 -0.24579497576E+03  0.25696063220E+03  0.00000000000E+00 0. -1.
          1    1    1    2  501    0  0.18603600534E+03 -0.70785630881E+02 -0.19659317766E+03  0.27976575616E+03  0.00000000000E+00 0. -1.
<scales pt_clust_5="13000.00000" pt_clust_6="13000.00000" pt_clust_7="13000.00000" pt_clust_8="13000.00000" pt_clust_9="74.92394" pt_clust_10="13000.00000"></scales>
<clustering>
<clus scale="   74.924">  2  9  1 -1</clus>
<clus scale="   79.977">  5  6 -1 -1</clus>
<clus scale="   92.011">  7  8 -1 -1</clus>
<clus scale="  180.102">  7 10 -1 -1</clus>
<clus scale="  186.162">  1  5  2 -1</clus>
<clus scale="   74.924">  2  5  1 -1</clus>
</clustering>
</event>
<event>
10    4  0.2759992E-005  0.2120231E+03  0.7546771E-02  0.1158092E+00
         21   -1    0    0  503  502  0.00000000000E+00  0.00000000000E+00  0.57291697928E+03  0.57291697928E+03  0.00000000000E+00 0.  1.
          2   -1    0    0  502    0 -0.00000000000E+00 -0.00000000000E+00 -0.18912766047E+03  0.18912766047E+03  0.00000000000E+00 0. -1.
         24    2    1    2    0    0 -0.85784054601E+02  0.14164440260E+03  0.29183537945E+03  0.34481531362E+03  0.79420847381E+02 0.  0.
         23    2    1    2    0    0  0.89381624322E+02 -0.69635701197E+02 -0.11564686293E+03  0.18573715408E+03  0.91026852382E+02 0.  0.
        -11    1    3    3    0    0 -0.34558223591E+02  0.33355018408E+02  0.15827637820E+03  0.16540326468E+03  0.00000000000E+00 0.  1.
         12    1    3    3    0    0 -0.51225831011E+02  0.10828938419E+03  0.13355900125E+03  0.17941204894E+03  0.00000000000E+00 0. -1.
        -13    1    4    4    0    0 -0.19058398983E+02 -0.88252130366E+01 -0.17557202817E+02  0.27374483150E+02  0.00000000000E+00 0. -1.
         13    1    4    4    0    0  0.10844002331E+03 -0.60810488160E+02 -0.98089660111E+02  0.15836267093E+03  0.00000000000E+00 0.  1.
         21    1    1    2  503  501  0.22878620817E+02 -0.61757131253E+02  0.18090863913E+03  0.19252353171E+03  0.00000000000E+00 0.  1.
          1    1    1    2  501    0 -0.26476190538E+02 -0.10251570146E+02  0.26692163155E+02  0.38968640337E+02  0.00000000000E+00 0. -1.
<scales pt_clust_5="13000.00000" pt_clust_6="13000.00000" pt_clust_7="13000.00000" pt_clust_8="13000.00000" pt_clust_9="65.85875" pt_clust_10="13000.00000"></scales>
<clustering>
<clus scale="   65.859">  1  9  2 -1</clus>
<clus scale="   79.421">  5  6 -1 -1</clus>
<clus scale="   91.027">  7  8 -1 -1</clus>
<clus scale="   29.019">  7 10 -1 -1</clus>
<clus scale="  137.916">  2  5  1 -1</clus>
<clus scale="   65.859">  1  5  2 -1</clus>
</clustering>
</event>
<event>
10    4  0.2759992E-005  0.1946029E+03  0.7546771E-02  0.1162476E+00
         -3   -1    0    0    0  501 -0.00000000000E+00  0.00000000000E+00  0.93423421615E+03  0.93423421615E+03  0.00000000000E+00 0.  1.
         21   -1    0    0  503  502  0.00000000000E+00 -0.00000000000E+00 -0.95566192234E+03  0.95566192234E+03  0.00000000000E+00 0. -1.
         24    2    1    2    0    0  0.13328565156E+03 -0.21369912856E+03  0.55826754442E+01  0.26565152815E+03  0.84304126131E+02 0.  0.
         23    2    1    2    0    0 -0.77927193920E+02  0.47025817121E+02  0.60769992697E+03  0.62140666055E+03  0.92536271330E+02 0.  0.
        -13    1    3    3    0    0  0.46250041625E+02 -0.41093847526E+02  0.33471191700E+02  0.70342670753E+02  0.00000000000E+00 0.  1.
         14    1    3    3    0    0  0.87035609937E+02 -0.17260528104E+03 -0.27888516256E+02  0.19530885740E+03  0.00000000000E+00 0. -1.
        -13    1    4    4    0    0 -0.99026569229E+02  0.33718747956E+02  0.50494200144E+03  0.51566427081E+03  0.00000000000E+00 0.  1.
         13    1    4    4    0    0  0.21099375309E+02  0.13307069165E+02  0.10275792553E+03  0.10574238974E+03  0.00000000000E+00 0. -1.
         21    1    1    2  503  501 -0.57136431721E+02  0.11142338411E+03 -0.80969973425E+03  0.81932496727E+03  0.00000000000E+00 0. -1.
         -4    1    1    2    0  502  0.17779740785E+01  0.55249927335E+02  0.17498942565E+03  0.18351298251E+03  0.00000000000E+00 0.  1.
<scales pt_clust_5="13000.00000" pt_clust_6="13000.00000" pt_clust_7="13000.00000" pt_clust_8="13000.00000" pt_clust_9="125.21878" pt_clust_10="13000.00000"></scales>
<clustering>
<clus scale="   84.304">  5  6 -1 -1</clus>
<clus scale="   92.536">  7  8 -1 -1</clus>
<clus scale="   55.279">  7 10 -1 -1</clus>
<clus scale="  125.219">  2  9  1 -1</clus>
<clus scale="  161.070">  1  5  2 -1</clus>
<clus scale="  125.219">  2  5  1 -1</clus>
</clustering>
</event>
<event>
10    4  0.2759992E-005  0.2944739E+03  0.7546771E-02  0.1121619E+00
          2   -1    0    0  502    0 -0.00000000000E+00  0.00000000000E+00  0.69731045744E+03  0.69731045744E+03  0.00000000000E+00 0. -1.
         21   -1    0    0  503  502  0.00000000000E+00 -0.00000000000E+00 -0.84357754739E+02  0.84357754739E+02  0.00000000000E+00 0. -1.
         24    2    1    2    0    0 -0.78275794178E+02  0.43326351606E+02  0.21566932116E+03  0.24714121336E+03  0.81001546621E+02 0.  0.
         23    2    1    2    0    0  0.13777122952E+02 -0.93808423632E+02  0.44189469542E+02  0.13741574130E+03  0.89109748504E+02 0.  0.
        -11    1    3    3    0    0 -0.26139271379E+02  0.52853732151E+02  0.15884904428E+03  0.16943965704E+03  0.00000000000E+00 0.  1.
         12    1    3    3    0    0 -0.52136522799E+02 -0.95273805454E+01  0.56820276881E+02  0.77701556319E+02  0.00000000000E+00 0. -1.
        -11    1    4    4    0    0 -0.28836335154E+02 -0.22558593340E+02  0.40092517825E+02  0.54293962318E+02  0.00000000000E+00 0.  1.
         11    1    4    4    0    0  0.42613458106E+02 -0.71249830292E+02  0.40969517167E+01  0.83121778986E+02  0.00000000000E+00 0. -1.
         21    1    1    2  503  501 -0.27179347959E+01  0.32767984841E+02 -0.41735809030E+01  0.33144332512E+02  0.00000000000E+00 0.  1.
          1    1    1    2  501    0  0.67216606022E+02  0.17714087185E+02  0.35726749290E+03  0.36396692500E+03  0.00000000000E+00 0. -1.
<scales pt_clust_5="13000.00000" pt_clust_6="13000.00000" pt_clust_7="13000.00000" pt_clust_8="13000.00000" pt_clust_9="32.88051" pt_clust_10="13000.00000"></scales>
<clustering>
<clus scale="   32.881">  2  9  1 -1</clus>
<clus scale="   81.002">  5  6 -1 -1</clus>
<clus scale="   89.110">  7  8 -1 -1</clus>
<clus scale="   69.823">  7 10 -1 -1</clus>
<clus scale="  124.135">  1  5  2 -1</clus>
<clus scale="   32.881">  2  5  1 -1</clus>
</clustering>
</event>
<event>
10    4  0.2759992E-005  0.2597118E+03  0.7546771E-02  0.1156824E+00
          2   -1    0    0  503    0 -0.00000000000E+00  0.00000000000E+00  0.33766150439E+03  0.33766150439E+03  0.00000000000E+00 0. -1.
         21   -1    0    0  501  502  0.00000000000E+00 -0.00000000000E+00 -0.27490922913E+03  0.27490922913E+03  0.00000000000E+00 0. -1.
         24    2    1    2    0    0  0.93171017955E+01 -0.67685591749E+01  0.11576051750E+03  0.13935749168E+03  0.76729337923E+02 0.  0.
         23    2    1    2    0    0  0.36484240239E+02  0.51302534560E+02  0.11934123486E+03  0.16196913046E+03  0.89602561599E+02 0.  0.
        -11    1    3    3    0    0 -0.99697718199E+01 -0.33458368159E+02  0.92974887966E+02  0.99313586897E+02  0.00000000000E+00 0.  1.
         12    1    3    3    0    0  0.19286873615E+02  0.26689808984E+02  0.22785629532E+02  0.40043904788E+02  0.00000000000E+00 0. -1.
        -13    1    4    4    0    0  0.13930151636E+02  0.20622412523E+02 -0.10238624289E+02  0.26910266632E+02  0.00000000000E+00 0. -1.
         13    1    4    4    0    0  0.22554088603E+02  0.30680122037E+02  0.12957985915E+03  0.13505886383E+03  0.00000000000E+00 0.  1.
         21    1    1    2  503  502 -0.18569705297E+01  0.76857592930E+02 -0.16488525943E+03  0.18192769637E+03  0.00000000000E+00 0. -1.
          1    1    1    2  501    0 -0.43944371505E+02 -0.12139156831E+03 -0.74642176737E+01  0.12931641501E+03  0.00000000000E+00 0. -1.
<scales pt_clust_5="13000.00000" pt_clust_6="13000.00000" pt_clust_7="13000.00000" pt_clust_8="13000.00000" pt_clust_9="76.88002" pt_clust_10="13000.00000"></scales>
<clustering>
<clus scale="   76.729">  5  6 -1 -1</clus>
<clus scale="   76.880">  2  9  1 -1</clus>
<clus scale="   77.298">  1  5  2 -1</clus>
<clus scale="   89.603">  7  8 -1 -1</clus>
<clus scale="   81.688">  7 10 -1 -1</clus>
<clus scale="   76.880">  2  5  1 -1</clus>
</clustering>
</event>
<event>
10    4  0.2759992E-005  0.3707334E+03  0.7546771E-02  0.1109876E+00
         21   -1    0    0  503  502  0.00000000000E+00  0.00000000000E+00  0.45956151336E+03  0.45956151336E+03  0.00000000000E+00 0.  1.
         -3   -1    0    0    0  501 -0.00000000000E+00 -0.00000000000E+00 -0.15095123931E+03  0.15095123931E+03  0.00000000000E+00 0.  1.
         24    2    1    2    0    0  0.13989620364E+02  0.22937656714E+02  0.50200524714E+02  0.98888044210E+02  0.80851141196E+02 0.  0.
         23    2    1    2    0    0  0.13634707379E+03 -0.11808160393E+03  0.58146311635E+02  0.20941857373E+03  0.89114284763E+02 0.  0.
        -13    1    3    3    0    0  0.13820238325E+01  0.52271499068E+02  0.38291380309E+02  0.64810874170E+02  0.00000000000E+00 0.  1.
         14    1    3    3    0    0  0.12607596531E+02 -0.29333842353E+02  0.11909144405E+02  0.34077170041E+02  0.00000000000E+00 0. -1.
        -13    1    4    4    0    0  0.87086637738E+02 -0.86713731021E+02 -0.55262768557E+01  0.12301989008E+03  0.00000000000E+00 0.  1.
         13    1    4    4    0    0  0.49260436050E+02 -0.31367872906E+02  0.63672588490E+02  0.86398683645E+02  0.00000000000E+00 0. -1.
         21    1    1    2  503  501 -0.25914247523E+02 -0.15389108543E+02  0.10755489085E+03  0.11169792940E+03  0.00000000000E+00 0.  1.
         -4    1    1    2    0  502 -0.12442244663E+03  0.11053305576E+03  0.92708546855E+02  0.19050820534E+03  0.00000000000E+00 0.  1.
<scales pt_clust_5="13000.00000" pt_clust_6="13000.00000" pt_clust_7="13000.00000" pt_clust_8="13000.00000" pt_clust_9="30.13923" pt_clust_10="13000.00000"></scales>
<clustering>
<clus scale="   30.139">  1  9  2 -1</clus>
<clus scale="   80.851">  5  6 -1 -1</clus>
<clus scale="   83.637">  2  5  1 -1</clus>
<clus scale="   89.114">  7  8 -1 -1</clus>
<clus scale="  172.943">  7 10 -1 -1</clus>
<clus scale="   30.139">  1  5  2 -1</clus>
</clustering>
</event>
<event>
10    4  0.2759992E-005  0.2965987E+03  0.7546771E-02  0.1119034E+00
          4   -1    0    0  503    0 -0.00000000000E+00  0.00000000000E+00  0.11903309471E+03  0.11903309471E+03  0.00000000000E+00 0. -1.
         21   -1    0    0  501  502  0.00000000000E+00 -0.00000000000E+00 -0.11559750447E+04  0.11559750447E+04  0.00000000000E+00 0.  1.
         24    2    1    2    0    0  0.43007617985E+02 -0.90688425986E+02 -0.48121528820E+01  0.12873986806E+03  0.80478264143E+02 0.  0.
         23    2    1    2    0    0 -0.70690415713E+02  0.94638930792E+02 -0.12108136551E+03  0.19207890199E+03  0.90994205428E+02 0.  0.
        -11    1    3    3    0    0  0.37132003217E+02 -0.54442998446E+02 -0.40651602660E+02  0.77429829791E+02  0.00000000000E+00 0.  1.
         12    1    3    3    0    0  0.58756147673E+01 -0.36245427540E+02  0.35839449778E+02  0.51310038265E+02  0.00000000000E+00 0. -1.
        -13    1    4    4    0    0 -0.53480874725E+02  0.77647264423E+00 -0.48255779811E+02  0.72037678727E+02  0.00000000000E+00 0.  1.
         13    1    4    4    0    0 -0.17209540988E+02  0.93862458148E+02 -0.72825585696E+02  0.12004122326E+03  0.00000000000E+00 0. -1.
         21    1    1    2  503  502 -0.10950942712E+03 -0.53988717404E+02 -0.57438583918E+03  0.58721902940E+03  0.00000000000E+00 0.  1.
          3    1    1    2  501    0  0.13719222485E+03  0.50038212598E+02 -0.33666259241E+03  0.36697033996E+03  0.00000000000E+00 0. -1.
<scales pt_clust_5="13000.00000" pt_clust_6="13000.00000" pt_clust_7="13000.00000" pt_clust_8="13000.00000" pt_clust_9="122.09462" pt_clust_10="13000.00000"></scales>
<clustering>
<clus scale="   80.478">  5  6 -1 -1</clus>
<clus scale="   90.994">  7  8 -1 -1</clus>
<clus scale="  122.095">  2  9  1 -1</clus>
<clus scale="   72.241">  7 10 -1 -1</clus>
<clus scale="  129.596">  1  5  2 -1</clus>
<clus scale="  122.095">  2  5  1 -1</clus>
</clustering>
</event>
<event>
10    4  0.2759992E-005  0.2801355E+03  0.7546771E-02  0.1133539E+00
         21   -1    0    0  503  502  0.00000000000E+00  0.00000000000E+00  0.56589430154E+02  0.56589430154E+02  0.00000000000E+00 0. -1.
          2   -1    0    0  502    0 -0.00000000000E+00 -0.00000000000E+00 -0.10241677559E+04  0.10241677559E+04  0.00000000000E+00 0. -1.
         24    2    1    2    0    0 -0.37264657116E+02  0.49558249513E+02 -0.16583661758E+03  0.20402006510E+03  0.10137913230E+03 0.  0.
         23    2    1    2    0    0  0.26545421219E+02  0.94645888819E+02 -0.61477643166E+03  0.63384515167E+03  0.11894163158E+03 0.  0.
        -13    1    3    3    0    0 -0.17682347191E+02 -0.22158532773E+02 -0.78494651509E+01  0.29415643457E+02  0.00000000000E+00 0.  1.
         14    1    3    3    0    0 -0.19582309925E+02  0.71716782286E+02 -0.15798715243E+03  0.17460442164E+03  0.00000000000E+00 0. -1.
        -11    1    4    4    0    0 -0.22359198387E+02  0.10007919316E+03 -0.35803313272E+03  0.37242919163E+03  0.00000000000E+00 0.  1.
         11    1    4    4    0    0  0.48904619607E+02 -0.54333043427E+01 -0.25674329894E+03  0.26141596004E+03  0.00000000000E+00 0. -1.
         21    1    1    2  503  501  0.31147297362E+02 -0.54066191771E+02 -0.68920582760E+02  0.92969639956E+02  0.00000000000E+00 0. -1.
          1    1    1    2  501    0 -0.20428061466E+02 -0.90137946560E+02 -0.11804469370E+03  0.14992232928E+03  0.00000000000E+00 0. -1.
<scales pt_clust_5="13000.00000" pt_clust_6="13000.00000" pt_clust_7="13000.00000" pt_clust_8="13000.00000" pt_clust_9="62.39637" pt_clust_10="13000.00000"></scales>
<clustering>
<clus scale="   62.396">  1  9  2 -1</clus>
<clus scale="  101.379">  5  6 -1 -1</clus>
<clus scale="  107.456">  2  5  1 -1</clus>
<clus scale="  118.942">  7  8 -1 -1</clus>
<clus scale="  103.578">  7 10 -1 -1</clus>
<clus scale="   62.396">  1  5  2 -1</clus>
</clustering>
</event>
<event>
10    4  0.2759992E-005  0.2716644E+03  0.7546771E-02  0.1105189E+00
          2   -1    0    0  503    0 -0.00000000000E+00  0.00000000000E+00  0.13863018281E+04  0.13863018281E+04  0.00000000000E+00 0. -1.
         21   -1    0    0  501  502  0.00000000000E+00 -0.00000000000E+00 -0.69511857069E+02  0.69511857069E+02  0.00000000000E+00 0.  1.
         24    2    1    2    0    0 -0.55440071260E+02 -0.23381252186E+03  0.53006481453E+03  0.58745860742E+03  0.79981316223E+02 0.  0.
         23    2    1    2    0    0  0.94174523072E+01  0.12780495601E+03  0.35346374667E+03  0.38674568511E+03  0.90624552679E+02 0.  0.
        -11    1    3    3    0    0 -0.27114985664E+02 -0.22003624623E+03  0.45986851689E+03  0.51051956371E+03  0.00000000000E+00 0.  1.
         12    1    3    3    0    0 -0.28325085596E+02 -0.13776275630E+02  0.70196297636E+02  0.76939043703E+02  0.00000000000E+00 0. -1.
        -13    1    4    4    0    0  0.13995577190E+02  0.86270456917E+02  0.11391414313E+03  0.14357889790E+03  0.00000000000E+00 0.  1.
         13    1    4    4    0    0 -0.45781248828E+01  0.41534499090E+02  0.23954960354E+03  0.24316678720E+03  0.00000000000E+00 0. -1.
         21    1    1    2  503  502  0.13257321843E+02  0.22605244755E+02 -0.10985473686E+02  0.28415388524E+02  0.00000000000E+00 0.  1.
          1    1    1    2  501    0  0.32765297110E+02  0.83402321101E+02  0.44424688356E+03  0.45319400416E+03  0.00000000000E+00 0. -1.
<scales pt_clust_5="13000.00000" pt_clust_6="13000.00000" pt_clust_7="13000.00000" pt_clust_8="13000.00000" pt_clust_9="26.20599" pt_clust_10="13000.00000"></scales>
<clustering>
<clus scale="   26.206">  2  9  1 -1</clus>
<clus scale="   79.981">  5  6 -1 -1</clus>
<clus scale="   90.625">  7  8 -1 -1</clus>
<clus scale="   91.933">  7 10 -1 -1</clus>
<clus scale="  239.646">  1  5  2 -1</clus>
<clus scale="   26.206">  2  5  1 -1</clus>
</clustering>
</event>
<event>
10    4  0.2759992E-005  0.2947502E+03  0.7546771E-02  0.1098540E+00
          2   -1    0    0  502    0 -0.00000000000E+00  0.00000000000E+00  0.18418794404E+04  0.18418794404E+04  0.00000000000E+00 0. -1.
         21   -1    0    0  503  502  0.00000000000E+00 -0.00000000000E+00 -0.44680055962E+02  0.44680055962E+02  0.00000000000E+00 0.  1.
         24    2    1    2    0    0  0.20149003300E+03 -0.54521307655E+02  0.10451665919E+04  0.10690141009E+04  0.82747427033E+02 0.  0.
         23    2    1    2    0    0 -0.18801030835E+02  0.28105416450E+02  0.12491974728E+03  0.15743551025E+03  0.89652682247E+02 0.  0.
        -11    1    3    3    0    0  0.94441313151E+01 -0.27288429405E+02  0.96818408617E+02  0.10103293643E+03  0.00000000000E+00 0.  1.
         12    1    3    3    0    0  0.19204590169E+03 -0.27232878249E+02  0.94834818328E+03  0.96798116446E+03  0.00000000000E+00 0. -1.
        -13    1    4    4    0    0 -0.45628241647E+01  0.48610228303E+02  0.25801883701E+02  0.55222376466E+02  0.00000000000E+00 0.  1.
         13    1    4    4    0    0 -0.14238206671E+02 -0.20504811853E+02  0.99117863578E+02  0.10221313379E+03  0.00000000000E+00 0. -1.
         21    1    1    2  503  501 -0.13815987590E+02 -0.24504512964E+02  0.61403512777E+02  0.67540684406E+02  0.00000000000E+00 0.  1.
          1    1    1    2  501    0 -0.16887301458E+03  0.50920404168E+02  0.56570953243E+03  0.59256920077E+03  0.00000000000E+00 0. -1.
<scales pt_clust_5="13000.00000" pt_clust_6="13000.00000" pt_clust_7="13000.00000" pt_clust_8="13000.00000" pt_clust_9="28.13099" pt_clust_10="13000.00000"></scales>
<clustering>
<clus scale="   28.131">  2  9  1 -1</clus>
<clus scale="   82.747">  5  6 -1 -1</clus>
<clus scale="   89.653">  7  8 -1 -1</clus>
<clus scale="  178.589">  7 10 -1 -1</clus>
<clus scale="  222.830">  1  5  2 -1</clus>
<clus scale="   28.131">  2  5  1 -1</clus>
</clustering>
</event>
<event>
10    4  0.2759992E-005  0.5135807E+03  0.7546771E-02  0.1059413E+00
          2   -1    0    0  503    0 -0.00000000000E+00  0.00000000000E+00  0.35598483288E+04  0.35598483288E+04  0.00000000000E+00 0. -1.
         21   -1    0    0  501  502  0.00000000000E+00 -0.00000000000E+00 -0.41098360144E+02  0.41098360144E+02  0.00000000000E+00 0.  1.
         24    2    1    2    0    0  0.19792637369E+01 -0.87291343244E+02  0.44055528189E+03  0.45585017751E+03  0.78017509856E+02 0.  0.
         23    2    1    2    0    0  0.15289932787E+03 -0.11916369986E+03  0.93432769506E+03  0.95864313663E+03  0.91925131563E+02 0.  0.
        -13    1    3    3    0    0 -0.11212694846E+01 -0.98512115213E+02  0.42583642187E+03  0.43708414782E+03  0.00000000000E+00 0.  1.
         14    1    3    3    0    0  0.31005332215E+01  0.11220771969E+02  0.14718860022E+02  0.18766029686E+02  0.00000000000E+00 0. -1.
        -13    1    4    4    0    0  0.11616661492E+03 -0.12121433601E+03  0.85322171734E+03  0.86958317406E+03  0.00000000000E+00 0.  1.
         13    1    4    4    0    0  0.36732712947E+02  0.20506361532E+01  0.81105977728E+02  0.89059962566E+02  0.00000000000E+00 0. -1.
         21    1    1    2  503  502  0.17402994505E+02 -0.19663703556E+02  0.25868259618E+01  0.26385926625E+02  0.00000000000E+00 0. -1.
          1    1    1    2  501    0 -0.17228158611E+03  0.22611874666E+03  0.21412801657E+04  0.21600674482E+04  0.00000000000E+00 0. -1.
<scales pt_clust_5="13000.00000" pt_clust_6="13000.00000" pt_clust_7="13000.00000" pt_clust_8="13000.00000" pt_clust_9="26.25882" pt_clust_10="13000.00000"></scales>
<clustering>
<clus scale="   26.259">  2  9  1 -1</clus>
<clus scale="   78.018">  5  6 -1 -1</clus>
<clus scale="   91.925">  7  8 -1 -1</clus>
<clus scale="  121.140">  1  5  2 -1</clus>
<clus scale="  227.090">  7 10 -1 -1</clus>
<clus scale="   26.259">  2  5  1 -1</clus>
</clustering>
</event>
<event>
10    4  0.2759992E-005  0.2463174E+03  0.7546771E-02  0.1154061E+00
         21   -1    0    0  501  502  0.00000000000E+00  0.00000000000E+00  0.63415707853E+02  0.63415707853E+02  0.00000000000E+00 0. -1.
         -1   -1    0    0    0  501 -0.00000000000E+00 -0.00000000000E+00 -0.68267154761E+03  0.68267154761E+03  0.00000000000E+00 0.  1.
         24    2    1    2    0    0 -0.17323062355E+02  0.41855981847E+02 -0.94449353892E+02  0.13176220109E+03  0.79928627407E+02 0.  0.
         23    2    1    2    0    0  0.96498372315E+02 -0.21067401007E+02 -0.43410540551E+03  0.45484268106E+03  0.93158951119E+02 0.  0.
        -11    1    3    3    0    0 -0.95430966842E+01 -0.23544374378E+02 -0.19781780088E+02  0.32198246576E+02  0.00000000000E+00 0.  1.
         12    1    3    3    0    0 -0.77799656704E+01  0.65400356225E+02 -0.74667573804E+02  0.99563954511E+02  0.00000000000E+00 0. -1.
        -11    1    4    4    0    0  0.76768382008E+02  0.19287707299E+02 -0.35643404333E+03  0.36511727893E+03  0.00000000000E+00 0. -1.
         11    1    4    4    0    0  0.19729990308E+02 -0.40355108306E+02 -0.77671362180E+02  0.89725402127E+02  0.00000000000E+00 0.  1.
         21    1    1    2  503  502 -0.83300899235E+00  0.23836365264E+02  0.86027944115E+01  0.25354965681E+02  0.00000000000E+00 0. -1.
         -2    1    1    2    0  503 -0.78342300968E+02 -0.44624946104E+02 -0.99303874766E+02  0.13412740764E+03  0.00000000000E+00 0.  1.
<scales pt_clust_5="13000.00000" pt_clust_6="13000.00000" pt_clust_7="13000.00000" pt_clust_8="13000.00000" pt_clust_9="23.85092" pt_clust_10="13000.00000"></scales>
<clustering>
<clus scale="   23.851">  1  9  2 -1</clus>
<clus scale="   79.929">  5  6 -1 -1</clus>
<clus scale="   93.159">  7  8 -1 -1</clus>
<clus scale="   86.372">  7 10 -1 -1</clus>
<clus scale="   96.673">  2  5  1 -1</clus>
<clus scale="   23.851">  1  5  2 -1</clus>
</clustering>
</event>
<event>
10    4  0.2759992E-005  0.2113675E+03  0.7546771E-02  0.1153383E+00
         21   -1    0    0  503  502  0.00000000000E+00  0.00000000000E+00  0.23463192583E+03  0.23463192583E+03  0.00000000000E+00 0.  1.
          2   -1    0    0  502    0 -0.00000000000E+00 -0.00000000000E+00 -0.20229883795E+03  0.20229883795E+03  0.00000000000E+00 0. -1.
         24    2    1    2    0    0 -0.14321644261E+03  0.34926365518E+02  0.66165690230E+02  0.18010593642E+03  0.79557836363E+02 0.  0.
         23    2    1    2    0    0  0.26065458740E+02 -0.48767942537E+02 -0.15627100319E+02  0.10380383884E+03  0.86448310186E+02 0.  0.
        -13    1    3    3    0    0 -0.12136071893E+03  0.25309429214E+02  0.84474600995E+02  0.15001649749E+03  0.00000000000E+00 0.  1.
         14    1    3    3    0    0 -0.21855723684E+02  0.96169363045E+01 -0.18308910765E+02  0.30089438928E+02  0.00000000000E+00 0. -1.
        -11    1    4    4    0    0  0.25983355099E+02 -0.73144300639E+02 -0.16720777862E+02  0.79402820293E+02  0.00000000000E+00 0. -1.
         11    1    4    4    0    0  0.82103640579E-01  0.24376358102E+02  0.10936775431E+01  0.24401018542E+02  0.00000000000E+00 0.  1.
         21    1    1    2  503  501  0.19982266710E+02 -0.12803032421E+02  0.32486758258E+02  0.40231804386E+02  0.00000000000E+00 0.  1.
          1    1    1    2  501    0  0.97168717160E+02  0.26644609440E+02 -0.50692260281E+02  0.11278918414E+03  0.00000000000E+00 0. -1.
<scales pt_clust_5="13000.00000" pt_clust_6="13000.00000" pt_clust_7="13000.00000" pt_clust_8="13000.00000" pt_clust_9="23.73202" pt_clust_10="13000.00000"></scales>
<clustering>
<clus scale="   23.732">  1  9  2 -1</clus>
<clus scale="   79.558">  5  6 -1 -1</clus>
<clus scale="   86.448">  7  8 -1 -1</clus>
<clus scale="  103.280">  7 10 -1 -1</clus>
<clus scale="  155.459">  2  5  1 -1</clus>
<clus scale="   23.732">  1  5  2 -1</clus>
</clustering>
</event>
<event>
10    4  0.2759992E-005  0.8227177E+03  0.7546771E-02  0.1023065E+00
         21   -1    0    0  501  502  0.00000000000E+00  0.00000000000E+00  0.18120092183E+04  0.18120092183E+04  0.00000000000E+00 0. -1.
          2   -1    0    0  503    0 -0.00000000000E+00 -0.00000000000E+00 -0.20485244174E+03  0.20485244174E+03  0.00000000000E+00 0. -1.
         24    2    1    2    0    0 -0.23655220122E+02  0.10784224638E+02  0.27545860240E+02  0.89024866187E+02  0.80565398548E+02 0.  0.
         23    2    1    2    0    0 -0.28804498714E+03 -0.36971063402E+03  0.68551245312E+03  0.83550521947E+03  0.92118298176E+02 0.  0.
        -13    1    3    3    0    0  0.19008418668E+02 -0.23199581340E+02  0.12045847289E+02  0.32320937355E+02  0.00000000000E+00 0.  1.
         14    1    3    3    0    0 -0.42663638789E+02  0.33983805978E+02  0.15500012951E+02  0.56703928832E+02  0.00000000000E+00 0. -1.
        -11    1    4    4    0    0 -0.25719004616E+03 -0.33611658580E+03  0.55985637454E+03  0.70182635973E+03  0.00000000000E+00 0. -1.
         11    1    4    4    0    0 -0.30854940981E+02 -0.33594048214E+02  0.12565607858E+03  0.13367885974E+03  0.00000000000E+00 0.  1.
         21    1    1    2  503  502  0.58286235955E+02  0.17205121686E+03  0.69832280657E+03  0.72156333658E+03  0.00000000000E+00 0.  1.
          1    1    1    2  501    0  0.25341397131E+03  0.18687519252E+03  0.19577565664E+03  0.37076823781E+03  0.00000000000E+00 0. -1.
<scales pt_clust_5="13000.00000" pt_clust_6="13000.00000" pt_clust_7="13000.00000" pt_clust_8="13000.00000" pt_clust_9="181.83933" pt_clust_10="13000.00000"></scales>
<clustering>
<clus scale="   80.565">  5  6 -1 -1</clus>
<clus scale="   84.656">  2  5  1 -1</clus>
<clus scale="   92.118">  7  8 -1 -1</clus>
<clus scale="  181.839">  1  9  2 -1</clus>
<clus scale="  352.943">  7 10 -1 -1</clus>
<clus scale="  181.839">  1  5  2 -1</clus>
</clustering>
</event>
<event>
10    4  0.2759992E-005  0.7016066E+03  0.7546771E-02  0.1027093E+00
          2   -1    0    0  502    0 -0.00000000000E+00  0.00000000000E+00  0.59203916891E+03  0.59203916891E+03  0.00000000000E+00 0. -1.
         21   -1    0    0  503  502  0.00000000000E+00 -0.00000000000E+00 -0.32919434541E+03  0.32919434541E+03  0.00000000000E+00 0.  1.
         24    2    1    2    0    0 -0.85577732514E+02  0.24189351549E+02  0.11403151254E+03  0.16519690565E+03  0.79863375556E+02 0.  0.
         23    2    1    2    0    0  0.31221386366E+03 -0.92309631398E+02 -0.13047060434E+03  0.36218818884E+03  0.90327962617E+02 0.  0.
        -13    1    3    3    0    0 -0.66264452087E+02 -0.13960449972E+01  0.25456846582E+02  0.70999842183E+02  0.00000000000E+00 0.  1.
         14    1    3    3    0    0 -0.19313280426E+02  0.25585396546E+02  0.88574665957E+02  0.94197063472E+02  0.00000000000E+00 0. -1.
        -13    1    4    4    0    0  0.27191873332E+03 -0.92470532342E+02 -0.14182995474E+03  0.32032223299E+03  0.00000000000E+00 0.  1.
         13    1    4    4    0    0  0.40295130335E+02  0.16090094347E+00  0.11359350407E+02  0.41865955853E+02  0.00000000000E+00 0. -1.
         21    1    1    2  503  501 -0.16496016748E+02  0.26671613466E+02 -0.10879225519E+02  0.33194142274E+02  0.00000000000E+00 0.  1.
          1    1    1    2  501    0 -0.21014011440E+03  0.41448666383E+02  0.29016314082E+03  0.36065427755E+03  0.00000000000E+00 0. -1.
<scales pt_clust_5="13000.00000" pt_clust_6="13000.00000" pt_clust_7="13000.00000" pt_clust_8="13000.00000" pt_clust_9="31.36070" pt_clust_10="13000.00000"></scales>
<clustering>
<clus scale="   31.361">  2  9  1 -1</clus>
<clus scale="   79.863">  5  6 -1 -1</clus>
<clus scale="   90.328">  7  8 -1 -1</clus>
<clus scale="  120.980">  1  5  2 -1</clus>
<clus scale="  284.493">  7 10 -1 -1</clus>
<clus scale="   31.361">  2  5  1 -1</clus>
</clustering>
</event>
<event>
10    4  0.2759992E-005  0.3568505E+03  0.7546771E-02  0.1084591E+00
          2   -1    0    0  503    0 -0.00000000000E+00  0.00000000000E+00  0.93830830522E+03  0.93830830522E+03  0.00000000000E+00 0. -1.
         21   -1    0    0  501  502  0.00000000000E+00 -0.00000000000E+00 -0.90777880478E+02  0.90777880478E+02  0.00000000000E+00 0. -1.
         24    2    1    2    0    0  0.12934080260E+03 -0.10214072372E+03  0.36567352163E+03  0.40895343770E+03  0.79774802556E+02 0.  0.
         23    2    1    2    0    0 -0.97731641436E+02  0.56796468139E+01  0.15623160990E+02  0.13548582855E+03  0.92350389564E+02 0.  0.
        -13    1    3    3    0    0  0.18982668821E+02 -0.58302705131E+02  0.91212586073E+02  0.10990579147E+03  0.00000000000E+00 0.  1.
         14    1    3    3    0    0  0.11035813378E+03 -0.43838018593E+02  0.27446093556E+03  0.29904764623E+03  0.00000000000E+00 0. -1.
        -13    1    4    4    0    0 -0.47669986182E+02 -0.36547879360E+02  0.31882227405E+02  0.68004790218E+02  0.00000000000E+00 0.  1.
         13    1    4    4    0    0 -0.50061655254E+02  0.42227526174E+02 -0.16259066415E+02  0.67481038331E+02  0.00000000000E+00 0. -1.
         21    1    1    2  503  502  0.14143556169E+02  0.31584345960E+02  0.49368254327E+02  0.60289597993E+02  0.00000000000E+00 0. -1.
          1    1    1    2  501    0 -0.45752717331E+02  0.64876730950E+02  0.41686548780E+03  0.42435732146E+03  0.00000000000E+00 0. -1.
<scales pt_clust_5="13000.00000" pt_clust_6="13000.00000" pt_clust_7="13000.00000" pt_clust_8="13000.00000" pt_clust_9="34.60652" pt_clust_10="13000.00000"></scales>
<clustering>
<clus scale="   34.607">  2  9  1 -1</clus>
<clus scale="   79.775">  5  6 -1 -1</clus>
<clus scale="   92.350">  7  8 -1 -1</clus>
<clus scale="   80.173">  7 10 -1 -1</clus>
<clus scale="  181.368">  1  5  2 -1</clus>
<clus scale="   34.607">  2  5  1 -1</clus>
</clustering>
</event>
<event>
10    4  0.2759992E-005  0.2644740E+03  0.7546771E-02  0.1146949E+00
          2   -1    0    0  503    0 -0.00000000000E+00  0.00000000000E+00  0.82682505403E+03  0.82682505403E+03  0.00000000000E+00 0. -1.
         21   -1    0    0  501  502  0.00000000000E+00 -0.00000000000E+00 -0.16761724827E+03  0.16761724827E+03  0.00000000000E+00 0.  1.
         24    2    1    2    0    0  0.32758003721E+02 -0.29393823336E+02  0.28512134443E+03  0.29941766520E+03  0.80122865191E+02 0.  0.
         23    2    1    2    0    0  0.85103158675E+02 -0.24300629118E+02  0.29119877627E+03  0.31759875888E+03  0.90769907738E+02 0.  0.
        -13    1    3    3    0    0  0.59338299645E+02 -0.24170778384E+02  0.21028249256E+03  0.21982717532E+03  0.00000000000E+00 0.  1.
         14    1    3    3    0    0 -0.26580295924E+02 -0.52230449517E+01  0.74838851871E+02  0.79590489880E+02  0.00000000000E+00 0. -1.
        -13    1    4    4    0    0  0.10312909164E+03 -0.13412802392E+02  0.21984507645E+03  0.24320232410E+03  0.00000000000E+00 0.  1.
         13    1    4    4    0    0 -0.18025932961E+02 -0.10887826726E+02  0.71353699816E+02  0.74396434776E+02  0.00000000000E+00 0. -1.
         21    1    1    2  503  502 -0.45651521217E+01 -0.21456891382E+02 -0.12616237597E+03  0.12805539392E+03  0.00000000000E+00 0.  1.
          1    1    1    2  501    0 -0.11329601027E+03  0.75151343836E+02  0.20905006104E+03  0.24937048431E+03  0.00000000000E+00 0. -1.
<scales pt_clust_5="13000.00000" pt_clust_6="13000.00000" pt_clust_7="13000.00000" pt_clust_8="13000.00000" pt_clust_9="21.93716" pt_clust_10="13000.00000"></scales>
<clustering>
<clus scale="   21.937">  2  9  1 -1</clus>
<clus scale="   80.123">  5  6 -1 -1</clus>
<clus scale="   90.770">  7  8 -1 -1</clus>
<clus scale="   92.421">  1  5  2 -1</clus>
<clus scale="  114.200">  7 10 -1 -1</clus>
<clus scale="   21.937">  2  5  1 -1</clus>
</clustering>
</event>
<event>
10    4  0.2759992E-005  0.4431119E+03  0.7546771E-02  0.1057799E+00
         21   -1    0    0  501  502  0.00000000000E+00  0.00000000000E+00  0.19454514256E+03  0.19454514256E+03  0.00000000000E+00 0. -1.
          2   -1    0    0  503    0 -0.00000000000E+00 -0.00000000000E+00 -0.75394484427E+03  0.75394484427E+03  0.00000000000E+00 0. -1.
         24    2    1    2    0    0  0.19493015992E+03  0.15629894922E+02 -0.26498943349E+03  0.33891312899E+03  0.80004051644E+02 0.  0.
         23    2    1    2    0    0 -0.12830565096E+03  0.79088934693E+02  0.15263964410E+02  0.17613110566E+03  0.89843074926E+02 0.  0.
        -13    1    3    3    0    0  0.43095888372E+02  0.28940881316E+02 -0.33603760339E+02  0.61838846325E+02  0.00000000000E+00 0.  1.
         14    1    3    3    0    0  0.15183427155E+03 -0.13310986393E+02 -0.23138567315E+03  0.27707428267E+03  0.00000000000E+00 0. -1.
        -13    1    4    4    0    0 -0.43003390184E+02  0.38716870239E+02  0.49086216448E+02  0.75879801355E+02  0.00000000000E+00 0. -1.
         13    1    4    4    0    0 -0.85302260781E+02  0.40372064454E+02 -0.33822252038E+02  0.10025130431E+03  0.00000000000E+00 0.  1.
         21    1    1    2  503  502 -0.63423559695E+02  0.34684983484E+02  0.23497883791E+02  0.76011489568E+02  0.00000000000E+00 0.  1.
          1    1    1    2  501    0 -0.32009492614E+01 -0.12940381310E+03 -0.33317211642E+03  0.35743426260E+03  0.00000000000E+00 0. -1.
<scales pt_clust_5="13000.00000" pt_clust_6="13000.00000" pt_clust_7="13000.00000" pt_clust_8="13000.00000" pt_clust_9="72.28828" pt_clust_10="13000.00000"></scales>
<clustering>
<clus scale="   72.288">  1  9  2 -1</clus>
<clus scale="   80.004">  5  6 -1 -1</clus>
<clus scale="   89.843">  7  8 -1 -1</clus>
<clus scale="  126.784">  7 10 -1 -1</clus>
<clus scale="  197.352">  2  5  1 -1</clus>
<clus scale="   72.288">  1  5  2 -1</clus>
</clustering>
</event>
<event>
10    4  0.2759992E-005  0.4346259E+03  0.7546771E-02  0.1068654E+00
         21   -1    0    0  503  502  0.00000000000E+00  0.00000000000E+00  0.13101625982E+03  0.13101625982E+03  0.00000000000E+00 0. -1.
          2   -1    0    0  502    0 -0.00000000000E+00 -0.00000000000E+00 -0.11791511313E+04  0.11791511313E+04  0.00000000000E+00 0. -1.
         24    2    1    2    0    0  0.11333353501E+03 -0.84434407603E+02 -0.62140949536E+02  0.17398074557E+03  0.80213109123E+02 0.  0.
         23    2    1    2    0    0  0.73587668259E+02 -0.10939191571E+03 -0.22775016943E+03  0.27942543061E+03  0.93950494701E+02 0.  0.
        -11    1    3    3    0    0  0.82545332290E+02 -0.67763636083E+02 -0.81160178186E+02  0.13413656020E+03  0.00000000000E+00 0.  1.
         12    1    3    3    0    0  0.30788202715E+02 -0.16670771519E+02  0.19019228650E+02  0.39844185372E+02  0.00000000000E+00 0. -1.
        -13    1    4    4    0    0 -0.96789506070E+01 -0.55983255712E+02 -0.48541544181E+02  0.74726759039E+02  0.00000000000E+00 0.  1.
         13    1    4    4    0    0  0.83266618866E+02 -0.53408659998E+02 -0.17920862525E+03  0.20469867157E+03  0.00000000000E+00 0. -1.
         21    1    1    2  503  501  0.80489587848E+01  0.44020269724E+02  0.13543436409E+02  0.46754620669E+02  0.00000000000E+00 0. -1.
          1    1    1    2  501    0 -0.19497016205E+03  0.14980605359E+03 -0.77178718888E+03  0.81000659423E+03  0.00000000000E+00 0. -1.
<scales pt_clust_5="13000.00000" pt_clust_6="13000.00000" pt_clust_7="13000.00000" pt_clust_8="13000.00000" pt_clust_9="44.75008" pt_clust_10="13000.00000"></scales>
<clustering>
<clus scale="   44.750">  1  9  2 -1</clus>
<clus scale="   80.213">  5  6 -1 -1</clus>
<clus scale="   93.950">  7  8 -1 -1</clus>
<clus scale="  154.640">  2  5  1 -1</clus>
<clus scale="  151.636">  7 10 -1 -1</clus>
<clus scale="   44.750">  1  5  2 -1</clus>
</clustering>
</event>
<event>
10    4  0.2759992E-005  0.6780723E+03  0.7546771E-02  0.9793982E-01
          2   -1    0    0  502    0 -0.00000000000E+00  0.00000000000E+00  0.36118118679E+04  0.36118118679E+04  0.00000000000E+00 0. -1.
         21   -1    0    0  503  502  0.00000000000E+00 -0.00000000000E+00 -0.25611823544E+03  0.25611823544E+03  0.00000000000E+00 0. -1.
         24    2    1    2    0    0 -0.94080964343E+02 -0.58519346595E+03  0.25895788862E+04  0.26577705549E+04  0.80764435842E+02 0.  0.
         23    2    1    2    0    0  0.77510039906E+02  0.33792992952E+02  0.14670176689E+03  0.19225530783E+03  0.91054501942E+02 0.  0.
        -11    1    3    3    0    0 -0.18025657570E+02 -0.11575108508E+03  0.38246197089E+03  0.40000049651E+03  0.00000000000E+00 0.  1.
         12    1    3    3    0    0 -0.76055306773E+02 -0.46944238087E+03  0.22071169153E+04  0.22577700584E+04  0.00000000000E+00 0. -1.
        -13    1    4    4    0    0  0.20426941888E+02 -0.47581837244E+01  0.11416537383E+03  0.11607597878E+03  0.00000000000E+00 0.  1.
         13    1    4    4    0    0  0.57083098019E+02  0.38551176677E+02  0.32536393057E+02  0.76179329058E+02  0.00000000000E+00 0. -1.
         21    1    1    2  503  501  0.25011938572E+02  0.78516755948E+00 -0.10500337242E+03  0.10794406783E+03  0.00000000000E+00 0. -1.
          1    1    1    2  501    0 -0.84410141357E+01  0.55061530544E+03  0.72441635177E+03  0.90996017276E+03  0.00000000000E+00 0. -1.
<scales pt_clust_5="13000.00000" pt_clust_6="13000.00000" pt_clust_7="13000.00000" pt_clust_8="13000.00000" pt_clust_9="25.02426" pt_clust_10="13000.00000"></scales>
<clustering>
<clus scale="   25.024">  2  9  1 -1</clus>
<clus scale="   80.764">  5  6 -1 -1</clus>
<clus scale="   91.055">  7  8 -1 -1</clus>
<clus scale="  551.148">  7 10 -1 -1</clus>
<clus scale="  597.140">  1  5  2 -1</clus>
<clus scale="   25.024">  2  5  1 -1</clus>
</clustering>
</event>
<event>
10    4  0.2759992E-005  0.1315835E+03  0.7546771E-02  0.1248369E+00
         21   -1    0    0  501  502  0.00000000000E+00  0.00000000000E+00  0.36748720020E+02  0.36748720020E+02  0.00000000000E+00 0. -1.
          2   -1    0    0  503    0 -0.00000000000E+00 -0.00000000000E+00 -0.58668665943E+03  0.58668665943E+03  0.00000000000E+00 0. -1.
         24    2    1    2    0    0  0.13958421899E+02  0.65952087356E+00 -0.13879398295E+03  0.16123680313E+03  0.80859535443E+02 0.  0.
         23    2    1    2    0    0  0.61052636354E+01 -0.40994964660E+02 -0.26840894727E+03  0.28669654950E+03  0.91835108490E+02 0.  0.
        -11    1    3    3    0    0  0.19293334990E+02  0.20006488984E+02 -0.13840070961E+03  0.14116390756E+03  0.00000000000E+00 0.  1.
         12    1    3    3    0    0 -0.53349130908E+01 -0.19346968110E+02 -0.39327333584E+00  0.20072895573E+02  0.00000000000E+00 0. -1.
        -13    1    4    4    0    0 -0.10634388233E+02 -0.66862804876E+02 -0.21022232537E+03  0.22085549794E+03  0.00000000000E+00 0.  1.
         13    1    4    4    0    0  0.16739651869E+02  0.25867840216E+02 -0.58186621903E+02  0.65841051561E+02  0.00000000000E+00 0. -1.
         21    1    1    2  503  502 -0.10813449446E+02  0.17179490189E+02  0.86584355806E+01  0.22068848605E+02  0.00000000000E+00 0. -1.
          1    1    1    2  501    0 -0.92502360886E+01  0.23155953598E+02 -0.15139344477E+03  0.15343317821E+03  0.00000000000E+00 0. -1.
<scales pt_clust_5="13000.00000" pt_clust_6="13000.00000" pt_clust_7="13000.00000" pt_clust_8="13000.00000" pt_clust_9="20.29940" pt_clust_10="13000.00000"></scales>
<clustering>
<clus scale="   20.299">  1  9  2 -1</clus>
<clus scale="   80.860">  5  6 -1 -1</clus>
<clus scale="   81.857">  2  5  1 -1</clus>
<clus scale="   91.835">  7  8 -1 -1</clus>
<clus scale="   28.451">  7 10 -1 -1</clus>
<clus scale="   20.299">  1  5  2 -1</clus>
</clustering>
</event>
<event>
10    4  0.2759992E-005  0.1523146E+03  0.7546771E-02  0.1225829E+00
         21   -1    0    0  501  502  0.00000000000E+00  0.00000000000E+00  0.21342725066E+03  0.21342725066E+03  0.00000000000E+00 0.  1.
          2   -1    0    0  503    0 -0.00000000000E+00 -0.00000000000E+00 -0.59123294372E+03  0.59123294372E+03  0.00000000000E+00 0. -1.
         24    2    1    2    0    0 -0.10064504991E+02  0.17014551341E+02 -0.52698919272E+03  0.53359164850E+03  0.81312046402E+02 0.  0.
         23    2    1    2    0    0 -0.17091368171E+02 -0.11242038586E+02 -0.15229691048E+02  0.92135181135E+02  0.88535020279E+02 0.  0.
        -11    1    3    3    0    0  0.11624898307E+02  0.16563674691E+02 -0.30342502205E+02  0.36471372609E+02  0.00000000000E+00 0.  1.
         12    1    3    3    0    0 -0.21689403298E+02  0.45087665031E+00 -0.49664669052E+03  0.49712027590E+03  0.00000000000E+00 0. -1.
        -13    1    4    4    0    0  0.20771851311E+02 -0.21299442954E+02  0.22840863820E+02  0.37507880999E+02  0.00000000000E+00 0.  1.
         13    1    4    4    0    0 -0.37863219481E+02  0.10057404368E+02 -0.38070554868E+02  0.54627300135E+02  0.00000000000E+00 0. -1.
         21    1    1    2  503  502 -0.94471323862E+01 -0.17704103970E+02  0.11264870039E+03  0.11442208400E+03  0.00000000000E+00 0.  1.
          1    1    1    2  501    0  0.36603005548E+02  0.11931591214E+02  0.51764490321E+02  0.64511280737E+02  0.00000000000E+00 0. -1.
<scales pt_clust_5="13000.00000" pt_clust_6="13000.00000" pt_clust_7="13000.00000" pt_clust_8="13000.00000" pt_clust_9="20.06698" pt_clust_10="13000.00000"></scales>
<clustering>
<clus scale="   20.067">  1  9  2 -1</clus>
<clus scale="   81.312">  5  6 -1 -1</clus>
<clus scale="   83.602">  2  5  1 -1</clus>
<clus scale="   88.535">  7  8 -1 -1</clus>
<clus scale="   30.377">  7 10 -1 -1</clus>
<clus scale="   20.067">  1  5  2 -1</clus>
</clustering>
</event>
<event>
10    4  0.2759992E-005  0.2515686E+03  0.7546771E-02  0.1154956E+00
         21   -1    0    0  501  502  0.00000000000E+00  0.00000000000E+00  0.43409877926E+02  0.43409877926E+02  0.00000000000E+00 0. -1.
          2   -1    0    0  503    0 -0.00000000000E+00 -0.00000000000E+00 -0.13359207354E+04  0.13359207354E+04  0.00000000000E+00 0. -1.
         24    2    1    2    0    0  0.12490678336E+02  0.43438562146E+02 -0.45786539212E+03  0.46680661219E+03  0.78897212560E+02 0.  0.
         23    2    1    2    0    0  0.88329147449E+02 -0.29733270872E+02 -0.46044895293E+03  0.47851945226E+03  0.91002869480E+02 0.  0.
        -13    1    3    3    0    0  0.16825528322E+01 -0.21118334327E+02 -0.60868946201E+02  0.64450319165E+02  0.00000000000E+00 0.  1.
         14    1    3    3    0    0  0.10808125504E+02  0.64556896473E+02 -0.39699644592E+03  0.40235629302E+03  0.00000000000E+00 0. -1.
        -11    1    4    4    0    0  0.15753531701E+02  0.29600835346E+02 -0.81084531763E+02  0.87744427205E+02  0.00000000000E+00 0.  1.
         11    1    4    4    0    0  0.72575615748E+02 -0.59334106218E+02 -0.37936442116E+03  0.39077502506E+03  0.00000000000E+00 0. -1.
         21    1    1    2  503  502  0.17984653739E+02 -0.29676311847E+02  0.61266894695E+01  0.35237303796E+02  0.00000000000E+00 0. -1.
          1    1    1    2  501    0 -0.11880447952E+03  0.15971020574E+02 -0.38032320190E+03  0.39876724509E+03  0.00000000000E+00 0. -1.
<scales pt_clust_5="13000.00000" pt_clust_6="13000.00000" pt_clust_7="13000.00000" pt_clust_8="13000.00000" pt_clust_9="34.70059" pt_clust_10="13000.00000"></scales>
<clustering>
<clus scale="   34.701">  1  9  2 -1</clus>
<clus scale="   78.897">  5  6 -1 -1</clus>
<clus scale="   88.857">  2  5  1 -1</clus>
<clus scale="   91.003">  7  8 -1 -1</clus>
<clus scale="  106.871">  7 10 -1 -1</clus>
<clus scale="   34.701">  1  5  2 -1</clus>
</clustering>
</event>
<event>
10    4  0.2759992E-005  0.1539359E+03  0.7546771E-02  0.1218486E+00
          2   -1    0    0  503    0 -0.00000000000E+00  0.00000000000E+00  0.23548712793E+03  0.23548712793E+03  0.00000000000E+00 0. -1.
         21   -1    0    0  501  502  0.00000000000E+00 -0.00000000000E+00 -0.10480666795E+03  0.10480666795E+03  0.00000000000E+00 0. -1.
         24    2    1    2    0    0 -0.58180798293E+01 -0.41670597802E+02  0.26479043675E+02  0.93842981937E+02  0.79593195255E+02 0.  0.
         23    2    1    2    0    0  0.43221330329E+02  0.70238539862E+02  0.13464985553E+03  0.18296474673E+03  0.92433646874E+02 0.  0.
        -13    1    3    3    0    0 -0.38783527728E+02 -0.30922236245E+01  0.15767406820E+02  0.41980173746E+02  0.00000000000E+00 0.  1.
         14    1    3    3    0    0  0.32965447898E+02 -0.38578374177E+02  0.10711636855E+02  0.51862808191E+02  0.00000000000E+00 0. -1.
        -11    1    4    4    0    0  0.12424790758E+02  0.83657870939E+02  0.11877393113E+03  0.14580898982E+03  0.00000000000E+00 0. -1.
         11    1    4    4    0    0  0.30796539571E+02 -0.13419331077E+02  0.15875924394E+02  0.37155756909E+02  0.00000000000E+00 0.  1.
         21    1    1    2  503  502 -0.16475142492E+02 -0.15041583272E+02 -0.31436328718E+02  0.38547662843E+02  0.00000000000E+00 0. -1.
          1    1    1    2  501    0 -0.20928108008E+02 -0.13526358789E+02  0.98788948516E+00  0.24938404370E+02  0.00000000000E+00 0. -1.
<scales pt_clust_5="13000.00000" pt_clust_6="13000.00000" pt_clust_7="13000.00000" pt_clust_8="13000.00000" pt_clust_9="22.30873" pt_clust_10="13000.00000"></scales>
<clustering>
<clus scale="   22.309">  2  9  1 -1</clus>
<clus scale="   79.593">  5  6 -1 -1</clus>
<clus scale="   92.434">  7  8 -1 -1</clus>
<clus scale="   28.700">  7 10 -1 -1</clus>
<clus scale="   94.438">  1  5  2 -1</clus>
<clus scale="   22.309">  2  5  1 -1</clus>
</clustering>
</event>
<event>
10    4  0.2759992E-005  0.2053193E+03  0.7546771E-02  0.1166367E+00
         21   -1    0    0  501  502  0.00000000000E+00  0.00000000000E+00  0.67618354093E+02  0.67618354093E+02  0.00000000000E+00 0. -1.
          2   -1    0    0  503    0 -0.00000000000E+00 -0.00000000000E+00 -0.63765201742E+03  0.63765201742E+03  0.00000000000E+00 0. -1.
         24    2    1    2    0    0  0.57320662046E+02 -0.65732188391E+02 -0.16641074367E+03  0.20453961649E+03  0.80855056848E+02 0.  0.
         23    2    1    2    0    0  0.29727457894E+02  0.13608041979E+02 -0.20863848389E+03  0.22846952614E+03  0.87174576909E+02 0.  0.
        -11    1    3    3    0    0  0.28116534438E+02 -0.28585168584E+02 -0.14880784639E+03  0.15411497824E+03  0.00000000000E+00 0.  1.
         12    1    3    3    0    0  0.29204127608E+02 -0.37147019807E+02 -0.17602897280E+02  0.50424638249E+02  0.00000000000E+00 0. -1.
        -11    1    4    4    0    0  0.23139657552E+02 -0.22508235816E+02 -0.24022255122E+02  0.40238453901E+02  0.00000000000E+00 0.  1.
         11    1    4    4    0    0  0.65878003413E+01  0.36116277795E+02 -0.18461622876E+03  0.18823107224E+03  0.00000000000E+00 0. -1.
         21    1    1    2  503  502  0.16816619679E+01 -0.24179784431E+02  0.17353433590E+02  0.29809924849E+02  0.00000000000E+00 0. -1.
          1    1    1    2  501    0 -0.88729781907E+02  0.76303930843E+02 -0.21233786936E+03  0.24245130403E+03  0.00000000000E+00 0. -1.
<scales pt_clust_5="13000.00000" pt_clust_6="13000.00000" pt_clust_7="13000.00000" pt_clust_8="13000.00000" pt_clust_9="24.23819" pt_clust_10="13000.00000"></scales>
<clustering>
<clus scale="   24.238">  1  9  2 -1</clus>
<clus scale="   80.855">  5  6 -1 -1</clus>
<clus scale="   87.175">  7  8 -1 -1</clus>
<clus scale="  111.356">  7 10 -1 -1</clus>
<clus scale="  125.354">  2  5  1 -1</clus>
<clus scale="   24.238">  1  5  2 -1</clus>
</clustering>
</event>
<event>
10    4  0.2759992E-005  0.2561676E+03  0.7546771E-02  0.1152759E+00
          2   -1    0    0  503    0 -0.00000000000E+00  0.00000000000E+00  0.39732725496E+03  0.39732725496E+03  0.00000000000E+00 0. -1.
         21   -1    0    0  501  502  0.00000000000E+00 -0.00000000000E+00 -0.16606079919E+03  0.16606079919E+03  0.00000000000E+00 0. -1.
         24    2    1    2    0    0 -0.45652365180E+02  0.14334871833E+01  0.66466204402E+02  0.11360935775E+03  0.80019600778E+02 0.  0.
         23    2    1    2    0    0 -0.62860069646E+02 -0.47023435032E+01  0.20223032104E+02  0.11112902324E+03  0.89259108160E+02 0.  0.
        -11    1    3    3    0    0 -0.32525786769E+02  0.37830673725E+02  0.52627363213E+02  0.72517074114E+02  0.00000000000E+00 0.  1.
         12    1    3    3    0    0 -0.13126578411E+02 -0.36397186541E+02  0.13838841190E+02  0.41092283636E+02  0.00000000000E+00 0. -1.
        -11    1    4    4    0    0 -0.24975954822E+02  0.39839389794E+02  0.23494421579E+02  0.52563895820E+02  0.00000000000E+00 0. -1.
         11    1    4    4    0    0 -0.37884114823E+02 -0.44541733298E+02 -0.32713894751E+01  0.58565127424E+02  0.00000000000E+00 0.  1.
         21    1    1    2  503  502  0.24730400488E+02 -0.11037725962E+02 -0.87448712714E+02  0.91546171182E+02  0.00000000000E+00 0. -1.
          1    1    1    2  501    0  0.83782034337E+02  0.14306582282E+02  0.23202593198E+03  0.24710350197E+03  0.00000000000E+00 0. -1.
<scales pt_clust_5="13000.00000" pt_clust_6="13000.00000" pt_clust_7="13000.00000" pt_clust_8="13000.00000" pt_clust_9="27.08180" pt_clust_10="13000.00000"></scales>
<clustering>
<clus scale="   27.082">  2  9  1 -1</clus>
<clus scale="   80.020">  5  6 -1 -1</clus>
<clus scale="   88.622">  1  5  2 -1</clus>
<clus scale="   89.259">  7  8 -1 -1</clus>
<clus scale="   56.699">  7 10 -1 -1</clus>
<clus scale="   27.082">  2  5  1 -1</clus>
</clustering>
</event>
<event>
10    4  0.2759992E-005  0.1832027E+03  0.7546771E-02  0.1189591E+00
          2   -1    0    0  502    0 -0.00000000000E+00  0.00000000000E+00  0.59110315140E+03  0.59110315140E+03  0.00000000000E+00 0. -1.
         21   -1    0    0  503  502  0.00000000000E+00 -0.00000000000E+00 -0.18730824269E+03  0.18730824269E+03  0.00000000000E+00 0.  1.
         24    2    1    2    0    0 -0.65451755491E+02 -0.39343401982E+02 -0.14312940069E+03  0.17901091727E+03  0.75677259348E+02 0.  0.
         23    2    1    2    0    0  0.13586551581E+02  0.22000943703E+02  0.16033856957E+03  0.18640789935E+03  0.91492142508E+02 0.  0.
        -11    1    3    3    0    0 -0.32107889052E+02 -0.35474921373E+02 -0.13670174380E+03  0.14483353667E+03  0.00000000000E+00 0.  1.
         12    1    3    3    0    0 -0.33343866439E+02 -0.38684806097E+01 -0.64276568867E+01  0.34177380596E+02  0.00000000000E+00 0. -1.
        -11    1    4    4    0    0 -0.18813905841E+02 -0.19110086587E+02  0.12521154488E+02  0.29596245912E+02  0.00000000000E+00 0.  1.
         11    1    4    4    0    0  0.32400457422E+02  0.41111030290E+02  0.14781741508E+03  0.15681165343E+03  0.00000000000E+00 0. -1.
         21    1    1    2  503  501 -0.72544286217E+01  0.42719103347E+02  0.35372397116E+02  0.55935275123E+02  0.00000000000E+00 0. -1.
          1    1    1    2  501    0  0.59119632532E+02 -0.25376645067E+02  0.35121334272E+03  0.35705730236E+03  0.00000000000E+00 0. -1.
<scales pt_clust_5="13000.00000" pt_clust_6="13000.00000" pt_clust_7="13000.00000" pt_clust_8="13000.00000" pt_clust_9="43.33071" pt_clust_10="13000.00000"></scales>
<clustering>
<clus scale="   43.331">  2  9  1 -1</clus>
<clus scale="   75.677">  5  6 -1 -1</clus>
<clus scale="   91.492">  7  8 -1 -1</clus>
<clus scale="   63.951">  7 10 -1 -1</clus>
<clus scale="  104.493">  1  5  2 -1</clus>
<clus scale="   43.331">  2  5  1 -1</clus>
</clustering>
</event>
<event>
10    4  0.2759992E-005  0.2682715E+03  0.7546771E-02  0.1142939E+00
          4   -1    0    0  503    0 -0.00000000000E+00  0.00000000000E+00  0.87301029083E+02  0.87301029083E+02  0.00000000000E+00 0. -1.
         21   -1    0    0  501  502  0.00000000000E+00 -0.00000000000E+00 -0.54480029854E+03  0.54480029854E+03  0.00000000000E+00 0. -1.
         24    2    1    2    0    0  0.14723870915E+02  0.46523783705E+02 -0.65698323271E+02  0.11542181187E+03  0.81392076704E+02 0.  0.
         23    2    1    2    0    0  0.51999560260E+02  0.60138482253E+02 -0.80601171279E+02  0.14538978497E+03  0.91219786482E+02 0.  0.
        -11    1    3    3    0    0 -0.32067656922E+02  0.24994983978E+02 -0.15537746331E+02  0.43525916482E+02  0.00000000000E+00 0.  1.
         12    1    3    3    0    0  0.46791527837E+02  0.21528799727E+02 -0.50160576940E+02  0.71895895390E+02  0.00000000000E+00 0. -1.
        -13    1    4    4    0    0  0.52333388070E+02 -0.73007290685E+01 -0.27593206043E+02  0.59610981971E+02  0.00000000000E+00 0.  1.
         13    1    4    4    0    0 -0.33382781006E+00  0.67439211322E+02 -0.53007965236E+02  0.85778802995E+02  0.00000000000E+00 0. -1.
         21    1    1    2  503  502  0.14414363866E+02  0.17026804837E+02 -0.15333086662E+03  0.15494528269E+03  0.00000000000E+00 0. -1.
          3    1    1    2  501    0 -0.81137795041E+02 -0.12368907079E+03 -0.15786890828E+03  0.21634444809E+03  0.00000000000E+00 0. -1.
<scales pt_clust_5="13000.00000" pt_clust_6="13000.00000" pt_clust_7="13000.00000" pt_clust_8="13000.00000" pt_clust_9="22.30888" pt_clust_10="13000.00000"></scales>
<clustering>
<clus scale="   22.309">  2  9  1 -1</clus>
<clus scale="   81.392">  5  6 -1 -1</clus>
<clus scale="   91.220">  7  8 -1 -1</clus>
<clus scale="   97.459">  1  5  2 -1</clus>
<clus scale="  115.460">  7 10 -1 -1</clus>
<clus scale="   22.309">  2  5  1 -1</clus>
</clustering>
</event>
<event>
10    4  0.2759992E-005  0.4123811E+03  0.7546771E-02  0.1096438E+00
         21   -1    0    0  503  502  0.00000000000E+00  0.00000000000E+00  0.15149850445E+03  0.15149850445E+03  0.00000000000E+00 0. -1.
          2   -1    0    0  502    0 -0.00000000000E+00 -0.00000000000E+00 -0.19510749880E+04  0.19510749880E+04  0.00000000000E+00 0. -1.
         24    2    1    2    0    0  0.23202476198E+02  0.22846730491E+01 -0.20289674611E+03  0.21879234425E+03  0.78482008695E+02 0.  0.
         23    2    1    2    0    0  0.14830969733E+03  0.59038203669E+02 -0.75968140588E+03  0.78135029206E+03  0.88944728086E+02 0.  0.
        -13    1    3    3    0    0 -0.45322758893E+01 -0.23120381836E+02 -0.16809709974E+02  0.28942355301E+02  0.00000000000E+00 0.  1.
         14    1    3    3    0    0  0.27734752088E+02  0.25405054885E+02 -0.18608703613E+03  0.18984998895E+03  0.00000000000E+00 0. -1.
        -11    1    4    4    0    0  0.57175727778E+02  0.58605979373E+02 -0.48720587414E+03  0.49403773992E+03  0.00000000000E+00 0.  1.
         11    1    4    4    0    0  0.91133969556E+02  0.43222429656E+00 -0.27247553173E+03  0.28731255214E+03  0.00000000000E+00 0. -1.
         21    1    1    2  503  501  0.40591602900E+02  0.40343834855E+02  0.11143214010E+03  0.12526941001E+03  0.00000000000E+00 0. -1.
          1    1    1    2  501    0 -0.21210377643E+03 -0.10166671157E+03 -0.94843047162E+03  0.97716144609E+03  0.00000000000E+00 0. -1.
<scales pt_clust_5="13000.00000" pt_clust_6="13000.00000" pt_clust_7="13000.00000" pt_clust_8="13000.00000" pt_clust_9="57.23027" pt_clust_10="13000.00000"></scales>
<clustering>
<clus scale="   57.230">  1  9  2 -1</clus>
<clus scale="   78.482">  5  6 -1 -1</clus>
<clus scale="   85.948">  2  5  1 -1</clus>
<clus scale="   88.945">  7  8 -1 -1</clus>
<clus scale="  195.730">  7 10 -1 -1</clus>
<clus scale="   57.230">  1  5  2 -1</clus>
</clustering>
</event>
<event>
10    4  0.2759992E-005  0.3514282E+03  0.7546771E-02  0.1093746E+00
          2   -1    0    0  503    0 -0.00000000000E+00  0.00000000000E+00  0.10769299152E+04  0.10769299152E+04  0.00000000000E+00 0. -1.
         21   -1    0    0  501  502  0.00000000000E+00 -0.00000000000E+00 -0.89467994839E+02  0.89467994839E+02  0.00000000000E+00 0.  1.
         24    2    1    2    0    0  0.80863035839E+02  0.56848200840E+02  0.13392120970E+03  0.18530254881E+03  0.81434609874E+02 0.  0.
         23    2    1    2    0    0 -0.91510852008E+02  0.74775364951E+02  0.25561652381E+03  0.29509838370E+03  0.88191028902E+02 0.  0.
        -11    1    3    3    0    0  0.80801609408E+02  0.15565513063E+02  0.64580775258E+02  0.10460335469E+03  0.00000000000E+00 0.  1.
         12    1    3    3    0    0  0.61426430876E-01  0.41282687777E+02  0.69340434440E+02  0.80699194120E+02  0.00000000000E+00 0. -1.
        -13    1    4    4    0    0  0.48120060521E+01  0.44121352391E+02  0.57025047191E+02  0.72261366899E+02  0.00000000000E+00 0. -1.
         13    1    4    4    0    0 -0.96322858060E+02  0.30654012561E+02  0.19859147662E+03  0.22283701680E+03  0.00000000000E+00 0.  1.
         21    1    1    2  503  502  0.22804409676E+02  0.97566225221E+02  0.24848995442E+03  0.26792996632E+03  0.00000000000E+00 0. -1.
          1    1    1    2  501    0 -0.12156593507E+02 -0.22918979101E+03  0.34943423248E+03  0.41806701126E+03  0.00000000000E+00 0. -1.
<scales pt_clust_5="13000.00000" pt_clust_6="13000.00000" pt_clust_7="13000.00000" pt_clust_8="13000.00000" pt_clust_9="100.19591" pt_clust_10="13000.00000"></scales>
<clustering>
<clus scale="   81.435">  5  6 -1 -1</clus>
<clus scale="   88.191">  7  8 -1 -1</clus>
<clus scale="  100.196">  2  9  1 -1</clus>
<clus scale="  149.016">  1  5  2 -1</clus>
<clus scale="  151.179">  7 10 -1 -1</clus>
<clus scale="  100.196">  2  5  1 -1</clus>
</clustering>
</event>
<event>
10    4  0.2759992E-005  0.2377520E+03  0.7546771E-02  0.1153448E+00
         -1   -1    0    0    0  501 -0.00000000000E+00  0.00000000000E+00  0.91389176475E+03  0.91389176475E+03  0.00000000000E+00 0.  1.
         21   -1    0    0  503  502  0.00000000000E+00 -0.00000000000E+00 -0.40833969025E+02  0.40833969025E+02  0.00000000000E+00 0.  1.
         24    2    1    2    0    0 -0.43665719098E+01  0.75672000967E+02  0.33438433501E+03  0.35246894142E+03  0.81707725965E+02 0.  0.
         23    2    1    2    0    0 -0.49792762487E+02  0.43862785713E+02  0.34724623910E+03  0.36482394722E+03  0.90073851531E+02 0.  0.
        -11    1    3    3    0    0 -0.34386939756E+02  0.55201539016E+02  0.13558231719E+03  0.15037365551E+03  0.00000000000E+00 0.  1.
         12    1    3    3    0    0  0.30020367846E+02  0.20470461951E+02  0.19880201782E+03  0.20209528591E+03  0.00000000000E+00 0. -1.
        -11    1    4    4    0    0 -0.65565819503E+02  0.16118254018E+02  0.30199431602E+03  0.30944990178E+03  0.00000000000E+00 0. -1.
         11    1    4    4    0    0  0.15773057016E+02  0.27744531694E+02  0.45251923076E+02  0.55374045442E+02  0.00000000000E+00 0.  1.
         21    1    1    2  503  501  0.15369132385E+02 -0.12875282256E+02  0.76991117874E+01  0.21476951500E+02  0.00000000000E+00 0. -1.
         -2    1    1    2    0  502  0.38790202012E+02 -0.10665950442E+03  0.18372810983E+03  0.21595589364E+03  0.00000000000E+00 0.  1.
<scales pt_clust_5="13000.00000" pt_clust_6="13000.00000" pt_clust_7="13000.00000" pt_clust_8="13000.00000" pt_clust_9="20.04952" pt_clust_10="13000.00000"></scales>
<clustering>
<clus scale="   20.050">  2  9  1 -1</clus>
<clus scale="   81.708">  5  6 -1 -1</clus>
<clus scale="   90.074">  7  8 -1 -1</clus>
<clus scale="  109.065">  1  5  2 -1</clus>
<clus scale="   95.239">  7 10 -1 -1</clus>
<clus scale="   20.050">  2  5  1 -1</clus>
</clustering>
</event>
<event>
10    4  0.5197974E-005  0.6134695E+03  0.7546771E-02  0.1008725E+00
          2   -1    0    0  502    0 -0.00000000000E+00  0.00000000000E+00  0.84044948230E+03  0.84044948230E+03  0.00000000000E+00 0. -1.
         21   -1    0    0  503  502  0.00000000000E+00 -0.00000000000E+00 -0.30460008255E+03  0.30460008255E+03  0.00000000000E+00 0. -1.
         24    2    1    2    0    0 -0.27536315183E+03 -0.12543822488E+03  0.35290440901E+03  0.47169374481E+03  0.79961574167E+02 0.  0.
         23    2    1    2    0    0 -0.72823892391E+02 -0.60304689311E+02  0.19810686070E+03  0.23761529253E+03  0.90965510660E+02 0.  0.
        -11    1    3    3    0    0 -0.11830594453E+03 -0.87945995674E+02  0.20660231067E+03  0.25380171284E+03  0.00000000000E+00 0.  1.
         12    1    3    3    0    0 -0.15705720730E+03 -0.37492229209E+02  0.14630209835E+03  0.21789203197E+03  0.00000000000E+00 0. -1.
        -11    1    4    4    0    0 -0.28538890306E+02  0.55588606235E+01  0.12944287249E+03  0.13266810630E+03  0.00000000000E+00 0.  1.
         11    1    4    4    0    0 -0.44285002085E+02 -0.65863549934E+02  0.68663988215E+02  0.10494718623E+03  0.00000000000E+00 0. -1.
         21    1    1    2  503  501 -0.99275842175E+01 -0.18378485737E+02 -0.10797414274E+02  0.23514034562E+02  0.00000000000E+00 0.  1.
          1    1    1    2  501    0  0.35811462844E+03  0.20412139993E+03 -0.43644556927E+01  0.41222649295E+03  0.00000000000E+00 0. -1.
<scales pt_clust_5="13000.00000" pt_clust_6="13000.00000" pt_clust_7="13000.00000" pt_clust_8="13000.00000" pt_clust_9="20.88841" pt_clust_10="13000.00000"></scales>
<clustering>
<clus scale="   20.888">  2  9  1 -1</clus>
<clus scale="   79.962">  5  6 -1 -1</clus>
<clus scale="   90.966">  7  8 -1 -1</clus>
<clus scale="  316.314">  1  5  2 -1</clus>
<clus scale="  257.671">  7 10 -1 -1</clus>
<clus scale="   20.888">  2  5  1 -1</clus>
</clustering>
</event>
<event>
10    4  0.2759992E-005  0.1265560E+03  0.7546771E-02  0.1253550E+00
          2   -1    0    0  502    0 -0.00000000000E+00  0.00000000000E+00  0.96441249762E+03  0.96441249762E+03  0.00000000000E+00 0. -1.
         21   -1    0    0  503  502  0.00000000000E+00 -0.00000000000E+00 -0.16643086037E+02  0.16643086037E+02  0.00000000000E+00 0.  1.
         24    2    1    2    0    0  0.31257225052E+01  0.74574836045E+01  0.24968991569E+03  0.26231809413E+03  0.80002151875E+02 0.  0.
         23    2    1    2    0    0  0.58536669971E+01 -0.66800763719E+01  0.30805458962E+03  0.32043484913E+03  0.87760888287E+02 0.  0.
        -11    1    3    3    0    0 -0.27600442063E+02  0.25968847263E+02  0.17990842507E+03  0.18385648436E+03  0.00000000000E+00 0.  1.
         12    1    3    3    0    0  0.30726164568E+02 -0.18511363659E+02  0.69781490625E+02  0.78461609768E+02  0.00000000000E+00 0. -1.
        -11    1    4    4    0    0  0.38666015140E+02  0.98076551331E+01  0.23819110733E+03  0.24150829062E+03  0.00000000000E+00 0.  1.
         11    1    4    4    0    0 -0.32812348143E+02 -0.16487731505E+02  0.69863482293E+02  0.78926558514E+02  0.00000000000E+00 0. -1.
         21    1    1    2  503  501  0.28430781134E+02  0.21049216264E+02  0.22118317171E+03  0.22399413892E+03  0.00000000000E+00 0.  1.
          1    1    1    2  501    0 -0.37410170637E+02 -0.21826623496E+02  0.16884173456E+03  0.17430850148E+03  0.00000000000E+00 0. -1.
<scales pt_clust_5="13000.00000" pt_clust_6="13000.00000" pt_clust_7="13000.00000" pt_clust_8="13000.00000" pt_clust_9="35.37485" pt_clust_10="13000.00000"></scales>
<clustering>
<clus scale="   35.375">  2  9  1 -1</clus>
<clus scale="   80.002">  5  6 -1 -1</clus>
<clus scale="   82.972">  1  5  2 -1</clus>
<clus scale="   87.761">  7  8 -1 -1</clus>
<clus scale="   31.401">  7 10 -1 -1</clus>
<clus scale="   35.375">  2  5  1 -1</clus>
</clustering>
</event>
<event>
10    4  0.2759992E-005  0.1842371E+03  0.7546771E-02  0.1184799E+00
         21   -1    0    0  503  502  0.00000000000E+00  0.00000000000E+00  0.34403326836E+03  0.34403326836E+03  0.00000000000E+00 0. -1.
          2   -1    0    0  502    0 -0.00000000000E+00 -0.00000000000E+00 -0.43385296210E+03  0.43385296210E+03  0.00000000000E+00 0. -1.
         24    2    1    2    0    0 -0.29680643708E+02 -0.62615405591E+02 -0.18121962587E+03  0.21021599690E+03  0.80923315082E+02 0.  0.
         23    2    1    2    0    0 -0.31866894104E+02  0.43850729648E+02 -0.14672480434E+03  0.18051260207E+03  0.90101308912E+02 0.  0.
        -11    1    3    3    0    0 -0.46753857254E+02 -0.51069302253E+02 -0.17574226081E+03  0.18888975365E+03  0.00000000000E+00 0.  1.
         12    1    3    3    0    0  0.17073213546E+02 -0.11546103338E+02 -0.54773650634E+01  0.21326243249E+02  0.00000000000E+00 0. -1.
        -11    1    4    4    0    0 -0.61246978624E+02  0.17427024259E+02 -0.73034970588E+02  0.96896854923E+02  0.00000000000E+00 0.  1.
         11    1    4    4    0    0  0.29380084521E+02  0.26423705388E+02 -0.73689833749E+02  0.83615747146E+02  0.00000000000E+00 0. -1.
         21    1    1    2  503  501  0.12773769674E+02 -0.54957637903E+02  0.28261821909E+03  0.28819536589E+03  0.00000000000E+00 0. -1.
          1    1    1    2  501    0  0.48773768137E+02  0.73722313846E+02 -0.44493482617E+02  0.98962265599E+02  0.00000000000E+00 0. -1.
<scales pt_clust_5="13000.00000" pt_clust_6="13000.00000" pt_clust_7="13000.00000" pt_clust_8="13000.00000" pt_clust_9="56.42261" pt_clust_10="13000.00000"></scales>
<clustering>
<clus scale="   56.423">  1  9  2 -1</clus>
<clus scale="   80.923">  5  6 -1 -1</clus>
<clus scale="   90.101">  7  8 -1 -1</clus>
<clus scale="   72.907">  7 10 -1 -1</clus>
<clus scale="  114.278">  2  5  1 -1</clus>
<clus scale="   56.423">  1  5  2 -1</clus>
</clustering>
</event>
<event>
10    4  0.2759992E-005  0.2651433E+03  0.7546771E-02  0.1114488E+00
         21   -1    0    0  503  502  0.00000000000E+00  0.00000000000E+00  0.47658757148E+02  0.47658757148E+02  0.00000000000E+00 0.  1.
          2   -1    0    0  502    0 -0.00000000000E+00 -0.00000000000E+00 -0.14231583492E+04  0.14231583492E+04  0.00000000000E+00 0. -1.
         24    2    1    2    0    0 -0.20539311811E+03 -0.10268166275E+02 -0.63485072443E+03  0.67212065131E+03  0.80118408684E+02 0.  0.
         23    2    1    2    0    0  0.24940642541E+02 -0.38100266011E+02 -0.37153693974E+03  0.38361945541E+03  0.83967392809E+02 0.  0.
        -11    1    3    3    0    0 -0.96942029420E+02 -0.90364121175E+01 -0.18137246753E+03  0.20585282556E+03  0.00000000000E+00 0.  1.
         12    1    3    3    0    0 -0.10845108869E+03 -0.12317541578E+01 -0.45347825690E+03  0.46626782575E+03  0.00000000000E+00 0. -1.
        -11    1    4    4    0    0  0.37859082879E+02 -0.56910934825E+02 -0.32058424557E+03  0.32779021213E+03  0.00000000000E+00 0. -1.
         11    1    4    4    0    0 -0.12918440338E+02  0.18810668814E+02 -0.50952694176E+02  0.55829243285E+02  0.00000000000E+00 0.  1.
         21    1    1    2  503  501  0.40558413724E+02  0.79655715633E+01 -0.54488251105E+02  0.68391554761E+02  0.00000000000E+00 0.  1.
          1    1    1    2  501    0  0.13989406184E+03  0.40402860723E+02 -0.31462367680E+03  0.34668544489E+03  0.00000000000E+00 0. -1.
<scales pt_clust_5="13000.00000" pt_clust_6="13000.00000" pt_clust_7="13000.00000" pt_clust_8="13000.00000" pt_clust_9="41.33322" pt_clust_10="13000.00000"></scales>
<clustering>
<clus scale="   41.333">  1  9  2 -1</clus>
<clus scale="   80.118">  5  6 -1 -1</clus>
<clus scale="   83.967">  7  8 -1 -1</clus>
<clus scale="  161.833">  7 10 -1 -1</clus>
<clus scale="  203.389">  2  5  1 -1</clus>
<clus scale="   41.333">  1  5  2 -1</clus>
</clustering>
</event>
<event>
10    4  0.2759992E-005  0.2957966E+03  0.7546771E-02  0.1125992E+00
         21   -1    0    0  501  502  0.00000000000E+00  0.00000000000E+00  0.47053621031E+02  0.47053621031E+02  0.00000000000E+00 0.  1.
          2   -1    0    0  503    0 -0.00000000000E+00 -0.00000000000E+00 -0.10385986611E+04  0.10385986611E+04  0.00000000000E+00 0. -1.
         24    2    1    2    0    0 -0.48976665412E+02  0.42750018921E+02 -0.27727940512E+03  0.29704237936E+03  0.84403961747E+02 0.  0.
         23    2    1    2    0    0 -0.22828800457E+02 -0.33753460359E+02 -0.28996622170E+02  0.85025830380E+02  0.68761453723E+02 0.  0.
        -11    1    3    3    0    0 -0.65216910579E+02  0.25157775303E+02 -0.25475239221E+03  0.26416839406E+03  0.00000000000E+00 0.  1.
         12    1    3    3    0    0  0.16240245167E+02  0.17592243619E+02 -0.22527012904E+02  0.32873985292E+02  0.00000000000E+00 0. -1.
        -11    1    4    4    0    0 -0.30139499499E+02  0.11524573645E+02 -0.20919579809E+02  0.38455611387E+02  0.00000000000E+00 0. -1.
         11    1    4    4    0    0  0.73106990427E+01 -0.45278034004E+02 -0.80770423604E+01  0.46570218993E+02  0.00000000000E+00 0.  1.
         21    1    1    2  503  502 -0.11056812938E+02  0.20598790192E+02 -0.15477330421E+02  0.28037671563E+02  0.00000000000E+00 0. -1.
          1    1    1    2  501    0  0.82862278806E+02 -0.29595348755E+02 -0.66979168233E+03  0.67554640081E+03  0.00000000000E+00 0. -1.
<scales pt_clust_5="13000.00000" pt_clust_6="13000.00000" pt_clust_7="13000.00000" pt_clust_8="13000.00000" pt_clust_9="23.37869" pt_clust_10="13000.00000"></scales>
<clustering>
<clus scale="   23.379">  1  9  2 -1</clus>
<clus scale="   68.761">  7  8 -1 -1</clus>
<clus scale="   84.404">  5  6 -1 -1</clus>
<clus scale="   86.772">  7 10 -1 -1</clus>
<clus scale="  109.871">  2  5  1 -1</clus>
<clus scale="   23.379">  1  5  2 -1</clus>
</clustering>
</event>
<event>
10    4  0.2759992E-005  0.1784419E+03  0.7546771E-02  0.1187470E+00
         21   -1    0    0  501  502  0.00000000000E+00  0.00000000000E+00  0.73554524809E+02  0.73554524809E+02  0.00000000000E+00 0.  1.
          2   -1    0    0  503    0 -0.00000000000E+00 -0.00000000000E+00 -0.65770615635E+03  0.65770615635E+03  0.00000000000E+00 0. -1.
         24    2    1    2    0    0 -0.36617092970E+02  0.77756972919E+02 -0.20857533277E+03  0.23924285118E+03  0.79665011533E+02 0.  0.
         23    2    1    2    0    0 -0.24224374729E+02 -0.15647873783E+02 -0.25310323829E+03  0.26989624032E+03  0.89168688556E+02 0.  0.
        -13    1    3    3    0    0  0.58108687629E+01  0.21644663602E+02 -0.38126745286E+01  0.22733106811E+02  0.00000000000E+00 0.  1.
         14    1    3    3    0    0 -0.42427961733E+02  0.56112309316E+02 -0.20476265824E+03  0.21650974436E+03  0.00000000000E+00 0. -1.
        -13    1    4    4    0    0  0.12702025063E+02  0.30437402709E+02 -0.11641140725E+03  0.12099335793E+03  0.00000000000E+00 0.  1.
         13    1    4    4    0    0 -0.36926399792E+02 -0.46085276491E+02 -0.13669183104E+03  0.14890288239E+03  0.00000000000E+00 0. -1.
         21    1    1    2  503  502  0.72262393305E+02  0.24031439985E+02 -0.54274064603E+01  0.76346711356E+02  0.00000000000E+00 0.  1.
          1    1    1    2  501    0 -0.11420925606E+02 -0.86140539121E+02 -0.11704565402E+03  0.14577487831E+03  0.00000000000E+00 0. -1.
<scales pt_clust_5="13000.00000" pt_clust_6="13000.00000" pt_clust_7="13000.00000" pt_clust_8="13000.00000" pt_clust_9="76.15355" pt_clust_10="13000.00000"></scales>
<clustering>
<clus scale="   76.154">  1  9  2 -1</clus>
<clus scale="   79.665">  5  6 -1 -1</clus>
<clus scale="   89.169">  7  8 -1 -1</clus>
<clus scale="   78.687">  7 10 -1 -1</clus>
<clus scale="  118.521">  2  5  1 -1</clus>
<clus scale="   76.154">  1  5  2 -1</clus>
</clustering>
</event>
<event>
10    4  0.2759992E-005  0.2438198E+03  0.7546771E-02  0.1152658E+00
          2   -1    0    0  502    0 -0.00000000000E+00  0.00000000000E+00  0.33352619353E+03  0.33352619353E+03  0.00000000000E+00 0. -1.
         21   -1    0    0  503  502  0.00000000000E+00 -0.00000000000E+00 -0.41018666861E+03  0.41018666861E+03  0.00000000000E+00 0. -1.
         24    2    1    2    0    0  0.88368671791E+02  0.62103063661E+02 -0.75152802910E+02  0.14875007592E+03  0.69374553185E+02 0.  0.
         23    2    1    2    0    0  0.20503809257E+02 -0.93366454685E+01  0.25418067651E+03  0.27064857409E+03  0.90195649570E+02 0.  0.
        -13    1    3    3    0    0  0.20252581906E+02 -0.14642078995E+02 -0.85362092590E+01  0.26408794362E+02  0.00000000000E+00 0.  1.
         14    1    3    3    0    0  0.68116089885E+02  0.76745142656E+02 -0.66616593651E+02  0.12234128155E+03  0.00000000000E+00 0. -1.
        -11    1    4    4    0    0 -0.19741104917E+02 -0.36140531037E+02  0.15396846610E+03  0.15938048112E+03  0.00000000000E+00 0. -1.
         11    1    4    4    0    0  0.40244914174E+02  0.26803885568E+02  0.10021221041E+03  0.11126809297E+03  0.00000000000E+00 0.  1.
         21    1    1    2  503  501 -0.50044381806E+02 -0.11440247562E+02 -0.24655597946E+03  0.25184354354E+03  0.00000000000E+00 0. -1.
          1    1    1    2  501    0 -0.58828099243E+02 -0.41326170630E+02 -0.91323692274E+01  0.72470668599E+02  0.00000000000E+00 0. -1.
<scales pt_clust_5="13000.00000" pt_clust_6="13000.00000" pt_clust_7="13000.00000" pt_clust_8="13000.00000" pt_clust_9="51.33536" pt_clust_10="13000.00000"></scales>
<clustering>
<clus scale="   51.335">  2  9  1 -1</clus>
<clus scale="   69.375">  5  6 -1 -1</clus>
<clus scale="   90.196">  7  8 -1 -1</clus>
<clus scale="   84.082">  7 10 -1 -1</clus>
<clus scale="  103.026">  1  5  2 -1</clus>
<clus scale="   51.335">  2  5  1 -1</clus>
</clustering>
</event>
<event>
10    4  0.2759992E-005  0.2318106E+03  0.7546771E-02  0.1164715E+00
         -1   -1    0    0    0  501 -0.00000000000E+00  0.00000000000E+00  0.96163440371E+02  0.96163440371E+02  0.00000000000E+00 0.  1.
         21   -1    0    0  503  502  0.00000000000E+00 -0.00000000000E+00 -0.50561385508E+03  0.50561385508E+03  0.00000000000E+00 0.  1.
         24    2    1    2    0    0  0.30403993483E+02 -0.78676894891E+02 -0.12667673691E+03  0.16941252934E+03  0.74425484975E+02 0.  0.
         23    2    1    2    0    0  0.18377454023E+02  0.41122294123E+02  0.50722335469E+01  0.10315352481E+03  0.92661471157E+02 0.  0.
        -13    1    3    3    0    0  0.45536278052E+02 -0.55733110692E+02 -0.12183544714E+03  0.14150480001E+03  0.00000000000E+00 0.  1.
         14    1    3    3    0    0 -0.15132284569E+02 -0.22943784199E+02 -0.48412897688E+01  0.27907729329E+02  0.00000000000E+00 0. -1.
        -11    1    4    4    0    0  0.49569558802E+02  0.10191631303E+02  0.23151545404E+02  0.55650737309E+02  0.00000000000E+00 0.  1.
         11    1    4    4    0    0 -0.31192104779E+02  0.30930662820E+02 -0.18079311857E+02  0.47502787500E+02  0.00000000000E+00 0. -1.
         21    1    1    2  503  501 -0.25583597313E+01  0.88454023665E+02 -0.13253408069E+03  0.15936104308E+03  0.00000000000E+00 0.  1.
         -2    1    1    2    0  502 -0.46223087775E+02 -0.50899422897E+02 -0.15531183066E+03  0.16985019823E+03  0.00000000000E+00 0.  1.
<scales pt_clust_5="13000.00000" pt_clust_6="13000.00000" pt_clust_7="13000.00000" pt_clust_8="13000.00000" pt_clust_9="88.49101" pt_clust_10="13000.00000"></scales>
<clustering>
<clus scale="   74.425">  5  6 -1 -1</clus>
<clus scale="   88.491">  2  9  1 -1</clus>
<clus scale="   90.483">  1  5  2 -1</clus>
<clus scale="   92.661">  7  8 -1 -1</clus>
<clus scale="   46.192">  7 10 -1 -1</clus>
<clus scale="   88.491">  2  5  1 -1</clus>
</clustering>
</event>
<event>
10    4  0.2759992E-005  0.2968695E+03  0.7546771E-02  0.1122635E+00
          2   -1    0    0  503    0 -0.00000000000E+00  0.00000000000E+00  0.97861573550E+03  0.97861573550E+03  0.00000000000E+00 0. -1.
         21   -1    0    0  501  502  0.00000000000E+00 -0.00000000000E+00 -0.18869480990E+03  0.18869480990E+03  0.00000000000E+00 0. -1.
         24    2    1    2    0    0  0.85934656962E+02  0.26254244395E+02  0.42318661623E+02  0.12786786033E+03  0.80531173885E+02 0.  0.
         23    2    1    2    0    0 -0.14294634250E+03 -0.17643844982E+02  0.34050233882E+03  0.38123242970E+03  0.93012690619E+02 0.  0.
        -13    1    3    3    0    0  0.24578050182E+02  0.23331036142E+02  0.55514187335E+02  0.65040316679E+02  0.00000000000E+00 0.  1.
         14    1    3    3    0    0  0.61356606780E+02  0.29232082522E+01 -0.13195525712E+02  0.62827543648E+02  0.00000000000E+00 0. -1.
        -11    1    4    4    0    0 -0.65235408496E+02 -0.44636249584E+02  0.10266181078E+03  0.12956658787E+03  0.00000000000E+00 0. -1.
         11    1    4    4    0    0 -0.77710934002E+02  0.26992404603E+02  0.23784052803E+03  0.25166584183E+03  0.00000000000E+00 0.  1.
         21    1    1    2  503  502 -0.27588649869E+02  0.41837419772E+02 -0.11576573817E+03  0.12614757005E+03  0.00000000000E+00 0. -1.
          1    1    1    2  501    0  0.84600335406E+02 -0.50447819185E+02  0.52286566333E+03  0.53206268532E+03  0.00000000000E+00 0. -1.
<scales pt_clust_5="13000.00000" pt_clust_6="13000.00000" pt_clust_7="13000.00000" pt_clust_8="13000.00000" pt_clust_9="50.11490" pt_clust_10="13000.00000"></scales>
<clustering>
<clus scale="   50.115">  2  9  1 -1</clus>
<clus scale="   80.531">  5  6 -1 -1</clus>
<clus scale="   93.013">  7  8 -1 -1</clus>
<clus scale="   95.448">  7 10 -1 -1</clus>
<clus scale="  118.126">  1  5  2 -1</clus>
<clus scale="   50.115">  2  5  1 -1</clus>
</clustering>
</event>
<event>
10    4  0.2759992E-005  0.5714541E+03  0.7546771E-02  0.1053434E+00
          2   -1    0    0  503    0 -0.00000000000E+00  0.00000000000E+00  0.24784227546E+04  0.24784227546E+04  0.00000000000E+00 0. -1.
         21   -1    0    0  501  502  0.00000000000E+00 -0.00000000000E+00 -0.63398933068E+02  0.63398933068E+02  0.00000000000E+00 0. -1.
         24    2    1    2    0    0 -0.60664538910E+02 -0.31150015233E+02  0.97898384981E+03  0.98456365116E+03  0.79408408000E+02 0.  0.
         23    2    1    2    0    0  0.83226022574E+02 -0.11861160586E+03  0.96971215564E+02  0.19848040242E+03  0.94846031111E+02 0.  0.
        -13    1    3    3    0    0 -0.10481233180E+02 -0.38509976685E+02  0.20075659820E+03  0.20468533478E+03  0.00000000000E+00 0.  1.
         14    1    3    3    0    0 -0.50183305730E+02  0.73599614521E+01  0.77822725161E+03  0.77987831637E+03  0.00000000000E+00 0. -1.
        -13    1    4    4    0    0  0.30324604559E+02 -0.67627272751E+02  0.10056073896E+03  0.12492194316E+03  0.00000000000E+00 0.  1.
         13    1    4    4    0    0  0.52901418015E+02 -0.50984333112E+02 -0.35895233977E+01  0.73558459263E+02  0.00000000000E+00 0. -1.
         21    1    1    2  503  502  0.28071220438E+02 -0.11520627675E+02  0.48673338584E+02  0.57356884224E+02  0.00000000000E+00 0. -1.
          1    1    1    2  501    0 -0.50632704102E+02  0.16128224877E+03  0.12903954176E+04  0.13014207499E+04  0.00000000000E+00 0. -1.
<scales pt_clust_5="13000.00000" pt_clust_6="13000.00000" pt_clust_7="13000.00000" pt_clust_8="13000.00000" pt_clust_9="30.34334" pt_clust_10="13000.00000"></scales>
<clustering>
<clus scale="   30.343">  2  9  1 -1</clus>
<clus scale="   79.408">  5  6 -1 -1</clus>
<clus scale="   94.846">  7  8 -1 -1</clus>
<clus scale="  104.073">  1  5  2 -1</clus>
<clus scale="  165.655">  7 10 -1 -1</clus>
<clus scale="   30.343">  2  5  1 -1</clus>
</clustering>
</event>
<event>
10    4  0.2759992E-005  0.6185004E+03  0.7546771E-02  0.1007050E+00
         21   -1    0    0  503  502  0.00000000000E+00  0.00000000000E+00  0.31966573272E+03  0.31966573272E+03  0.00000000000E+00 0.  1.
          2   -1    0    0  502    0 -0.00000000000E+00 -0.00000000000E+00 -0.20698149778E+04  0.20698149778E+04  0.00000000000E+00 0. -1.
         24    2    1    2    0    0  0.29549105069E+02 -0.31358062406E+03 -0.97844051046E+03  0.10310416278E+04  0.80591862755E+02 0.  0.
         23    2    1    2    0    0 -0.22280779974E+03 -0.25127249535E+03 -0.37726354910E+03  0.51311962267E+03  0.90458715132E+02 0.  0.
        -13    1    3    3    0    0 -0.17484541574E+02 -0.35540477482E+02 -0.17885189127E+03  0.18318524434E+03  0.00000000000E+00 0.  1.
         14    1    3    3    0    0  0.47033646643E+02 -0.27804014657E+03 -0.79958861919E+03  0.84785638346E+03  0.00000000000E+00 0. -1.
        -11    1    4    4    0    0  0.66941792891E+00 -0.39570964366E+02 -0.35558550367E+02  0.53204509635E+02  0.00000000000E+00 0.  1.
         11    1    4    4    0    0 -0.22347721767E+03 -0.21170153099E+03 -0.34170499873E+03  0.45991511303E+03  0.00000000000E+00 0. -1.
         21    1    1    2  503  501  0.80933175047E+02  0.48590568426E+03 -0.75855836580E+02  0.49840608018E+03  0.00000000000E+00 0.  1.
          1    1    1    2  501    0  0.11232551962E+03  0.78947435147E+02 -0.31858934898E+03  0.34691337991E+03  0.00000000000E+00 0. -1.
<scales pt_clust_5="13000.00000" pt_clust_6="13000.00000" pt_clust_7="13000.00000" pt_clust_8="13000.00000" pt_clust_9="411.09547" pt_clust_10="13000.00000"></scales>
<clustering>
<clus scale="   80.592">  5  6 -1 -1</clus>
<clus scale="   90.459">  7  8 -1 -1</clus>
<clus scale="  137.294">  7 10 -1 -1</clus>
<clus scale="  325.117">  2  5  1 -1</clus>
<clus scale="  411.095">  1  9  2 -1</clus>
<clus scale="  411.095">  1  5  2 -1</clus>
</clustering>
</event>
<event>
10    4  0.2759992E-005  0.3324053E+03  0.7546771E-02  0.1114272E+00
         21   -1    0    0  503  502  0.00000000000E+00  0.00000000000E+00  0.16579792491E+03  0.16579792491E+03  0.00000000000E+00 0. -1.
          4   -1    0    0  502    0 -0.00000000000E+00 -0.00000000000E+00 -0.10290696464E+04  0.10290696464E+04  0.00000000000E+00 0. -1.
         24    2    1    2    0    0 -0.59213913247E+02  0.34744969550E+02 -0.66580682817E+03  0.67395383259E+03  0.78749829156E+02 0.  0.
         23    2    1    2    0    0 -0.72133675331E+02  0.40566131211E+02 -0.27634476344E+03  0.30244444509E+03  0.90869884821E+02 0.  0.
        -13    1    3    3    0    0 -0.57696595329E+02  0.33430142957E+02 -0.26898924286E+03  0.27713116812E+03  0.00000000000E+00 0.  1.
         14    1    3    3    0    0 -0.15173179179E+01  0.13148265929E+01 -0.39681758531E+03  0.39682266447E+03  0.00000000000E+00 0. -1.
        -13    1    4    4    0    0 -0.44221065384E+02 -0.27548228943E+01 -0.22634443664E+03  0.23064018659E+03  0.00000000000E+00 0.  1.
         13    1    4    4    0    0 -0.27912609947E+02  0.43320954105E+02 -0.50000326800E+02  0.71804258500E+02  0.00000000000E+00 0. -1.
         21    1    1    2  503  501  0.14955604212E+02 -0.15404176415E+02  0.84756130055E+02  0.87433176370E+02  0.00000000000E+00 0. -1.
          3    1    1    2  501    0  0.11639198437E+03 -0.59906924346E+02 -0.58762599813E+01  0.13103611731E+03  0.00000000000E+00 0. -1.
<scales pt_clust_5="13000.00000" pt_clust_6="13000.00000" pt_clust_7="13000.00000" pt_clust_8="13000.00000" pt_clust_9="21.46995" pt_clust_10="13000.00000"></scales>
<clustering>
<clus scale="   21.470">  1  9  2 -1</clus>
<clus scale="   78.750">  5  6 -1 -1</clus>
<clus scale="   90.870">  7  8 -1 -1</clus>
<clus scale="  103.783">  2  5  1 -1</clus>
<clus scale="  130.799">  7 10 -1 -1</clus>
<clus scale="   21.470">  1  5  2 -1</clus>
</clustering>
</event>
<event>
10    4  0.3399087E-005  0.2918487E+03  0.7546771E-02  0.1123456E+00
          2   -1    0    0  502    0 -0.00000000000E+00  0.00000000000E+00  0.46653068215E+03  0.46653068215E+03  0.00000000000E+00 0. -1.
         21   -1    0    0  503  502  0.00000000000E+00 -0.00000000000E+00 -0.22792066273E+03  0.22792066273E+03  0.00000000000E+00 0.  1.
         24    2    1    2    0    0 -0.29230445562E+02 -0.64465920755E+02 -0.91618410891E+01  0.11069661064E+03  0.84613984590E+02 0.  0.
         23    2    1    2    0    0  0.31446852486E+02  0.75505692989E+02  0.38996477135E+03  0.40876673373E+03  0.91256262868E+02 0.  0.
        -11    1    3    3    0    0 -0.48859552869E+02 -0.71326897506E+02 -0.17645139631E+02  0.88239068258E+02  0.00000000000E+00 0.  1.
         12    1    3    3    0    0  0.19629107306E+02  0.68609767516E+01  0.84832985416E+01  0.22457542381E+02  0.00000000000E+00 0. -1.
        -13    1    4    4    0    0  0.26610039010E+02 -0.10946980323E+02  0.47589473380E+02  0.55611945937E+02  0.00000000000E+00 0.  1.
         13    1    4    4    0    0  0.48368134755E+01  0.86452673312E+02  0.34237529797E+03  0.35315478780E+03  0.00000000000E+00 0. -1.
         21    1    1    2  503  501  0.28822221888E+02 -0.41927005918E+02 -0.10816139107E+03  0.11953025064E+03  0.00000000000E+00 0.  1.
          1    1    1    2  501    0 -0.31038628812E+02  0.30887233684E+02 -0.34031519767E+02  0.55457749872E+02  0.00000000000E+00 0. -1.
<scales pt_clust_5="13000.00000" pt_clust_6="13000.00000" pt_clust_7="13000.00000" pt_clust_8="13000.00000" pt_clust_9="50.87823" pt_clust_10="13000.00000"></scales>
<clustering>
<clus scale="   50.878">  2  9  1 -1</clus>
<clus scale="   84.614">  5  6 -1 -1</clus>
<clus scale="   91.256">  7  8 -1 -1</clus>
<clus scale="   24.454">  7 10 -1 -1</clus>
<clus scale="  121.815">  1  5  2 -1</clus>
<clus scale="   50.878">  2  5  1 -1</clus>
</clustering>
</event>
<event>
10    4  0.2759992E-005  0.4757391E+03  0.7546771E-02  0.1025222E+00
          4   -1    0    0  502    0 -0.00000000000E+00  0.00000000000E+00  0.22828023840E+04  0.22828023840E+04  0.00000000000E+00 0. -1.
         21   -1    0    0  503  502  0.00000000000E+00 -0.00000000000E+00 -0.10059217652E+03  0.10059217652E+03  0.00000000000E+00 0. -1.
         24    2    1    2    0    0 -0.18106592763E+03  0.36588581682E+03  0.13958529034E+04  0.14566473790E+04  0.82212880380E+02 0.  0.
         23    2    1    2    0    0  0.16908400515E+02 -0.18389836551E+02  0.21163443810E+03  0.23148538455E+03  0.90400596100E+02 0.  0.
        -11    1    3    3    0    0 -0.69403152612E+02  0.17887430472E+03  0.52475657173E+03  0.55873273938E+03  0.00000000000E+00 0.  1.
         12    1    3    3    0    0 -0.11166277502E+03  0.18701151210E+03  0.87109633171E+03  0.89791463965E+03  0.00000000000E+00 0. -1.
        -11    1    4    4    0    0  0.37079691463E+02  0.95554190870E+01  0.18214495348E+03  0.18612628409E+03  0.00000000000E+00 0.  1.
         11    1    4    4    0    0 -0.20171290948E+02 -0.27945255638E+02  0.29489484621E+02  0.45359100458E+02  0.00000000000E+00 0. -1.
         21    1    1    2  503  501 -0.33420842060E+01 -0.23997149251E+02  0.59653870792E+02  0.64386465965E+02  0.00000000000E+00 0. -1.
          3    1    1    2  501    0  0.16749961132E+03 -0.32349883102E+03  0.51506899511E+03  0.63087533094E+03  0.00000000000E+00 0. -1.
<scales pt_clust_5="13000.00000" pt_clust_6="13000.00000" pt_clust_7="13000.00000" pt_clust_8="13000.00000" pt_clust_9="24.22877" pt_clust_10="13000.00000"></scales>
<clustering>
<clus scale="   24.229">  2  9  1 -1</clus>
<clus scale="   82.213">  5  6 -1 -1</clus>
<clus scale="   90.401">  7  8 -1 -1</clus>
<clus scale="  376.038">  7 10 -1 -1</clus>
<clus scale="  410.381">  1  5  2 -1</clus>
<clus scale="   24.229">  2  5  1 -1</clus>
</clustering>
</event>
<event>
10    4  0.2759992E-005  0.2449500E+03  0.7546771E-02  0.1146174E+00
         21   -1    0    0  503  502  0.00000000000E+00  0.00000000000E+00  0.13739729683E+03  0.13739729683E+03  0.00000000000E+00 0.  1.
          2   -1    0    0  502    0 -0.00000000000E+00 -0.00000000000E+00 -0.69375861150E+03  0.69375861150E+03  0.00000000000E+00 0. -1.
         24    2    1    2    0    0 -0.28046819864E+02 -0.73557745692E+02 -0.22579220055E+03  0.25280312354E+03  0.82036183393E+02 0.  0.
         23    2    1    2    0    0  0.26321795124E+02 -0.14123006406E+02 -0.31788596858E+03  0.33269329865E+03  0.93493559881E+02 0.  0.
        -11    1    3    3    0    0  0.11785623479E+02 -0.49342982444E+02 -0.51128958344E+02  0.72026392515E+02  0.00000000000E+00 0.  1.
         12    1    3    3    0    0 -0.39832443343E+02 -0.24214763248E+02 -0.17466324220E+03  0.18077673102E+03  0.00000000000E+00 0. -1.
        -11    1    4    4    0    0  0.59807038606E+02 -0.19426112178E+02 -0.17881588582E+03  0.18955045957E+03  0.00000000000E+00 0. -1.
         11    1    4    4    0    0 -0.33485243482E+02  0.53031057713E+01 -0.13907008276E+03  0.14314283908E+03  0.00000000000E+00 0.  1.
         21    1    1    2  503  501  0.13208935833E+02 -0.30338704472E+02  0.85519396279E+02  0.91697765048E+02  0.00000000000E+00 0.  1.
          1    1    1    2  501    0 -0.11483911094E+02  0.11801945657E+03 -0.98202541828E+02  0.15396172110E+03  0.00000000000E+00 0. -1.
<scales pt_clust_5="13000.00000" pt_clust_6="13000.00000" pt_clust_7="13000.00000" pt_clust_8="13000.00000" pt_clust_9="33.08947" pt_clust_10="13000.00000"></scales>
<clustering>
<clus scale="   33.089">  1  9  2 -1</clus>
<clus scale="   82.036">  5  6 -1 -1</clus>
<clus scale="   93.494">  7  8 -1 -1</clus>
<clus scale="  100.760">  7 10 -1 -1</clus>
<clus scale="  118.497">  2  5  1 -1</clus>
<clus scale="   33.089">  1  5  2 -1</clus>
</clustering>
</event>
<event>
10    4  0.2759992E-005  0.4003128E+03  0.7546771E-02  0.1073486E+00
         21   -1    0    0  503  502  0.00000000000E+00  0.00000000000E+00  0.20536908142E+03  0.20536908142E+03  0.00000000000E+00 0.  1.
          2   -1    0    0  502    0 -0.00000000000E+00 -0.00000000000E+00 -0.18631739667E+04  0.18631739667E+04  0.00000000000E+00 0. -1.
         24    2    1    2    0    0  0.13638027496E+03 -0.65498398062E+02 -0.68034421775E+03  0.70153251319E+03  0.79937431015E+02 0.  0.
         23    2    1    2    0    0 -0.20187298073E+03  0.11163736959E+03 -0.10910899350E+04  0.11188092758E+04  0.89673555377E+02 0.  0.
        -11    1    3    3    0    0  0.22550439656E+02 -0.40714431872E+02 -0.11049410555E+03  0.11989634962E+03  0.00000000000E+00 0.  1.
         12    1    3    3    0    0  0.11382983530E+03 -0.24783966190E+02 -0.56985011220E+03  0.58163616356E+03  0.00000000000E+00 0. -1.
        -11    1    4    4    0    0 -0.71571631417E+02  0.64254728344E+02 -0.28266758010E+03  0.29858353835E+03  0.00000000000E+00 0.  1.
         11    1    4    4    0    0 -0.13030134932E+03  0.47382641244E+02 -0.80842235495E+03  0.82022573741E+03  0.00000000000E+00 0. -1.
         21    1    1    2  503  501  0.17005579135E+02  0.10724316633E+02  0.15933806778E+03  0.16060143378E+03  0.00000000000E+00 0.  1.
          1    1    1    2  501    0  0.48487126639E+02 -0.56863288159E+02 -0.45708800270E+02  0.87599825412E+02  0.00000000000E+00 0. -1.
<scales pt_clust_5="13000.00000" pt_clust_6="13000.00000" pt_clust_7="13000.00000" pt_clust_8="13000.00000" pt_clust_9="20.10474" pt_clust_10="13000.00000"></scales>
<clustering>
<clus scale="   20.105">  1  9  2 -1</clus>
<clus scale="   79.937">  5  6 -1 -1</clus>
<clus scale="   89.674">  7  8 -1 -1</clus>
<clus scale="   76.607">  7 10 -1 -1</clus>
<clus scale="  173.367">  2  5  1 -1</clus>
<clus scale="   20.105">  1  5  2 -1</clus>
</clustering>
</event>
<event>
10    4  0.2759992E-005  0.6706194E+03  0.7546771E-02  0.1033543E+00
         21   -1    0    0  503  502  0.00000000000E+00  0.00000000000E+00  0.16746464985E+03  0.16746464985E+03  0.00000000000E+00 0. -1.
         -1   -1    0    0    0  501 -0.00000000000E+00 -0.00000000000E+00 -0.11919150813E+04  0.11919150813E+04  0.00000000000E+00 0.  1.
         24    2    1    2    0    0 -0.66894960185E+02 -0.31674472864E+02 -0.28055405757E+03  0.30194066628E+03  0.83542676581E+02 0.  0.
         23    2    1    2    0    0  0.14622677245E+03 -0.56758114868E+02  0.63921414114E+02  0.19272851850E+03  0.91948801383E+02 0.  0.
        -13    1    3    3    0    0 -0.86333898350E+02 -0.18983943164E+02 -0.22138919730E+03  0.23838437194E+03  0.00000000000E+00 0.  1.
         14    1    3    3    0    0  0.19438938164E+02 -0.12690529700E+02 -0.59164860264E+02  0.63556294346E+02  0.00000000000E+00 0. -1.
        -13    1    4    4    0    0  0.10055490619E+03 -0.76663256797E+02  0.23586774766E+02  0.12862690250E+03  0.00000000000E+00 0.  1.
         13    1    4    4    0    0  0.45671866258E+02  0.19905141929E+02  0.40334639348E+02  0.64101616002E+02  0.00000000000E+00 0. -1.
         21    1    1    2  503  501 -0.38862923164E+02 -0.49639656822E+02 -0.23461925329E+02  0.67267259989E+02  0.00000000000E+00 0. -1.
         -2    1    1    2    0  502 -0.40468889099E+02  0.13807224455E+03 -0.78435586262E+03  0.79744328634E+03  0.00000000000E+00 0.  1.
<scales pt_clust_5="13000.00000" pt_clust_6="13000.00000" pt_clust_7="13000.00000" pt_clust_8="13000.00000" pt_clust_9="63.04302" pt_clust_10="13000.00000"></scales>
<clustering>
<clus scale="   63.043">  1  9  2 -1</clus>
<clus scale="   83.543">  5  6 -1 -1</clus>
<clus scale="   91.949">  7  8 -1 -1</clus>
<clus scale="  114.420">  2  5  1 -1</clus>
<clus scale="  147.330">  7 10 -1 -1</clus>
<clus scale="   63.043">  1  5  2 -1</clus>
</clustering>
</event>
<event>
10    4  0.2759992E-005  0.4364734E+03  0.7546771E-02  0.1073787E+00
         21   -1    0    0  501  502  0.00000000000E+00  0.00000000000E+00  0.28366132920E+03  0.28366132920E+03  0.00000000000E+00 0.  1.
         -1   -1    0    0    0  501 -0.00000000000E+00 -0.00000000000E+00 -0.31867273555E+03  0.31867273555E+03  0.00000000000E+00 0.  1.
         24    2    1    2    0    0  0.58234965433E+02  0.84375786201E+02 -0.41354602343E+02  0.13662216505E+03  0.80279688283E+02 0.  0.
         23    2    1    2    0    0 -0.18295780295E+03 -0.19204164342E+03  0.36003540088E+02  0.28239581279E+03  0.89986608518E+02 0.  0.
        -13    1    3    3    0    0  0.36684801318E+02  0.59223125128E+02 -0.65509740278E+02  0.95627816397E+02  0.00000000000E+00 0.  1.
         14    1    3    3    0    0  0.21550164115E+02  0.25152661073E+02  0.24155137935E+02  0.40994348649E+02  0.00000000000E+00 0. -1.
        -11    1    4    4    0    0 -0.70890026389E+02 -0.13740099417E+03  0.30536361918E+02  0.15759726660E+03  0.00000000000E+00 0.  1.
         11    1    4    4    0    0 -0.11206777656E+03 -0.54640649254E+02  0.54671781696E+01  0.12479854619E+03  0.00000000000E+00 0. -1.
         21    1    1    2  503  502 -0.49607950117E+01  0.24250851793E+02  0.50506311492E+01  0.25263059491E+02  0.00000000000E+00 0.  1.
         -2    1    1    2    0  503  0.12968363253E+03  0.83415005428E+02 -0.34710975238E+02  0.15805302742E+03  0.00000000000E+00 0.  1.
<scales pt_clust_5="13000.00000" pt_clust_6="13000.00000" pt_clust_7="13000.00000" pt_clust_8="13000.00000" pt_clust_9="24.75305" pt_clust_10="13000.00000"></scales>
<clustering>
<clus scale="   24.753">  1  9  2 -1</clus>
<clus scale="   80.280">  5  6 -1 -1</clus>
<clus scale="   89.987">  7  8 -1 -1</clus>
<clus scale="  132.658">  2  5  1 -1</clus>
<clus scale="  202.152">  7 10 -1 -1</clus>
<clus scale="   24.753">  1  5  2 -1</clus>
</clustering>
</event>
<event>
10    4  0.2759992E-005  0.1580151E+03  0.7546771E-02  0.1221736E+00
         21   -1    0    0  503  502  0.00000000000E+00  0.00000000000E+00  0.51805878982E+03  0.51805878982E+03  0.00000000000E+00 0.  1.
         -1   -1    0    0    0  501 -0.00000000000E+00 -0.00000000000E+00 -0.41267629889E+03  0.41267629889E+03  0.00000000000E+00 0.  1.
         24    2    1    2    0    0  0.12505044248E+02  0.12349915055E+02 -0.38391968809E+03  0.39250614105E+03  0.79736110537E+02 0.  0.
         23    2    1    2    0    0 -0.30154013512E+02  0.18786400193E+02  0.26762993982E+03  0.28499911919E+03  0.91304544745E+02 0.  0.
        -11    1    3    3    0    0  0.44597922707E+02  0.14037367056E+02 -0.17540561612E+03  0.18153003208E+03  0.00000000000E+00 0.  1.
         12    1    3    3    0    0 -0.32092878459E+02 -0.16874520007E+01 -0.20851407198E+03  0.21097610897E+03  0.00000000000E+00 0. -1.
        -11    1    4    4    0    0 -0.17688454260E+02 -0.20404940767E+02  0.19068309507E+02  0.33058182788E+02  0.00000000000E+00 0. -1.
         11    1    4    4    0    0 -0.12465559252E+02  0.39191340960E+02  0.24856163031E+03  0.25194093641E+03  0.00000000000E+00 0.  1.
         21    1    1    2  503  501 -0.22569803468E+01 -0.42568068520E+02  0.22590167190E+03  0.22988845075E+03  0.00000000000E+00 0.  1.
         -2    1    1    2    0  502  0.19905949610E+02  0.11431753272E+02 -0.42294326973E+01  0.23341377717E+02  0.00000000000E+00 0.  1.
<scales pt_clust_5="13000.00000" pt_clust_6="13000.00000" pt_clust_7="13000.00000" pt_clust_8="13000.00000" pt_clust_9="42.62786" pt_clust_10="13000.00000"></scales>
<clustering>
<clus scale="   42.628">  1  9  2 -1</clus>
<clus scale="   79.736">  5  6 -1 -1</clus>
<clus scale="   81.552">  2  5  1 -1</clus>
<clus scale="   91.305">  7  8 -1 -1</clus>
<clus scale="   30.854">  7 10 -1 -1</clus>
<clus scale="   42.628">  1  5  2 -1</clus>
</clustering>
</event>
<event>
10    4  0.2759992E-005  0.7949929E+03  0.7546771E-02  0.1026419E+00
          4   -1    0    0  503    0 -0.00000000000E+00  0.00000000000E+00  0.33985947891E+03  0.33985947891E+03  0.00000000000E+00 0. -1.
         21   -1    0    0  501  502  0.00000000000E+00 -0.00000000000E+00 -0.66675394921E+03  0.66675394921E+03  0.00000000000E+00 0. -1.
         24    2    1    2    0    0  0.20917794634E+02  0.16980762491E+02 -0.13017694520E+03  0.15440510229E+03  0.78542969913E+02 0.  0.
         23    2    1    2    0    0 -0.91567928985E+02  0.35565345936E+03  0.39282549235E+01  0.37857169332E+03  0.91798839960E+02 0.  0.
        -13    1    3    3    0    0  0.49204308707E+02  0.53163919018E+01 -0.59519769970E+02  0.77407564459E+02  0.00000000000E+00 0.  1.
         14    1    3    3    0    0 -0.28286514073E+02  0.11664370589E+02 -0.70657175233E+02  0.76997537828E+02  0.00000000000E+00 0. -1.
        -11    1    4    4    0    0 -0.34514364403E+02  0.24041315533E+02  0.10346358455E+01  0.42074893631E+02  0.00000000000E+00 0.  1.
         11    1    4    4    0    0 -0.57053564582E+02  0.33161214383E+03  0.28936190781E+01  0.33649679969E+03  0.00000000000E+00 0. -1.
         21    1    1    2  503  502  0.10677921152E+02  0.22579284544E+02 -0.29898774028E+02  0.38958680406E+02  0.00000000000E+00 0. -1.
          3    1    1    2  501    0  0.59972213199E+02 -0.39521350640E+03 -0.17074700599E+03  0.43467795211E+03  0.00000000000E+00 0. -1.
<scales pt_clust_5="13000.00000" pt_clust_6="13000.00000" pt_clust_7="13000.00000" pt_clust_8="13000.00000" pt_clust_9="24.97683" pt_clust_10="13000.00000"></scales>
<clustering>
<clus scale="   24.977">  2  9  1 -1</clus>
<clus scale="   78.543">  5  6 -1 -1</clus>
<clus scale="   84.850">  1  5  2 -1</clus>
<clus scale="   91.799">  7  8 -1 -1</clus>
<clus scale="  383.022">  7 10 -1 -1</clus>
<clus scale="   24.977">  2  5  1 -1</clus>
</clustering>
</event>
<event>
10    4  0.2759992E-005  0.1681685E+03  0.7546771E-02  0.1208445E+00
         -3   -1    0    0    0  501 -0.00000000000E+00  0.00000000000E+00  0.70637787874E+03  0.70637787874E+03  0.00000000000E+00 0.  1.
         21   -1    0    0  501  502  0.00000000000E+00 -0.00000000000E+00 -0.33209282171E+02  0.33209282171E+02  0.00000000000E+00 0.  1.
         24    2    1    2    0    0 -0.34087712665E+02 -0.29545876757E+01  0.19934850588E+03  0.21760174058E+03  0.80249541829E+02 0.  0.
         23    2    1    2    0    0 -0.10006510502E+02  0.45418948662E+02  0.12811622840E+03  0.16370429299E+03  0.90676989439E+02 0.  0.
        -13    1    3    3    0    0 -0.40317679452E+02  0.81870879056E+01  0.38813392564E+02  0.56559907417E+02  0.00000000000E+00 0.  1.
         14    1    3    3    0    0  0.62299667869E+01 -0.11141675581E+02  0.16053511332E+03  0.16104183316E+03  0.00000000000E+00 0. -1.
        -13    1    4    4    0    0  0.35999411279E+02 -0.12460502449E+01  0.52131547035E+02  0.63365672489E+02  0.00000000000E+00 0. -1.
         13    1    4    4    0    0 -0.46005921781E+02  0.46664998907E+02  0.75984681363E+02  0.10033862050E+03  0.00000000000E+00 0.  1.
         21    1    1    2  503  502 -0.11498437738E+02 -0.36361976958E+02  0.14487847231E+03  0.14981381504E+03  0.00000000000E+00 0. -1.
         -4    1    1    2    0  503  0.55592660904E+02 -0.61023840282E+01  0.20082538998E+03  0.20846731230E+03  0.00000000000E+00 0.  1.
<scales pt_clust_5="13000.00000" pt_clust_6="13000.00000" pt_clust_7="13000.00000" pt_clust_8="13000.00000" pt_clust_9="38.13671" pt_clust_10="13000.00000"></scales>
<clustering>
<clus scale="   38.137">  2  9  1 -1</clus>
<clus scale="   80.250">  5  6 -1 -1</clus>
<clus scale="   89.640">  1  5  2 -1</clus>
<clus scale="   90.677">  7  8 -1 -1</clus>
<clus scale="   39.943">  7 10 -1 -1</clus>
<clus scale="   38.137">  2  5  1 -1</clus>
</clustering>
</event>
<event>
10    4  0.2759992E-005  0.5726642E+03  0.7546771E-02  0.1051410E+00
          2   -1    0    0  503    0 -0.00000000000E+00  0.00000000000E+00  0.23771688018E+03  0.23771688018E+03  0.00000000000E+00 0. -1.
         21   -1    0    0  501  502  0.00000000000E+00 -0.00000000000E+00 -0.80929840253E+03  0.80929840253E+03  0.00000000000E+00 0. -1.
         24    2    1    2    0    0  0.69431607911E+02  0.20931679619E+02  0.94543761271E+02  0.14420608799E+03  0.81228010132E+02 0.  0.
         23    2    1    2    0    0  0.14834097252E+03  0.16081758985E+03 -0.14419870512E+03  0.27749757860E+03  0.91347130431E+02 0.  0.
        -11    1    3    3    0    0  0.30027009040E+01  0.19828390247E+02 -0.83529302926E+01  0.21724472766E+02  0.00000000000E+00 0.  1.
         12    1    3    3    0    0  0.66428907007E+02  0.11032893721E+01  0.10289669156E+03  0.12248161523E+03  0.00000000000E+00 0. -1.
        -13    1    4    4    0    0  0.15693271094E+03  0.12724429306E+03 -0.11722626458E+03  0.23358292529E+03  0.00000000000E+00 0. -1.
         13    1    4    4    0    0 -0.85917384242E+01  0.33573296793E+02 -0.26972440548E+02  0.43914653315E+02  0.00000000000E+00 0.  1.
         21    1    1    2  503  502  0.31245913488E+02  0.92622853752E+00 -0.24110164965E+02  0.39477399403E+02  0.00000000000E+00 0. -1.
          1    1    1    2  501    0 -0.24901849392E+03 -0.18267549801E+03 -0.49781641353E+03  0.58583421671E+03  0.00000000000E+00 0. -1.
<scales pt_clust_5="13000.00000" pt_clust_6="13000.00000" pt_clust_7="13000.00000" pt_clust_8="13000.00000" pt_clust_9="31.25964" pt_clust_10="13000.00000"></scales>
<clustering>
<clus scale="   31.260">  2  9  1 -1</clus>
<clus scale="   81.228">  5  6 -1 -1</clus>
<clus scale="   91.347">  7  8 -1 -1</clus>
<clus scale="  109.534">  1  5  2 -1</clus>
<clus scale="  265.749">  7 10 -1 -1</clus>
<clus scale="   31.260">  2  5  1 -1</clus>
</clustering>
</event>
<event>
10    4  0.2759992E-005  0.1835857E+03  0.7546771E-02  0.1189486E+00
         -1   -1    0    0    0  501 -0.00000000000E+00  0.00000000000E+00  0.10188944622E+03  0.10188944622E+03  0.00000000000E+00 0.  1.
         21   -1    0    0  501  502  0.00000000000E+00 -0.00000000000E+00 -0.31579493710E+03  0.31579493710E+03  0.00000000000E+00 0. -1.
         24    2    1    2    0    0 -0.74094138395E+02  0.12966694112E+02 -0.35848179917E+02  0.11587206739E+03  0.80518119056E+02 0.  0.
         23    2    1    2    0    0  0.17680609581E+02  0.25620824034E+02 -0.10338825705E+03  0.14134613268E+03  0.91217141743E+02 0.  0.
        -13    1    3    3    0    0 -0.64208121917E+02 -0.20512099684E+02 -0.22809529581E+01  0.67443546022E+02  0.00000000000E+00 0.  1.
         14    1    3    3    0    0 -0.98860164782E+01  0.33478793796E+02 -0.33567226959E+02  0.48428521365E+02  0.00000000000E+00 0. -1.
        -11    1    4    4    0    0  0.96818447437E+01 -0.23133331535E+02 -0.85011501042E+02  0.88633201764E+02  0.00000000000E+00 0. -1.
         11    1    4    4    0    0  0.79987648376E+01  0.48754155569E+02 -0.18376756010E+02  0.52712930915E+02  0.00000000000E+00 0.  1.
         21    1    1    2  503  502  0.23691350559E+02 -0.13776736012E+02 -0.10557284818E+03  0.10907201666E+03  0.00000000000E+00 0. -1.
         -2    1    1    2    0  503  0.32722178255E+02 -0.24810782135E+02  0.30903794261E+02  0.51394166591E+02  0.00000000000E+00 0.  1.
<scales pt_clust_5="13000.00000" pt_clust_6="13000.00000" pt_clust_7="13000.00000" pt_clust_8="13000.00000" pt_clust_9="27.40581" pt_clust_10="13000.00000"></scales>
<clustering>
<clus scale="   27.406">  2  9  1 -1</clus>
<clus scale="   80.518">  5  6 -1 -1</clus>
<clus scale="   91.217">  7  8 -1 -1</clus>
<clus scale="   42.402">  7 10 -1 -1</clus>
<clus scale="  104.083">  1  5  2 -1</clus>
<clus scale="   27.406">  2  5  1 -1</clus>
</clustering>
</event>
<event>
10    4  0.2759992E-005  0.4217683E+03  0.7546771E-02  0.1090899E+00
          2   -1    0    0  502    0 -0.00000000000E+00  0.00000000000E+00  0.76717725372E+03  0.76717725372E+03  0.00000000000E+00 0. -1.
         21   -1    0    0  503  502  0.00000000000E+00 -0.00000000000E+00 -0.13759097259E+03  0.13759097259E+03  0.00000000000E+00 0.  1.
         24    2    1    2    0    0 -0.49185384567E+02 -0.84525855707E+01  0.14188283137E+03  0.17059133603E+03  0.80498557956E+02 0.  0.
         23    2    1    2    0    0 -0.12983280921E+03 -0.12498455420E+03  0.21610691199E+03  0.30301117024E+03  0.11240940684E+03 0.  0.
        -11    1    3    3    0    0 -0.18621053988E+02 -0.43707161282E+02  0.80719683624E+02  0.93662836405E+02  0.00000000000E+00 0.  1.
         12    1    3    3    0    0 -0.30564330580E+02  0.35254575712E+02  0.61163147747E+02  0.76928499626E+02  0.00000000000E+00 0. -1.
        -11    1    4    4    0    0 -0.75497875936E+02 -0.13210893947E+03  0.12603678104E+03  0.19758029086E+03  0.00000000000E+00 0.  1.
         11    1    4    4    0    0 -0.54334933272E+02  0.71243852718E+01  0.90070130945E+02  0.10543087938E+03  0.00000000000E+00 0. -1.
         21    1    1    2  503  501  0.19974321681E+02  0.96611723417E+01 -0.48258288765E+02  0.53114726885E+02  0.00000000000E+00 0.  1.
          1    1    1    2  501    0  0.15904387209E+03  0.12377596743E+03  0.31985482654E+03  0.37805099316E+03  0.00000000000E+00 0. -1.
<scales pt_clust_5="13000.00000" pt_clust_6="13000.00000" pt_clust_7="13000.00000" pt_clust_8="13000.00000" pt_clust_9="22.18810" pt_clust_10="13000.00000"></scales>
<clustering>
<clus scale="   22.188">  2  9  1 -1</clus>
<clus scale="   80.499">  5  6 -1 -1</clus>
<clus scale="   92.912">  1  5  2 -1</clus>
<clus scale="  112.409">  7  8 -1 -1</clus>
<clus scale="  184.569">  7 10 -1 -1</clus>
<clus scale="   22.188">  2  5  1 -1</clus>
</clustering>
</event>
<event>
10    4  0.2759992E-005  0.1396097E+03  0.7546771E-02  0.1235929E+00
          4   -1    0    0  503    0 -0.00000000000E+00  0.00000000000E+00  0.45155488409E+03  0.45155488409E+03  0.00000000000E+00 0. -1.
         21   -1    0    0  501  502  0.00000000000E+00 -0.00000000000E+00 -0.96871136450E+02  0.96871136450E+02  0.00000000000E+00 0. -1.
         24    2    1    2    0    0 -0.29509931791E+02  0.49508370533E+02  0.91499112566E+02  0.13533876013E+03  0.81379220727E+02 0.  0.
         23    2    1    2    0    0 -0.38946918561E+02 -0.14489561989E+02  0.17226260372E+03  0.19930451373E+03  0.91219924805E+02 0.  0.
        -13    1    3    3    0    0 -0.14393515069E+02  0.21934404912E+02  0.99492225700E+02  0.10289312110E+03  0.00000000000E+00 0.  1.
         14    1    3    3    0    0 -0.15116416723E+02  0.27573965621E+02 -0.79931131334E+01  0.32445639032E+02  0.00000000000E+00 0. -1.
        -13    1    4    4    0    0 -0.59505641062E+02  0.15290224521E+02  0.12914128388E+03  0.14301113064E+03  0.00000000000E+00 0.  1.
         13    1    4    4    0    0  0.20558722501E+02 -0.29779786509E+02  0.43121319838E+02  0.56293383092E+02  0.00000000000E+00 0. -1.
         21    1    1    2  503  502  0.45061653125E+02 -0.26182222805E+02 -0.49065736613E+02  0.71578683158E+02  0.00000000000E+00 0. -1.
          3    1    1    2  501    0  0.23395197227E+02 -0.88365857390E+01  0.13998776797E+03  0.14220406353E+03  0.00000000000E+00 0. -1.
<scales pt_clust_5="13000.00000" pt_clust_6="13000.00000" pt_clust_7="13000.00000" pt_clust_8="13000.00000" pt_clust_9="52.11585" pt_clust_10="13000.00000"></scales>
<clustering>
<clus scale="   52.116">  2  9  1 -1</clus>
<clus scale="   81.379">  5  6 -1 -1</clus>
<clus scale="   88.157">  1  5  2 -1</clus>
<clus scale="   91.220">  7  8 -1 -1</clus>
<clus scale="   24.377">  7 10 -1 -1</clus>
<clus scale="   52.116">  2  5  1 -1</clus>
</clustering>
</event>
<event>
10    4  0.2759992E-005  0.4716660E+03  0.7546771E-02  0.1085166E+00
         21   -1    0    0  501  502  0.00000000000E+00  0.00000000000E+00  0.54604368884E+02  0.54604368884E+02  0.00000000000E+00 0. -1.
          2   -1    0    0  503    0 -0.00000000000E+00 -0.00000000000E+00 -0.20642406383E+04  0.20642406383E+04  0.00000000000E+00 0. -1.
         24    2    1    2    0    0 -0.20871965237E+02  0.26392432996E+02 -0.19634585676E+03  0.21103182346E+03  0.69645786613E+02 0.  0.
         23    2    1    2    0    0  0.23077131919E+03 -0.17112084900E+03 -0.82665602179E+03  0.87993158770E+03  0.91551482461E+02 0.  0.
        -13    1    3    3    0    0  0.16132353228E+02  0.33562326262E+02 -0.12378747517E+03  0.12926724865E+03  0.00000000000E+00 0.  1.
         14    1    3    3    0    0 -0.37004318465E+02 -0.71698932658E+01 -0.72558381595E+02  0.81764574812E+02  0.00000000000E+00 0. -1.
        -11    1    4    4    0    0  0.15041283650E+03 -0.15603691335E+03 -0.65217628324E+03  0.68724482111E+03  0.00000000000E+00 0. -1.
         11    1    4    4    0    0  0.80358482697E+02 -0.15083935643E+02 -0.17447973855E+03  0.19268676659E+03  0.00000000000E+00 0.  1.
         21    1    1    2  503  502 -0.97004565290E+02  0.32362347767E+02 -0.19296683758E+03  0.21838820400E+03  0.00000000000E+00 0. -1.
          1    1    1    2  501    0 -0.11289478867E+03  0.11236606823E+03 -0.79366755324E+03  0.80949339198E+03  0.00000000000E+00 0. -1.
<scales pt_clust_5="13000.00000" pt_clust_6="13000.00000" pt_clust_7="13000.00000" pt_clust_8="13000.00000" pt_clust_9="105.39224" pt_clust_10="13000.00000"></scales>
<clustering>
<clus scale="   69.646">  5  6 -1 -1</clus>
<clus scale="   77.348">  2  5  1 -1</clus>
<clus scale="   91.551">  7  8 -1 -1</clus>
<clus scale="  105.392">  1  9  2 -1</clus>
<clus scale="  206.433">  7 10 -1 -1</clus>
<clus scale="  105.392">  1  5  2 -1</clus>
</clustering>
</event>
<event>
10    4  0.2759992E-005  0.3228208E+03  0.7546771E-02  0.1114964E+00
          2   -1    0    0  502    0 -0.00000000000E+00  0.00000000000E+00  0.35558743253E+03  0.35558743253E+03  0.00000000000E+00 0. -1.
         21   -1    0    0  503  502  0.00000000000E+00 -0.00000000000E+00 -0.17974770640E+03  0.17974770640E+03  0.00000000000E+00 0.  1.
         24    2    1    2    0    0  0.59220448387E+02  0.66961886600E+02 -0.33138942187E+02  0.12559210310E+03  0.81757147142E+02 0.  0.
         23    2    1    2    0    0  0.27097768223E+02  0.31976508007E+02 -0.44274020540E+02  0.10982851341E+03  0.91352763260E+02 0.  0.
        -13    1    3    3    0    0  0.75150290907E+02  0.30626277110E+02 -0.17970767607E+02  0.83117287981E+02  0.00000000000E+00 0.  1.
         14    1    3    3    0    0 -0.15929842520E+02  0.36335609490E+02 -0.15168174579E+02  0.42474815123E+02  0.00000000000E+00 0. -1.
        -11    1    4    4    0    0  0.46626183596E+02  0.73584460298E+01 -0.58639266351E+02  0.75277561616E+02  0.00000000000E+00 0. -1.
         11    1    4    4    0    0 -0.19528415372E+02  0.24618061978E+02  0.14365245810E+02  0.34550951791E+02  0.00000000000E+00 0.  1.
         21    1    1    2  503  501 -0.22317007659E+02 -0.18999551592E+02  0.29292150385E+01  0.29455255767E+02  0.00000000000E+00 0. -1.
          1    1    1    2  501    0 -0.64001208951E+02 -0.79938843015E+02  0.25032347383E+03  0.27045926665E+03  0.00000000000E+00 0. -1.
<scales pt_clust_5="13000.00000" pt_clust_6="13000.00000" pt_clust_7="13000.00000" pt_clust_8="13000.00000" pt_clust_9="29.30924" pt_clust_10="13000.00000"></scales>
<clustering>
<clus scale="   29.309">  2  9  1 -1</clus>
<clus scale="   81.757">  5  6 -1 -1</clus>
<clus scale="   91.353">  7  8 -1 -1</clus>
<clus scale="  104.144">  7 10 -1 -1</clus>
<clus scale="  111.343">  1  5  2 -1</clus>
<clus scale="   29.309">  2  5  1 -1</clus>
</clustering>
</event>
<event>
10    4  0.2759992E-005  0.3564089E+03  0.7546771E-02  0.1112308E+00
          2   -1    0    0  502    0 -0.00000000000E+00  0.00000000000E+00  0.59622622434E+03  0.59622622434E+03  0.00000000000E+00 0. -1.
         21   -1    0    0  503  502  0.00000000000E+00 -0.00000000000E+00 -0.11919779984E+03  0.11919779984E+03  0.00000000000E+00 0. -1.
         24    2    1    2    0    0 -0.32308592992E+02 -0.17777798166E+02  0.93936065247E+02  0.13048615115E+03  0.82720952599E+02 0.  0.
         23    2    1    2    0    0  0.14998012099E+03 -0.64984055193E+02  0.31018223542E+03  0.36242704205E+03  0.91778960088E+02 0.  0.
        -13    1    3    3    0    0 -0.82993968571E+01  0.32807282111E+02  0.43610749055E+02  0.55200499824E+02  0.00000000000E+00 0.  1.
         14    1    3    3    0    0 -0.24009196135E+02 -0.50585080277E+02  0.50325316192E+02  0.75285651326E+02  0.00000000000E+00 0. -1.
        -13    1    4    4    0    0  0.33436121732E+02 -0.51705938982E+02  0.59340274903E+02  0.85514598684E+02  0.00000000000E+00 0.  1.
         13    1    4    4    0    0  0.11654399926E+03 -0.13278116212E+02  0.25084196052E+03  0.27691244336E+03  0.00000000000E+00 0. -1.
         21    1    1    2  503  501  0.18638895138E+02  0.18584891384E+02 -0.30111031959E+02  0.39993510040E+02  0.00000000000E+00 0.  1.
          1    1    1    2  501    0 -0.13631042314E+03  0.64176961976E+02  0.10302115579E+03  0.18251732094E+03  0.00000000000E+00 0. -1.
<scales pt_clust_5="13000.00000" pt_clust_6="13000.00000" pt_clust_7="13000.00000" pt_clust_8="13000.00000" pt_clust_9="26.32122" pt_clust_10="13000.00000"></scales>
<clustering>
<clus scale="   26.321">  2  9  1 -1</clus>
<clus scale="   82.721">  5  6 -1 -1</clus>
<clus scale="   88.489">  1  5  2 -1</clus>
<clus scale="   91.779">  7  8 -1 -1</clus>
<clus scale="  152.141">  7 10 -1 -1</clus>
<clus scale="   26.321">  2  5  1 -1</clus>
</clustering>
</event>
<event>
10    4  0.2759992E-005  0.1861651E+03  0.7546771E-02  0.1186090E+00
          2   -1    0    0  503    0 -0.00000000000E+00  0.00000000000E+00  0.34223773312E+03  0.34223773312E+03  0.00000000000E+00 0. -1.
         21   -1    0    0  501  502  0.00000000000E+00 -0.00000000000E+00 -0.13490352912E+03  0.13490352912E+03  0.00000000000E+00 0.  1.
         24    2    1    2    0    0 -0.90650336539E+01  0.72351416660E+02  0.22149099241E+03  0.24668011870E+03  0.80473094369E+02 0.  0.
         23    2    1    2    0    0  0.60400293936E+02 -0.19250840293E+02 -0.24027884558E+02  0.11241725169E+03  0.89674460587E+02 0.  0.
        -11    1    3    3    0    0  0.62336612446E+01  0.82581233712E+02  0.13600299411E+03  0.15923358032E+03  0.00000000000E+00 0.  1.
         12    1    3    3    0    0 -0.15298694899E+02 -0.10229817052E+02  0.85487998298E+02  0.87446538385E+02  0.00000000000E+00 0. -1.
        -11    1    4    4    0    0  0.53969674507E+02  0.28860697257E+02 -0.15504266935E+02  0.63135155863E+02  0.00000000000E+00 0.  1.
         11    1    4    4    0    0  0.64306194286E+01 -0.48111537551E+02 -0.85236176230E+01  0.49282095827E+02  0.00000000000E+00 0. -1.
         21    1    1    2  503  502 -0.16171129102E+02 -0.13076881394E+02 -0.39989962002E+02  0.45074463994E+02  0.00000000000E+00 0.  1.
          1    1    1    2  501    0 -0.35164131180E+02 -0.40023694973E+02  0.49861058153E+02  0.72969427852E+02  0.00000000000E+00 0. -1.
<scales pt_clust_5="13000.00000" pt_clust_6="13000.00000" pt_clust_7="13000.00000" pt_clust_8="13000.00000" pt_clust_9="20.79688" pt_clust_10="13000.00000"></scales>
<clustering>
<clus scale="   20.797">  2  9  1 -1</clus>
<clus scale="   80.473">  5  6 -1 -1</clus>
<clus scale="   89.674">  7  8 -1 -1</clus>
<clus scale="   55.842">  7 10 -1 -1</clus>
<clus scale="  107.624">  1  5  2 -1</clus>
<clus scale="   20.797">  2  5  1 -1</clus>
</clustering>
</event>
<event>
10    4  0.2759992E-005  0.6542815E+03  0.7546771E-02  0.9983016E-01
         21   -1    0    0  503  502  0.00000000000E+00  0.00000000000E+00  0.21693349330E+03  0.21693349330E+03  0.00000000000E+00 0. -1.
          2   -1    0    0  502    0 -0.00000000000E+00 -0.00000000000E+00 -0.17387352856E+04  0.17387352856E+04  0.00000000000E+00 0. -1.
         24    2    1    2    0    0 -0.92426814892E+02  0.33680695758E+03 -0.33955028112E+03  0.49380488589E+03  0.81038442316E+02 0.  0.
         23    2    1    2    0    0 -0.86352866209E+02  0.95048172416E+02 -0.48336063289E+03  0.50838364563E+03  0.91243942992E+02 0.  0.
        -11    1    3    3    0    0 -0.45558387169E+02  0.76089388109E+02 -0.51864871163E+02  0.10273814523E+03  0.00000000000E+00 0.  1.
         12    1    3    3    0    0 -0.46868427723E+02  0.26071756947E+03 -0.28768540996E+03  0.39106674066E+03  0.00000000000E+00 0. -1.
        -11    1    4    4    0    0 -0.19945623618E+02 -0.14276768054E+02 -0.39835388551E+02  0.46781536834E+02  0.00000000000E+00 0.  1.
         11    1    4    4    0    0 -0.66407242590E+02  0.10932494047E+03 -0.44352524434E+03  0.46160210879E+03  0.00000000000E+00 0. -1.
         21    1    1    2  503  501 -0.28848369082E+02 -0.24543729194E+01  0.54550770266E+02  0.61757905419E+02  0.00000000000E+00 0. -1.
          1    1    1    2  501    0  0.20762805018E+03 -0.42940075707E+03 -0.75344164858E+03  0.89172234199E+03  0.00000000000E+00 0. -1.
<scales pt_clust_5="13000.00000" pt_clust_6="13000.00000" pt_clust_7="13000.00000" pt_clust_8="13000.00000" pt_clust_9="28.95259" pt_clust_10="13000.00000"></scales>
<clustering>
<clus scale="   28.953">  1  9  2 -1</clus>
<clus scale="   81.038">  5  6 -1 -1</clus>
<clus scale="   91.244">  7  8 -1 -1</clus>
<clus scale="  361.295">  2  5  1 -1</clus>
<clus scale="  258.570">  7 10 -1 -1</clus>
<clus scale="   28.953">  1  5  2 -1</clus>
</clustering>
</event>
<event>
10    4  0.2759992E-005  0.5273555E+03  0.7546771E-02  0.1054718E+00
          2   -1    0    0  503    0 -0.00000000000E+00  0.00000000000E+00  0.20171842501E+03  0.20171842501E+03  0.00000000000E+00 0. -1.
         21   -1    0    0  501  502  0.00000000000E+00 -0.00000000000E+00 -0.18052281907E+04  0.18052281907E+04  0.00000000000E+00 0. -1.
         24    2    1    2    0    0 -0.39122151232E+02 -0.91217230842E+02 -0.14886447376E+03  0.19613283359E+03  0.80351297095E+02 0.  0.
         23    2    1    2    0    0  0.17481629231E+03  0.18808507332E+03 -0.38740538206E+03  0.47347524010E+03  0.90327969529E+02 0.  0.
        -13    1    3    3    0    0  0.15650854454E+02 -0.25933747159E+02 -0.83226423049E+02  0.88567183428E+02  0.00000000000E+00 0.  1.
         14    1    3    3    0    0 -0.54773005686E+02 -0.65283483683E+02 -0.65638050711E+02  0.10756565016E+03  0.00000000000E+00 0. -1.
        -13    1    4    4    0    0  0.11751080501E+03  0.17901346507E+03 -0.30107451417E+03  0.36945970424E+03  0.00000000000E+00 0. -1.
         13    1    4    4    0    0  0.57305487303E+02  0.90716082446E+01 -0.86330867884E+02  0.10401553586E+03  0.00000000000E+00 0.  1.
         21    1    1    2  503  502 -0.38745057750E+03 -0.14424285147E+03 -0.98506583088E+03  0.10683064361E+04  0.00000000000E+00 0. -1.
          1    1    1    2  501    0  0.25175643642E+03  0.47375008997E+02 -0.82174078970E+02  0.26903210591E+03  0.00000000000E+00 0. -1.
<scales pt_clust_5="13000.00000" pt_clust_6="13000.00000" pt_clust_7="13000.00000" pt_clust_8="13000.00000" pt_clust_9="429.76419" pt_clust_10="13000.00000"></scales>
<clustering>
<clus scale="   80.351">  5  6 -1 -1</clus>
<clus scale="   90.328">  7  8 -1 -1</clus>
<clus scale="  127.701">  1  5  2 -1</clus>
<clus scale="  231.232">  7 10 -1 -1</clus>
<clus scale="  429.764">  2  9  1 -1</clus>
<clus scale="  429.764">  2  5  1 -1</clus>
</clustering>
</event>
<event>
10    4  0.2759992E-005  0.3895532E+03  0.7546771E-02  0.1087399E+00
         -1   -1    0    0    0  501 -0.00000000000E+00  0.00000000000E+00  0.30692998042E+03  0.30692998042E+03  0.00000000000E+00 0.  1.
         21   -1    0    0  503  502  0.00000000000E+00 -0.00000000000E+00 -0.11634289398E+04  0.11634289398E+04  0.00000000000E+00 0.  1.
         24    2    1    2    0    0 -0.58061299556E+02 -0.79957558282E+02  0.14445382576E+03  0.19391572439E+03  0.83498950640E+02 0.  0.
         23    2    1    2    0    0  0.46597110026E+02  0.18055194731E+03 -0.32042155044E+03  0.38168827468E+03  0.90805686539E+02 0.  0.
        -11    1    3    3    0    0  0.12025256825E+02 -0.51930558395E+02  0.50851145602E+02  0.73669727202E+02  0.00000000000E+00 0.  1.
         12    1    3    3    0    0 -0.70086556381E+02 -0.28026999887E+02  0.93602680158E+02  0.12024599719E+03  0.00000000000E+00 0. -1.
        -13    1    4    4    0    0  0.12340364096E+02  0.46938892384E+02 -0.17351634775E+03  0.18017621137E+03  0.00000000000E+00 0.  1.
         13    1    4    4    0    0  0.34256745930E+02  0.13361305492E+03 -0.14690520268E+03  0.20151206332E+03  0.00000000000E+00 0. -1.
         21    1    1    2  503  501  0.20377938510E+02 -0.19585947124E+03 -0.75070307125E+03  0.77610005414E+03  0.00000000000E+00 0.  1.
         -2    1    1    2    0  502 -0.89137489797E+01  0.95265082212E+02  0.70171836574E+02  0.11865486698E+03  0.00000000000E+00 0.  1.
<scales pt_clust_5="13000.00000" pt_clust_6="13000.00000" pt_clust_7="13000.00000" pt_clust_8="13000.00000" pt_clust_9="203.78530" pt_clust_10="13000.00000"></scales>
<clustering>
<clus scale="   83.499">  5  6 -1 -1</clus>
<clus scale="   90.806">  7  8 -1 -1</clus>
<clus scale="   95.681">  7 10 -1 -1</clus>
<clus scale="  129.369">  1  5  2 -1</clus>
<clus scale="  203.785">  2  9  1 -1</clus>
<clus scale="  203.785">  2  5  1 -1</clus>
</clustering>
</event>
<event>
10    4  0.2759992E-005  0.1110961E+03  0.7546771E-02  0.1272682E+00
          2   -1    0    0  502    0 -0.00000000000E+00  0.00000000000E+00  0.16939857069E+03  0.16939857069E+03  0.00000000000E+00 0. -1.
         21   -1    0    0  503  502  0.00000000000E+00 -0.00000000000E+00 -0.13128816814E+03  0.13128816814E+03  0.00000000000E+00 0. -1.
         24    2    1    2    0    0  0.71638274712E+01  0.22991001233E+02  0.10557711105E+03  0.13490447473E+03  0.80453616221E+02 0.  0.
         23    2    1    2    0    0  0.11581519849E+02 -0.11663917797E+02 -0.15515230073E+02  0.92004735488E+02  0.89185034662E+02 0.  0.
        -13    1    3    3    0    0 -0.31255775485E+02 -0.10496310649E+02  0.39355476064E+02  0.51341499146E+02  0.00000000000E+00 0.  1.
         14    1    3    3    0    0  0.38419602956E+02  0.33487311882E+02  0.66221634988E+02  0.83562975587E+02  0.00000000000E+00 0. -1.
        -11    1    4    4    0    0 -0.31988160460E+01 -0.49114897612E+02 -0.10726246138E+01  0.49230642035E+02  0.00000000000E+00 0.  1.
         11    1    4    4    0    0  0.14780335895E+02  0.37450979815E+02 -0.14442605459E+02  0.42774093453E+02  0.00000000000E+00 0. -1.
         21    1    1    2  503  501 -0.16701845484E+02  0.11773847925E+02 -0.45230096296E+02  0.49632013343E+02  0.00000000000E+00 0.  1.
          1    1    1    2  501    0 -0.20435018368E+01 -0.23100931361E+02 -0.67213821346E+01  0.24145515263E+02  0.00000000000E+00 0. -1.
<scales pt_clust_5="13000.00000" pt_clust_6="13000.00000" pt_clust_7="13000.00000" pt_clust_8="13000.00000" pt_clust_9="20.43466" pt_clust_10="13000.00000"></scales>
<clustering>
<clus scale="   20.435">  2  9  1 -1</clus>
<clus scale="   80.454">  5  6 -1 -1</clus>
<clus scale="   84.370">  1  5  2 -1</clus>
<clus scale="   89.185">  7  8 -1 -1</clus>
<clus scale="   17.297">  7 10 -1 -1</clus>
<clus scale="   20.435">  2  5  1 -1</clus>
</clustering>
</event>
<event>
10    4  0.2759992E-005  0.2353669E+03  0.7546771E-02  0.1165733E+00
         21   -1    0    0  503  502  0.00000000000E+00  0.00000000000E+00  0.56556672355E+03  0.56556672355E+03  0.00000000000E+00 0. -1.
          2   -1    0    0  502    0 -0.00000000000E+00 -0.00000000000E+00 -0.52904645340E+03  0.52904645340E+03  0.00000000000E+00 0. -1.
         24    2    1    2    0    0  0.38356072730E+01 -0.20495273739E+02  0.10156417597E+03  0.13043607127E+03  0.79142395209E+02 0.  0.
         23    2    1    2    0    0  0.25125267661E+02 -0.11011359282E+03 -0.31033420158E+03  0.34325101161E+03  0.93582358922E+02 0.  0.
        -11    1    3    3    0    0  0.53549839983E+01 -0.25845198248E+02 -0.22344666597E+01  0.26488544077E+02  0.00000000000E+00 0.  1.
         12    1    3    3    0    0 -0.15193767253E+01  0.53499245092E+01  0.10379864263E+03  0.10394752719E+03  0.00000000000E+00 0. -1.
        -11    1    4    4    0    0 -0.45304728936E+01 -0.11490280422E+03 -0.22313913721E+03  0.25102640132E+03  0.00000000000E+00 0. -1.
         11    1    4    4    0    0  0.29655740554E+02  0.47892113971E+01 -0.87195064369E+02  0.92224610294E+02  0.00000000000E+00 0.  1.
         21    1    1    2  503  501  0.17950117240E+02  0.53751975474E+02  0.42030433731E+03  0.42410755421E+03  0.00000000000E+00 0. -1.
          1    1    1    2  501    0 -0.46910992173E+02  0.76856891086E+02 -0.17501404155E+03  0.19681853986E+03  0.00000000000E+00 0. -1.
<scales pt_clust_5="13000.00000" pt_clust_6="13000.00000" pt_clust_7="13000.00000" pt_clust_8="13000.00000" pt_clust_9="56.66994" pt_clust_10="13000.00000"></scales>
<clustering>
<clus scale="   56.670">  1  9  2 -1</clus>
<clus scale="   79.142">  5  6 -1 -1</clus>
<clus scale="   84.436">  2  5  1 -1</clus>
<clus scale="   93.582">  7  8 -1 -1</clus>
<clus scale="   97.778">  7 10 -1 -1</clus>
<clus scale="   56.670">  1  5  2 -1</clus>
</clustering>
</event>
<event>
10    4  0.2759992E-005  0.3072620E+03  0.7546771E-02  0.1109139E+00
         21   -1    0    0  501  502  0.00000000000E+00  0.00000000000E+00  0.12546652591E+04  0.12546652591E+04  0.00000000000E+00 0.  1.
          2   -1    0    0  503    0 -0.00000000000E+00 -0.00000000000E+00 -0.10795498825E+03  0.10795498825E+03  0.00000000000E+00 0. -1.
         24    2    1    2    0    0 -0.12721156918E+03 -0.56680792767E+02  0.82635774566E+02  0.18311263819E+03  0.85475560387E+02 0.  0.
         23    2    1    2    0    0  0.13382643467E+02  0.47015534759E+02  0.22805978243E+02  0.10439602479E+03  0.89380432380E+02 0.  0.
        -13    1    3    3    0    0 -0.12218288117E+03 -0.18977859200E+02  0.74026681397E+02  0.14411372297E+03  0.00000000000E+00 0.  1.
         14    1    3    3    0    0 -0.50286880129E+01 -0.37702933567E+02  0.86090931694E+01  0.38998915214E+02  0.00000000000E+00 0. -1.
        -11    1    4    4    0    0 -0.17721869911E+02  0.53472928634E+02  0.39217177306E+02  0.68639680693E+02  0.00000000000E+00 0.  1.
         11    1    4    4    0    0  0.31104513378E+02 -0.64573938750E+01 -0.16411199063E+02  0.35756344092E+02  0.00000000000E+00 0. -1.
         21    1    1    2  503  502  0.34155010858E+02  0.11473119046E+03  0.68164810656E+03  0.69207944053E+03  0.00000000000E+00 0.  1.
          1    1    1    2  501    0  0.79673914857E+02 -0.10506593245E+03  0.35962041152E+03  0.38303214389E+03  0.00000000000E+00 0. -1.
<scales pt_clust_5="13000.00000" pt_clust_6="13000.00000" pt_clust_7="13000.00000" pt_clust_8="13000.00000" pt_clust_9="119.70719" pt_clust_10="13000.00000"></scales>
<clustering>
<clus scale="   85.476">  5  6 -1 -1</clus>
<clus scale="   89.380">  7  8 -1 -1</clus>
<clus scale="  119.707">  1  9  2 -1</clus>
<clus scale="  106.340">  7 10 -1 -1</clus>
<clus scale="  149.697">  2  5  1 -1</clus>
<clus scale="  119.707">  1  5  2 -1</clus>
</clustering>
</event>
<event>
10    4  0.2759992E-005  0.2876879E+03  0.7546771E-02  0.1127000E+00
         21   -1    0    0  501  502  0.00000000000E+00  0.00000000000E+00  0.52353156071E+02  0.52353156071E+02  0.00000000000E+00 0.  1.
          2   -1    0    0  503    0 -0.00000000000E+00 -0.00000000000E+00 -0.12365504762E+04  0.12365504762E+04  0.00000000000E+00 0. -1.
         24    2    1    2    0    0  0.62873491942E+02 -0.36269695887E+02 -0.30478595613E+03  0.32280499545E+03  0.77717560460E+02 0.  0.
         23    2    1    2    0    0  0.25467599781E+02 -0.19517365660E+02 -0.10067286266E+03  0.13655640226E+03  0.86504910390E+02 0.  0.
        -13    1    3    3    0    0  0.48588273184E+02 -0.23050458752E+02 -0.75503967090E+02  0.92698397969E+02  0.00000000000E+00 0.  1.
         14    1    3    3    0    0  0.14285218757E+02 -0.13219237135E+02 -0.22928198904E+03  0.23010659748E+03  0.00000000000E+00 0. -1.
        -11    1    4    4    0    0 -0.20779757617E+02 -0.35257321180E+02 -0.30442888153E+02  0.51006337474E+02  0.00000000000E+00 0.  1.
         11    1    4    4    0    0  0.46247357397E+02  0.15739955519E+02 -0.70229974511E+02  0.85550064791E+02  0.00000000000E+00 0. -1.
         21    1    1    2  503  502  0.61130982308E+02 -0.41661636281E+01 -0.39355076821E+02  0.72822908408E+02  0.00000000000E+00 0.  1.
          1    1    1    2  501    0 -0.14947207403E+03  0.59953225175E+02 -0.73938342453E+03  0.75671932616E+03  0.00000000000E+00 0. -1.
<scales pt_clust_5="13000.00000" pt_clust_6="13000.00000" pt_clust_7="13000.00000" pt_clust_8="13000.00000" pt_clust_9="61.27278" pt_clust_10="13000.00000"></scales>
<clustering>
<clus scale="   61.273">  1  9  2 -1</clus>
<clus scale="   77.718">  5  6 -1 -1</clus>
<clus scale="   86.505">  7  8 -1 -1</clus>
<clus scale="  116.489">  2  5  1 -1</clus>
<clus scale="   81.545">  7 10 -1 -1</clus>
<clus scale="   61.273">  1  5  2 -1</clus>
</clustering>
</event>
<event>
10    4  0.3222917E-005  0.2116945E+03  0.7546771E-02  0.1162503E+00
          2   -1    0    0  502    0 -0.00000000000E+00  0.00000000000E+00  0.83342580527E+03  0.83342580527E+03  0.00000000000E+00 0. -1.
         21   -1    0    0  503  502  0.00000000000E+00 -0.00000000000E+00 -0.38707554971E+03  0.38707554971E+03  0.00000000000E+00 0.  1.
         24    2    1    2    0    0 -0.18465681224E+02  0.69638261414E+02  0.13412411715E+03  0.17213293628E+03  0.80311892737E+02 0.  0.
         23    2    1    2    0    0 -0.19057085014E+02 -0.23032873467E+02  0.14950124926E+03  0.17809823593E+03  0.92057983695E+02 0.  0.
        -11    1    3    3    0    0 -0.18501811897E+02  0.31025018602E+02  0.39331041308E+01  0.36336457323E+02  0.00000000000E+00 0.  1.
         12    1    3    3    0    0  0.36130672600E-01  0.38613242812E+02  0.13019101302E+03  0.13579647896E+03  0.00000000000E+00 0. -1.
        -13    1    4    4    0    0  0.41522327730E+01 -0.54662112695E+02  0.65686845453E+02  0.85556702057E+02  0.00000000000E+00 0.  1.
         13    1    4    4    0    0 -0.23209317787E+02  0.31629239228E+02  0.83814403803E+02  0.92541533871E+02  0.00000000000E+00 0. -1.
         21    1    1    2  503  501  0.59752085022E+02  0.51383595626E+02 -0.34439257646E+03  0.35329425736E+03  0.00000000000E+00 0.  1.
          1    1    1    2  501    0 -0.22229318784E+02 -0.97988983573E+02  0.50711746562E+03  0.51697592541E+03  0.00000000000E+00 0. -1.
<scales pt_clust_5="13000.00000" pt_clust_6="13000.00000" pt_clust_7="13000.00000" pt_clust_8="13000.00000" pt_clust_9="78.80727" pt_clust_10="13000.00000"></scales>
<clustering>
<clus scale="   78.807">  2  9  1 -1</clus>
<clus scale="   80.312">  5  6 -1 -1</clus>
<clus scale="   92.058">  7  8 -1 -1</clus>
<clus scale="   92.512">  7 10 -1 -1</clus>
<clus scale="  125.042">  1  5  2 -1</clus>
<clus scale="   78.807">  2  5  1 -1</clus>
</clustering>
</event>
<event>
10    4  0.2759992E-005  0.3755543E+03  0.7546771E-02  0.1088235E+00
          2   -1    0    0  503    0 -0.00000000000E+00  0.00000000000E+00  0.75824937947E+03  0.75824937947E+03  0.00000000000E+00 0. -1.
         21   -1    0    0  501  502  0.00000000000E+00 -0.00000000000E+00 -0.16569259279E+03  0.16569259279E+03  0.00000000000E+00 0.  1.
         24    2    1    2    0    0 -0.10411845476E+03  0.87864540727E+01 -0.12041109049E+02  0.13184657812E+03  0.79502688378E+02 0.  0.
         23    2    1    2    0    0  0.68991012603E+02 -0.13685076043E+02  0.67085835249E+03  0.68542204810E+03  0.12167749914E+03 0.  0.
        -13    1    3    3    0    0 -0.71847657060E+02 -0.31573360613E+02  0.12520141800E+01  0.78489046783E+02  0.00000000000E+00 0.  1.
         14    1    3    3    0    0 -0.32270797699E+02  0.40359814686E+02 -0.13293123229E+02  0.53357531341E+02  0.00000000000E+00 0. -1.
        -13    1    4    4    0    0  0.10380320333E+03 -0.18096921575E+02  0.49280611264E+03  0.50394490596E+03  0.00000000000E+00 0.  1.
         13    1    4    4    0    0 -0.34812190727E+02  0.44118455313E+01  0.17805223985E+03  0.18147714214E+03  0.00000000000E+00 0. -1.
         21    1    1    2  503  502 -0.20344693291E+02  0.72759462585E+01 -0.39532902975E+02  0.45052151521E+02  0.00000000000E+00 0.  1.
          1    1    1    2  501    0  0.55472135447E+02 -0.23773242878E+01 -0.26727553780E+02  0.61621194510E+02  0.00000000000E+00 0. -1.
<scales pt_clust_5="13000.00000" pt_clust_6="13000.00000" pt_clust_7="13000.00000" pt_clust_8="13000.00000" pt_clust_9="21.60662" pt_clust_10="13000.00000"></scales>
<clustering>
<clus scale="   21.607">  2  9  1 -1</clus>
<clus scale="   79.503">  5  6 -1 -1</clus>
<clus scale="  121.677">  7  8 -1 -1</clus>
<clus scale="   48.190">  7 10 -1 -1</clus>
<clus scale="  141.215">  1  5  2 -1</clus>
<clus scale="   21.607">  2  5  1 -1</clus>
</clustering>
</event>
<event>
10    4  0.2759992E-005  0.2770039E+03  0.7546771E-02  0.1144012E+00
          4   -1    0    0  502    0 -0.00000000000E+00  0.00000000000E+00  0.69173029828E+03  0.69173029828E+03  0.00000000000E+00 0. -1.
         21   -1    0    0  503  502  0.00000000000E+00 -0.00000000000E+00 -0.23511853754E+03  0.23511853754E+03  0.00000000000E+00 0. -1.
         24    2    1    2    0    0  0.23960193482E+02 -0.15768617640E+02  0.16526762671E+03  0.18643475649E+03  0.81374380578E+02 0.  0.
         23    2    1    2    0    0  0.84636304327E+02  0.54806355277E+02  0.34673957138E+03  0.37728336034E+03  0.10930399371E+03 0.  0.
        -13    1    3    3    0    0 -0.92791179843E+01 -0.25457421534E+02  0.12585048251E+02  0.29875839422E+02  0.00000000000E+00 0.  1.
         14    1    3    3    0    0  0.33239311467E+02  0.96888038938E+01  0.15268257846E+03  0.15655891707E+03  0.00000000000E+00 0. -1.
        -11    1    4    4    0    0  0.15491651314E+02  0.56067380203E+02  0.65206765833E+02  0.87381146099E+02  0.00000000000E+00 0. -1.
         11    1    4    4    0    0  0.69144653013E+02 -0.12610249261E+01  0.28153280554E+03  0.28990221424E+03  0.00000000000E+00 0.  1.
         21    1    1    2  503  501 -0.14320251956E+03  0.55247883382E+02 -0.15749055854E+03  0.21991490686E+03  0.00000000000E+00 0. -1.
          3    1    1    2  501    0  0.34606021753E+02 -0.94285621019E+02  0.10209512120E+03  0.14321581213E+03  0.00000000000E+00 0. -1.
<scales pt_clust_5="13000.00000" pt_clust_6="13000.00000" pt_clust_7="13000.00000" pt_clust_8="13000.00000" pt_clust_9="151.79491" pt_clust_10="13000.00000"></scales>
<clustering>
<clus scale="   81.374">  5  6 -1 -1</clus>
<clus scale="   86.282">  1  5  2 -1</clus>
<clus scale="  109.304">  7  8 -1 -1</clus>
<clus scale="  105.996">  7 10 -1 -1</clus>
<clus scale="  151.795">  2  9  1 -1</clus>
<clus scale="  151.795">  2  5  1 -1</clus>
</clustering>
</event>
<event>
10    4  0.2759992E-005  0.3244543E+03  0.7546771E-02  0.1098472E+00
         21   -1    0    0  503  502  0.00000000000E+00  0.00000000000E+00  0.64184639575E+02  0.64184639575E+02  0.00000000000E+00 0. -1.
         -1   -1    0    0    0  501 -0.00000000000E+00 -0.00000000000E+00 -0.13444916403E+04  0.13444916403E+04  0.00000000000E+00 0.  1.
         24    2    1    2    0    0  0.13693112598E+03 -0.17564781753E+02 -0.33876008112E+03  0.37441328122E+03  0.79801364495E+02 0.  0.
         23    2    1    2    0    0 -0.36986959256E+02  0.11783109957E+03 -0.38324477516E+03  0.41291272328E+03  0.91477626630E+02 0.  0.
        -13    1    3    3    0    0  0.11801451253E+03  0.89412399091E+01 -0.30658027488E+03  0.32863176335E+03  0.00000000000E+00 0.  1.
         14    1    3    3    0    0  0.18916613452E+02 -0.26506021662E+02 -0.32179806238E+02  0.45781517869E+02  0.00000000000E+00 0. -1.
        -13    1    4    4    0    0  0.10244681379E+02  0.55088149708E+02 -0.68397304548E+02  0.88418601009E+02  0.00000000000E+00 0.  1.
         13    1    4    4    0    0 -0.47231640635E+02  0.62742949858E+02 -0.31484747061E+03  0.32449412227E+03  0.00000000000E+00 0. -1.
         21    1    1    2  503  501  0.25671270812E+02  0.22951279821E+02  0.15775117466E+01  0.34471204415E+02  0.00000000000E+00 0. -1.
         -2    1    1    2    0  502 -0.12561543754E+03 -0.12321759763E+03 -0.55987965620E+03  0.58687907097E+03  0.00000000000E+00 0.  1.
<scales pt_clust_5="13000.00000" pt_clust_6="13000.00000" pt_clust_7="13000.00000" pt_clust_8="13000.00000" pt_clust_9="34.43509" pt_clust_10="13000.00000"></scales>
<clustering>
<clus scale="   34.435">  1  9  2 -1</clus>
<clus scale="   79.801">  5  6 -1 -1</clus>
<clus scale="   91.478">  7  8 -1 -1</clus>
<clus scale="  165.901">  7 10 -1 -1</clus>
<clus scale="  167.354">  2  5  1 -1</clus>
<clus scale="   34.435">  1  5  2 -1</clus>
</clustering>
</event>
<event>
10    4  0.2759992E-005  0.4580160E+03  0.7546771E-02  0.1046935E+00
         21   -1    0    0  501  502  0.00000000000E+00  0.00000000000E+00  0.84870530953E+02  0.84870530953E+02  0.00000000000E+00 0. -1.
          2   -1    0    0  503    0 -0.00000000000E+00 -0.00000000000E+00 -0.16881073715E+04  0.16881073715E+04  0.00000000000E+00 0. -1.
         24    2    1    2    0    0  0.54183040319E+02  0.21020957458E+03 -0.42093405837E+03  0.48140488457E+03  0.86263052842E+02 0.  0.
         23    2    1    2    0    0  0.15698481645E+03 -0.81389541873E+02 -0.68726802202E+03  0.71558239533E+03  0.91936610209E+02 0.  0.
        -11    1    3    3    0    0  0.57275400589E+02  0.66997230911E+02 -0.19334120863E+03  0.21248511340E+03  0.00000000000E+00 0.  1.
         12    1    3    3    0    0 -0.30923602703E+01  0.14321234367E+03 -0.22759284974E+03  0.26891977117E+03  0.00000000000E+00 0. -1.
        -11    1    4    4    0    0  0.11018920693E+03 -0.99947427457E+02 -0.49943492827E+03  0.52112032886E+03  0.00000000000E+00 0.  1.
         11    1    4    4    0    0  0.46795609518E+02  0.18557885584E+02 -0.18783309375E+03  0.19446206647E+03  0.00000000000E+00 0. -1.
         21    1    1    2  503  502 -0.20267991959E+02  0.31431572569E+02 -0.28395023010E+02  0.46957561521E+02  0.00000000000E+00 0. -1.
          1    1    1    2  501    0 -0.19089986481E+03 -0.16025160528E+03 -0.46663973711E+03  0.52903306100E+03  0.00000000000E+00 0. -1.
<scales pt_clust_5="13000.00000" pt_clust_6="13000.00000" pt_clust_7="13000.00000" pt_clust_8="13000.00000" pt_clust_9="37.39967" pt_clust_10="13000.00000"></scales>
<clustering>
<clus scale="   37.400">  1  9  2 -1</clus>
<clus scale="   86.263">  5  6 -1 -1</clus>
<clus scale="   91.937">  7  8 -1 -1</clus>
<clus scale="  243.303">  2  5  1 -1</clus>
<clus scale="  186.996">  7 10 -1 -1</clus>
<clus scale="   37.400">  1  5  2 -1</clus>
</clustering>
</event>
<event>
10    4  0.2759992E-005  0.3562212E+03  0.7546771E-02  0.1080135E+00
         21   -1    0    0  501  502  0.00000000000E+00  0.00000000000E+00  0.17625031721E+03  0.17625031721E+03  0.00000000000E+00 0.  1.
          2   -1    0    0  503    0 -0.00000000000E+00 -0.00000000000E+00 -0.71033746794E+03  0.71033746794E+03  0.00000000000E+00 0. -1.
         24    2    1    2    0    0 -0.80885298899E+02  0.15889112374E+03 -0.30887631420E+03  0.36560293401E+03  0.80449407071E+02 0.  0.
         23    2    1    2    0    0  0.61918340623E+02  0.44882306205E+02  0.69621719850E+00  0.11993591781E+03  0.92389595448E+02 0.  0.
        -11    1    3    3    0    0 -0.58546009972E+02  0.34880528209E+02 -0.87884317828E+02  0.11121123977E+03  0.00000000000E+00 0.  1.
         12    1    3    3    0    0 -0.22339288927E+02  0.12401059553E+03 -0.22099199637E+03  0.25439169423E+03  0.00000000000E+00 0. -1.
        -13    1    4    4    0    0  0.29327675613E+02 -0.23786382939E+02  0.18227472408E+02  0.41930243507E+02  0.00000000000E+00 0.  1.
         13    1    4    4    0    0  0.32590665010E+02  0.68668689144E+02 -0.17531255209E+02  0.78005674305E+02  0.00000000000E+00 0. -1.
         21    1    1    2  503  502 -0.58447642443E+02  0.39235373041E+02 -0.82507607618E+02  0.10845758028E+03  0.00000000000E+00 0. -1.
          1    1    1    2  501    0  0.77414600720E+02 -0.24300880299E+03 -0.14339944611E+03  0.29259135305E+03  0.00000000000E+00 0. -1.
<scales pt_clust_5="13000.00000" pt_clust_6="13000.00000" pt_clust_7="13000.00000" pt_clust_8="13000.00000" pt_clust_9="70.39564" pt_clust_10="13000.00000"></scales>
<clustering>
<clus scale="   70.396">  1  9  2 -1</clus>
<clus scale="   80.449">  5  6 -1 -1</clus>
<clus scale="   92.390">  7  8 -1 -1</clus>
<clus scale="  205.472">  2  5  1 -1</clus>
<clus scale="  118.943">  7 10 -1 -1</clus>
<clus scale="   70.396">  1  5  2 -1</clus>
</clustering>
</event>
<event>
10    4  0.2759992E-005  0.1934023E+03  0.7546771E-02  0.1192190E+00
          2   -1    0    0  503    0 -0.00000000000E+00  0.00000000000E+00  0.34917482385E+03  0.34917482385E+03  0.00000000000E+00 0. -1.
         21   -1    0    0  501  502  0.00000000000E+00 -0.00000000000E+00 -0.44249843743E+03  0.44249843743E+03  0.00000000000E+00 0. -1.
         24    2    1    2    0    0 -0.22635859337E+01 -0.20252007379E+02  0.22407038023E+03  0.23925228094E+03  0.81356321288E+02 0.  0.
         23    2    1    2    0    0  0.77532810535E+02 -0.39537622202E+02 -0.10167709176E+02  0.12855990279E+03  0.94072876089E+02 0.  0.
        -13    1    3    3    0    0 -0.30963899935E+02  0.90245300200E+01  0.43886754048E+02  0.54463312626E+02  0.00000000000E+00 0.  1.
         14    1    3    3    0    0  0.28700314001E+02 -0.29276537399E+02  0.18018362619E+03  0.18478896832E+03  0.00000000000E+00 0. -1.
        -13    1    4    4    0    0 -0.20864094619E+02 -0.11877514523E+02  0.67951796050E+01  0.24951157516E+02  0.00000000000E+00 0.  1.
         13    1    4    4    0    0  0.98396905154E+02 -0.27660107679E+02 -0.16962888781E+02  0.10360874527E+03  0.00000000000E+00 0. -1.
         21    1    1    2  503  502 -0.65331389641E+02  0.10398048425E+03 -0.34416301121E+03  0.36541525674E+03  0.00000000000E+00 0. -1.
          1    1    1    2  501    0 -0.99378349603E+01 -0.44190854670E+02  0.36936726576E+02  0.58445820811E+02  0.00000000000E+00 0. -1.
<scales pt_clust_5="13000.00000" pt_clust_6="13000.00000" pt_clust_7="13000.00000" pt_clust_8="13000.00000" pt_clust_9="121.36489" pt_clust_10="13000.00000"></scales>
<clustering>
<clus scale="   81.356">  5  6 -1 -1</clus>
<clus scale="   83.870">  1  5  2 -1</clus>
<clus scale="   94.073">  7  8 -1 -1</clus>
<clus scale="   53.523">  7 10 -1 -1</clus>
<clus scale="  121.365">  2  9  1 -1</clus>
<clus scale="  121.365">  2  5  1 -1</clus>
</clustering>
</event>
<event>
10    4  0.2759992E-005  0.6344237E+03  0.7546771E-02  0.1050091E+00
         21   -1    0    0  503  502  0.00000000000E+00  0.00000000000E+00  0.40183258834E+03  0.40183258834E+03  0.00000000000E+00 0. -1.
          2   -1    0    0  502    0 -0.00000000000E+00 -0.00000000000E+00 -0.62983388433E+03  0.62983388433E+03  0.00000000000E+00 0. -1.
         24    2    1    2    0    0  0.12296573330E+02  0.92531830508E+01 -0.20257476310E+03  0.21916396562E+03  0.82216069431E+02 0.  0.
         23    2    1    2    0    0  0.30836785514E+03  0.11525218551E+03 -0.44746346739E+02  0.34482544674E+03  0.92350164203E+02 0.  0.
        -11    1    3    3    0    0  0.10014556121E+02  0.41146621105E+02 -0.16233197796E+03  0.16776473656E+03  0.00000000000E+00 0.  1.
         12    1    3    3    0    0  0.22820172087E+01 -0.31893438054E+02 -0.40242785133E+02  0.51399229067E+02  0.00000000000E+00 0. -1.
        -13    1    4    4    0    0  0.10265458540E+03  0.79851589095E+02  0.53365733822E+01  0.13016420092E+03  0.00000000000E+00 0.  1.
         13    1    4    4    0    0  0.20571326973E+03  0.35400596415E+02 -0.50082920121E+02  0.21466124582E+03  0.00000000000E+00 0. -1.
         21    1    1    2  503  501 -0.14494998962E+03  0.97412330913E+02 -0.38348301818E+02  0.17880227615E+03  0.00000000000E+00 0.  1.
          1    1    1    2  501    0 -0.17571443884E+03 -0.22191769947E+03  0.57668115663E+02  0.28887478416E+03  0.00000000000E+00 0. -1.
<scales pt_clust_5="13000.00000" pt_clust_6="13000.00000" pt_clust_7="13000.00000" pt_clust_8="13000.00000" pt_clust_9="173.37521" pt_clust_10="13000.00000"></scales>
<clustering>
<clus scale="   82.216">  5  6 -1 -1</clus>
<clus scale="   83.644">  2  5  1 -1</clus>
<clus scale="   92.350">  7  8 -1 -1</clus>
<clus scale="  173.375">  1  9  2 -1</clus>
<clus scale="  297.500">  7 10 -1 -1</clus>
<clus scale="  173.375">  1  5  2 -1</clus>
</clustering>
</event>
<event>
10    4  0.2759992E-005  0.2675972E+03  0.7546771E-02  0.1120966E+00
          2   -1    0    0  503    0 -0.00000000000E+00  0.00000000000E+00  0.67392687184E+03  0.67392687184E+03  0.00000000000E+00 0. -1.
         21   -1    0    0  501  502  0.00000000000E+00 -0.00000000000E+00 -0.13626656738E+03  0.13626656738E+03  0.00000000000E+00 0.  1.
         24    2    1    2    0    0  0.32645380504E+02  0.15228010528E+03  0.22832021495E+02  0.17668688391E+03  0.80262085757E+02 0.  0.
         23    2    1    2    0    0  0.18793179385E+02  0.18504415213E+02  0.22893838727E+03  0.24784940465E+03  0.91219215338E+02 0.  0.
        -13    1    3    3    0    0  0.24229779125E+02  0.13093081299E+03 -0.13370896890E+02  0.13382354378E+03  0.00000000000E+00 0.  1.
         14    1    3    3    0    0  0.84156013784E+01  0.21349292288E+02  0.36202918385E+02  0.42863340132E+02  0.00000000000E+00 0. -1.
        -11    1    4    4    0    0  0.42249472999E+02  0.24559757953E+02  0.21373028971E+03  0.21924606364E+03  0.00000000000E+00 0. -1.
         11    1    4    4    0    0 -0.23456293615E+02 -0.60553427401E+01  0.15208097553E+02  0.28603341012E+02  0.00000000000E+00 0.  1.
         21    1    1    2  503  502  0.17620810660E+02 -0.16316352496E+02 -0.23132531009E+02  0.33344119691E+02  0.00000000000E+00 0.  1.
          1    1    1    2  501    0 -0.69059370548E+02 -0.15446816799E+03  0.30902242670E+03  0.35231303097E+03  0.00000000000E+00 0. -1.
<scales pt_clust_5="13000.00000" pt_clust_6="13000.00000" pt_clust_7="13000.00000" pt_clust_8="13000.00000" pt_clust_9="24.01492" pt_clust_10="13000.00000"></scales>
<clustering>
<clus scale="   24.015">  2  9  1 -1</clus>
<clus scale="   80.262">  5  6 -1 -1</clus>
<clus scale="   91.219">  7  8 -1 -1</clus>
<clus scale="  168.137">  1  5  2 -1</clus>
<clus scale="   85.026">  7 10 -1 -1</clus>
<clus scale="   24.015">  2  5  1 -1</clus>
</clustering>
</event>
<event>
10    4  0.2759992E-005  0.2310885E+03  0.7546771E-02  0.1144764E+00
         -3   -1    0    0    0  501 -0.00000000000E+00  0.00000000000E+00  0.13033386909E+03  0.13033386909E+03  0.00000000000E+00 0.  1.
         21   -1    0    0  503  502  0.00000000000E+00 -0.00000000000E+00 -0.55499243432E+03  0.55499243432E+03  0.00000000000E+00 0.  1.
         24    2    1    2    0    0 -0.13717663857E+03  0.20497720851E+02 -0.26991769229E+02  0.16311303280E+03  0.81484471736E+02 0.  0.
         23    2    1    2    0    0 -0.27522008632E+02 -0.22905140875E+01 -0.85475733705E+02  0.12851301467E+03  0.91906400608E+02 0.  0.
        -11    1    3    3    0    0 -0.14495188208E+03  0.12263288280E+02 -0.14404988949E+02  0.14618118916E+03  0.00000000000E+00 0.  1.
         12    1    3    3    0    0  0.77752435063E+01  0.82344325709E+01 -0.12586780279E+02  0.16931843643E+02  0.00000000000E+00 0. -1.
        -13    1    4    4    0    0  0.16003360787E+02 -0.35799890361E+02 -0.23578855305E+02  0.45756989891E+02  0.00000000000E+00 0.  1.
         13    1    4    4    0    0 -0.43525369419E+02  0.33509376273E+02 -0.61896878400E+02  0.82756024777E+02  0.00000000000E+00 0. -1.
         21    1    1    2  503  501  0.56589396110E+02 -0.81185094384E+02 -0.21002066834E+03  0.23216817274E+03  0.00000000000E+00 0.  1.
         -4    1    1    2    0  502  0.10810925110E+03  0.62977887621E+02 -0.10217039395E+03  0.16153208320E+03  0.00000000000E+00 0.  1.
<scales pt_clust_5="13000.00000" pt_clust_6="13000.00000" pt_clust_7="13000.00000" pt_clust_8="13000.00000" pt_clust_9="98.96150" pt_clust_10="13000.00000"></scales>
<clustering>
<clus scale="   81.484">  5  6 -1 -1</clus>
<clus scale="   91.906">  7  8 -1 -1</clus>
<clus scale="   98.962">  2  9  1 -1</clus>
<clus scale="  134.070">  7 10 -1 -1</clus>
<clus scale="  145.958">  1  5  2 -1</clus>
<clus scale="   98.962">  2  5  1 -1</clus>
</clustering>
</event>
<event>
10    4  0.2759992E-005  0.1758862E+03  0.7546771E-02  0.1201108E+00
         21   -1    0    0  501  502  0.00000000000E+00  0.00000000000E+00  0.25504806564E+03  0.25504806564E+03  0.00000000000E+00 0. -1.
          2   -1    0    0  503    0 -0.00000000000E+00 -0.00000000000E+00 -0.48646330330E+03  0.48646330330E+03  0.00000000000E+00 0. -1.
         24    2    1    2    0    0 -0.63198659794E+01  0.45402079054E+02 -0.95978238073E+02  0.13278889361E+03  0.79497035120E+02 0.  0.
         23    2    1    2    0    0  0.19401233174E+02  0.14433200036E+02 -0.13829710909E+03  0.16771025297E+03  0.91738287853E+02 0.  0.
        -13    1    3    3    0    0  0.43747176384E+01  0.48089138671E+02 -0.10688049646E+03  0.11728232577E+03  0.00000000000E+00 0.  1.
         14    1    3    3    0    0 -0.10694583618E+02 -0.26870596174E+01  0.10902258391E+02  0.15506567840E+02  0.00000000000E+00 0. -1.
        -13    1    4    4    0    0  0.43563406134E+02  0.21585703109E+02 -0.13347579786E+03  0.14205457243E+03  0.00000000000E+00 0. -1.
         13    1    4    4    0    0 -0.24162172960E+02 -0.71525030723E+01 -0.48213112270E+01  0.25655680546E+02  0.00000000000E+00 0.  1.
         21    1    1    2  503  502  0.24559529444E+01 -0.98862120129E+02  0.20869218227E+03  0.23093760509E+03  0.00000000000E+00 0. -1.
          1    1    1    2  501    0 -0.15537320139E+02  0.39026841039E+02 -0.20583207277E+03  0.21007461727E+03  0.00000000000E+00 0. -1.
<scales pt_clust_5="13000.00000" pt_clust_6="13000.00000" pt_clust_7="13000.00000" pt_clust_8="13000.00000" pt_clust_9="97.53125" pt_clust_10="13000.00000"></scales>
<clustering>
<clus scale="   79.497">  5  6 -1 -1</clus>
<clus scale="   91.738">  7  8 -1 -1</clus>
<clus scale="   42.006">  7 10 -1 -1</clus>
<clus scale="   91.766">  2  5  1 -1</clus>
<clus scale="   97.531">  1  9  2 -1</clus>
<clus scale="   97.531">  1  5  2 -1</clus>
</clustering>
</event>
<event>
10    4  0.2759992E-005  0.2203777E+03  0.7546771E-02  0.1150466E+00
         21   -1    0    0  501  502  0.00000000000E+00  0.00000000000E+00  0.23144698756E+03  0.23144698756E+03  0.00000000000E+00 0. -1.
          4   -1    0    0  503    0 -0.00000000000E+00 -0.00000000000E+00 -0.22254015514E+03  0.22254015514E+03  0.00000000000E+00 0. -1.
         24    2    1    2    0    0 -0.10061797267E+01  0.12818997927E+03  0.12112159216E+02  0.15062916028E+03  0.78158533383E+02 0.  0.
         23    2    1    2    0    0  0.87207975298E+01 -0.27450959308E+02 -0.78012972845E+02  0.12370863983E+03  0.91587096038E+02 0.  0.
        -13    1    3    3    0    0  0.93564099152E+01  0.59844906209E+02  0.43637363575E+02  0.74653698538E+02  0.00000000000E+00 0.  1.
         14    1    3    3    0    0 -0.10362589642E+02  0.68345073065E+02 -0.31525204359E+02  0.75975461737E+02  0.00000000000E+00 0. -1.
        -11    1    4    4    0    0 -0.15332441637E+01 -0.49322225509E+02 -0.84414051602E+01  0.50062861364E+02  0.00000000000E+00 0. -1.
         11    1    4    4    0    0  0.10254041694E+02  0.21871266200E+02 -0.69571567685E+02  0.73645778470E+02  0.00000000000E+00 0.  1.
         21    1    1    2  503  502  0.45269761229E+02 -0.11365106870E+02  0.57921425829E+02  0.74386883964E+02  0.00000000000E+00 0. -1.
          3    1    1    2  501    0 -0.52984379032E+02 -0.89373913095E+02  0.16886220224E+02  0.10526245863E+03  0.00000000000E+00 0. -1.
<scales pt_clust_5="13000.00000" pt_clust_6="13000.00000" pt_clust_7="13000.00000" pt_clust_8="13000.00000" pt_clust_9="46.67459" pt_clust_10="13000.00000"></scales>
<clustering>
<clus scale="   46.675">  1  9  2 -1</clus>
<clus scale="   78.159">  5  6 -1 -1</clus>
<clus scale="   91.587">  7  8 -1 -1</clus>
<clus scale="  100.352">  7 10 -1 -1</clus>
<clus scale="  146.939">  2  5  1 -1</clus>
<clus scale="   46.675">  1  5  2 -1</clus>
</clustering>
</event>
<event>
10    4  0.2759992E-005  0.4445061E+03  0.7546771E-02  0.1048632E+00
          2   -1    0    0  502    0 -0.00000000000E+00  0.00000000000E+00  0.10955445320E+04  0.10955445320E+04  0.00000000000E+00 0. -1.
         21   -1    0    0  503  502  0.00000000000E+00 -0.00000000000E+00 -0.30732142391E+03  0.30732142391E+03  0.00000000000E+00 0.  1.
         24    2    1    2    0    0 -0.14002044748E+03  0.17892559940E+03  0.15829247658E+03  0.28890150740E+03  0.82386145713E+02 0.  0.
         23    2    1    2    0    0 -0.88734917651E+02  0.11410495924E+02  0.17387903441E+03  0.21577697597E+03  0.91223350758E+02 0.  0.
        -11    1    3    3    0    0 -0.14902783955E+02  0.65393756222E+02  0.18388276338E+02  0.69545417025E+02  0.00000000000E+00 0.  1.
         12    1    3    3    0    0 -0.12511766352E+03  0.11353184317E+03  0.13990420024E+03  0.21935609037E+03  0.00000000000E+00 0. -1.
        -13    1    4    4    0    0 -0.54231726192E+02  0.50808996423E+02  0.87908658950E+02  0.11511110529E+03  0.00000000000E+00 0. -1.
         13    1    4    4    0    0 -0.34503191459E+02 -0.39398500499E+02  0.85970375464E+02  0.10066587068E+03  0.00000000000E+00 0.  1.
         21    1    1    2  503  501 -0.22974298231E+01  0.28088452004E+02 -0.18260199264E+03  0.18476397656E+03  0.00000000000E+00 0.  1.
          1    1    1    2  501    0  0.23105279495E+03 -0.21842454732E+03  0.63865358973E+03  0.71342349597E+03  0.00000000000E+00 0. -1.
<scales pt_clust_5="13000.00000" pt_clust_6="13000.00000" pt_clust_7="13000.00000" pt_clust_8="13000.00000" pt_clust_9="28.18225" pt_clust_10="13000.00000"></scales>
<clustering>
<clus scale="   28.182">  2  9  1 -1</clus>
<clus scale="   82.386">  5  6 -1 -1</clus>
<clus scale="   91.223">  7  8 -1 -1</clus>
<clus scale="  253.531">  1  5  2 -1</clus>
<clus scale="  136.684">  7 10 -1 -1</clus>
<clus scale="   28.182">  2  5  1 -1</clus>
</clustering>
</event>
<event>
10    4  0.2759992E-005  0.8605701E+03  0.7546771E-02  0.1018227E+00
         21   -1    0    0  503  502  0.00000000000E+00  0.00000000000E+00  0.73797698571E+02  0.73797698571E+02  0.00000000000E+00 0. -1.
          2   -1    0    0  502    0 -0.00000000000E+00 -0.00000000000E+00 -0.35107338860E+04  0.35107338860E+04  0.00000000000E+00 0. -1.
         24    2    1    2    0    0 -0.41136868752E+01 -0.33135155974E+02 -0.26828682313E+03  0.28188999929E+03  0.79807839544E+02 0.  0.
         23    2    1    2    0    0  0.12590828260E+03 -0.32361637177E+03 -0.68493845917E+03  0.77319050869E+03  0.90013433312E+02 0.  0.
        -11    1    3    3    0    0 -0.37240203922E+00 -0.59079353472E+02 -0.16259108370E+03  0.17299239633E+03  0.00000000000E+00 0.  1.
         12    1    3    3    0    0 -0.37412848360E+01  0.25944197498E+02 -0.10569573943E+03  0.10889760295E+03  0.00000000000E+00 0. -1.
        -11    1    4    4    0    0  0.90409458692E+02 -0.28589845458E+03 -0.51942402207E+03  0.59976087839E+03  0.00000000000E+00 0. -1.
         11    1    4    4    0    0  0.35498823911E+02 -0.37717917193E+02 -0.16551443710E+03  0.17342963030E+03  0.00000000000E+00 0.  1.
         21    1    1    2  503  501  0.23859178616E+02  0.20512538728E+02 -0.17178779093E+02  0.35848781017E+02  0.00000000000E+00 0. -1.
          1    1    1    2  501    0 -0.14565377434E+03  0.33623898902E+03 -0.24665321260E+04  0.24936022956E+04  0.00000000000E+00 0. -1.
<scales pt_clust_5="13000.00000" pt_clust_6="13000.00000" pt_clust_7="13000.00000" pt_clust_8="13000.00000" pt_clust_9="31.46466" pt_clust_10="13000.00000"></scales>
<clustering>
<clus scale="   31.465">  1  9  2 -1</clus>
<clus scale="   79.808">  5  6 -1 -1</clus>
<clus scale="   85.621">  2  5  1 -1</clus>
<clus scale="   90.013">  7  8 -1 -1</clus>
<clus scale="  346.856">  7 10 -1 -1</clus>
<clus scale="   31.465">  1  5  2 -1</clus>
</clustering>
</event>
<event>
10    4  0.2759992E-005  0.6548278E+03  0.7546771E-02  0.1024843E+00
          2   -1    0    0  502    0 -0.00000000000E+00  0.00000000000E+00  0.13102029179E+04  0.13102029179E+04  0.00000000000E+00 0. -1.
         21   -1    0    0  503  502  0.00000000000E+00 -0.00000000000E+00 -0.17586910600E+03  0.17586910600E+03  0.00000000000E+00 0. -1.
         24    2    1    2    0    0  0.98324266900E+02 -0.91350591439E+02 -0.15272282525E+00  0.15774910991E+03  0.82898530355E+02 0.  0.
         23    2    1    2    0    0 -0.12325994346E+03 -0.26827708543E+03  0.58840988355E+03  0.66419454072E+03  0.88105553941E+02 0.  0.
        -11    1    3    3    0    0  0.20672168028E+02  0.13464497064E+02 -0.10672592147E+02  0.26880019258E+02  0.00000000000E+00 0.  1.
         12    1    3    3    0    0  0.77652098872E+02 -0.10481508850E+03  0.10519869322E+02  0.13086909065E+03  0.00000000000E+00 0. -1.
        -13    1    4    4    0    0 -0.17297321520E+02 -0.11245532692E+03  0.28697263492E+03  0.30870486079E+03  0.00000000000E+00 0.  1.
         13    1    4    4    0    0 -0.10596262194E+03 -0.15582175851E+03  0.30143724863E+03  0.35548967993E+03  0.00000000000E+00 0. -1.
         21    1    1    2  503  501  0.17349513272E+02  0.14817176069E+02  0.64676138785E+01  0.23714644141E+02  0.00000000000E+00 0.  1.
          1    1    1    2  501    0  0.75861632879E+01  0.34481050080E+03  0.53960903732E+03  0.64041372915E+03  0.00000000000E+00 0. -1.
<scales pt_clust_5="13000.00000" pt_clust_6="13000.00000" pt_clust_7="13000.00000" pt_clust_8="13000.00000" pt_clust_9="22.81566" pt_clust_10="13000.00000"></scales>
<clustering>
<clus scale="   22.816">  2  9  1 -1</clus>
<clus scale="   82.899">  5  6 -1 -1</clus>
<clus scale="   88.106">  7  8 -1 -1</clus>
<clus scale="  159.165">  1  5  2 -1</clus>
<clus scale="  314.188">  7 10 -1 -1</clus>
<clus scale="   22.816">  2  5  1 -1</clus>
</clustering>
</event>
<event>
10    4  0.2759992E-005  0.2209395E+03  0.7546771E-02  0.1154212E+00
         21   -1    0    0  503  502  0.00000000000E+00  0.00000000000E+00  0.22426868820E+03  0.22426868820E+03  0.00000000000E+00 0. -1.
          2   -1    0    0  502    0 -0.00000000000E+00 -0.00000000000E+00 -0.55335600803E+03  0.55335600803E+03  0.00000000000E+00 0. -1.
         24    2    1    2    0    0 -0.95695737230E+02  0.89975305933E+02 -0.94497604254E+01  0.15399551317E+03  0.79825373806E+02 0.  0.
         23    2    1    2    0    0 -0.82452719080E+00  0.53736737782E+01 -0.96427075516E+02  0.13175026785E+03  0.89612476649E+02 0.  0.
        -11    1    3    3    0    0 -0.30267179079E+02  0.21119462646E+02 -0.39801395268E+02  0.54279691388E+02  0.00000000000E+00 0.  1.
         12    1    3    3    0    0 -0.65428558151E+02  0.68855843287E+02  0.30351634843E+02  0.99715821784E+02  0.00000000000E+00 0. -1.
        -13    1    4    4    0    0 -0.37495388154E+02 -0.20521764061E+02 -0.32791059214E+02  0.53873003418E+02  0.00000000000E+00 0. -1.
         13    1    4    4    0    0  0.36670860963E+02  0.25895437839E+02 -0.63636016302E+02  0.77877264432E+02  0.00000000000E+00 0.  1.
         21    1    1    2  503  501  0.18919754906E+02 -0.28075897848E+02  0.12465450774E+03  0.12917027315E+03  0.00000000000E+00 0. -1.
          1    1    1    2  501    0  0.77600509515E+02 -0.67273081863E+02 -0.34786499163E+03  0.36270864206E+03  0.00000000000E+00 0. -1.
<scales pt_clust_5="13000.00000" pt_clust_6="13000.00000" pt_clust_7="13000.00000" pt_clust_8="13000.00000" pt_clust_9="33.85577" pt_clust_10="13000.00000"></scales>
<clustering>
<clus scale="   33.856">  1  9  2 -1</clus>
<clus scale="   79.825">  5  6 -1 -1</clus>
<clus scale="   89.612">  7  8 -1 -1</clus>
<clus scale="  105.195">  7 10 -1 -1</clus>
<clus scale="  133.485">  2  5  1 -1</clus>
<clus scale="   33.856">  1  5  2 -1</clus>
</clustering>
</event>
<event>
10    4  0.2759992E-005  0.1368688E+03  0.7546771E-02  0.1243220E+00
         21   -1    0    0  501  502  0.00000000000E+00  0.00000000000E+00  0.36758974132E+03  0.36758974132E+03  0.00000000000E+00 0.  1.
          2   -1    0    0  503    0 -0.00000000000E+00 -0.00000000000E+00 -0.54478489310E+02  0.54478489310E+02  0.00000000000E+00 0. -1.
         24    2    1    2    0    0  0.18104944598E+02  0.14145854774E+01  0.22473600052E+03  0.23929065534E+03  0.80149595950E+02 0.  0.
         23    2    1    2    0    0 -0.97799914071E+01 -0.31313978987E+02  0.82671695594E+02  0.12678507246E+03  0.90352818625E+02 0.  0.
        -13    1    3    3    0    0  0.46852994841E+02  0.13123873055E+02  0.16423894549E+03  0.17129468872E+03  0.00000000000E+00 0.  1.
         14    1    3    3    0    0 -0.28748050242E+02 -0.11709287578E+02  0.60497055029E+02  0.67995966612E+02  0.00000000000E+00 0. -1.
        -11    1    4    4    0    0  0.21596444839E+02 -0.53141777379E+02  0.56092890728E+02  0.80230089885E+02  0.00000000000E+00 0. -1.
         11    1    4    4    0    0 -0.31376436247E+02  0.21827798392E+02  0.26578804866E+02  0.46554982572E+02  0.00000000000E+00 0.  1.
         21    1    1    2  503  502 -0.19969405181E+02  0.96635018112E+01  0.18926345565E+02  0.29161052227E+02  0.00000000000E+00 0. -1.
          1    1    1    2  501    0  0.11644451990E+02  0.20235891699E+02 -0.13222789672E+02  0.26831450607E+02  0.00000000000E+00 0. -1.
<scales pt_clust_5="13000.00000" pt_clust_6="13000.00000" pt_clust_7="13000.00000" pt_clust_8="13000.00000" pt_clust_9="22.18470" pt_clust_10="13000.00000"></scales>
<clustering>
<clus scale="   22.185">  1  9  2 -1</clus>
<clus scale="   80.150">  5  6 -1 -1</clus>
<clus scale="   80.674">  2  5  1 -1</clus>
<clus scale="   90.353">  7  8 -1 -1</clus>
<clus scale="   27.545">  7 10 -1 -1</clus>
<clus scale="   22.185">  1  5  2 -1</clus>
</clustering>
</event>
<event>
10    4  0.2759992E-005  0.3224139E+03  0.7546771E-02  0.1123526E+00
          2   -1    0    0  503    0 -0.00000000000E+00  0.00000000000E+00  0.10723081964E+04  0.10723081964E+04  0.00000000000E+00 0. -1.
         21   -1    0    0  501  502  0.00000000000E+00 -0.00000000000E+00 -0.71587570564E+02  0.71587570564E+02  0.00000000000E+00 0. -1.
         24    2    1    2    0    0 -0.10746372727E+02  0.37578097230E+02  0.37379144754E+03  0.38462100472E+03  0.81765965441E+02 0.  0.
         23    2    1    2    0    0 -0.70339255484E+02 -0.73208924605E+02  0.52474484658E+03  0.54277654994E+03  0.94562527747E+02 0.  0.
        -13    1    3    3    0    0  0.21805079686E+02 -0.16475389472E+02  0.12501144050E+03  0.12796390199E+03  0.00000000000E+00 0.  1.
         14    1    3    3    0    0 -0.32551452413E+02  0.54053486702E+02  0.24878000704E+03  0.25665710273E+03  0.00000000000E+00 0. -1.
        -11    1    4    4    0    0 -0.40104268534E+02 -0.75791918723E+02  0.48628313009E+03  0.49378542902E+03  0.00000000000E+00 0. -1.
         11    1    4    4    0    0 -0.30234986949E+02  0.25829941178E+01  0.38461716486E+02  0.48991120925E+02  0.00000000000E+00 0.  1.
         21    1    1    2  503  502 -0.36124920915E+02 -0.21740965990E+02 -0.11198063587E+02  0.43624260927E+02  0.00000000000E+00 0. -1.
          1    1    1    2  501    0  0.11721054913E+03  0.57371793366E+02  0.11338239534E+03  0.17287395140E+03  0.00000000000E+00 0. -1.
<scales pt_clust_5="13000.00000" pt_clust_6="13000.00000" pt_clust_7="13000.00000" pt_clust_8="13000.00000" pt_clust_9="42.16254" pt_clust_10="13000.00000"></scales>
<clustering>
<clus scale="   42.163">  2  9  1 -1</clus>
<clus scale="   81.766">  5  6 -1 -1</clus>
<clus scale="   90.194">  1  5  2 -1</clus>
<clus scale="   94.563">  7  8 -1 -1</clus>
<clus scale="  102.532">  7 10 -1 -1</clus>
<clus scale="   42.163">  2  5  1 -1</clus>
</clustering>
</event>
<event>
10    4  0.2759992E-005  0.7820966E+03  0.7546771E-02  0.1012621E+00
         21   -1    0    0  501  502  0.00000000000E+00  0.00000000000E+00  0.26089771372E+03  0.26089771372E+03  0.00000000000E+00 0. -1.
          2   -1    0    0  503    0 -0.00000000000E+00 -0.00000000000E+00 -0.15246234366E+04  0.15246234366E+04  0.00000000000E+00 0. -1.
         24    2    1    2    0    0  0.92268196032E+02  0.10957236249E+02  0.11211207589E+03  0.16645844975E+03  0.80658644336E+02 0.  0.
         23    2    1    2    0    0 -0.15446010556E+02  0.26556096498E+03 -0.96372854470E+02  0.29691810904E+03  0.90063483356E+02 0.  0.
        -11    1    3    3    0    0  0.28984703560E+02  0.18973189095E+02 -0.30847205325E+01  0.34779454361E+02  0.00000000000E+00 0.  1.
         12    1    3    3    0    0  0.63283492473E+02 -0.80159528460E+01  0.11519679642E+03  0.13167899539E+03  0.00000000000E+00 0. -1.
        -13    1    4    4    0    0  0.47957102135E+01  0.33456243060E+02 -0.48419260921E+02  0.59048656752E+02  0.00000000000E+00 0.  1.
         13    1    4    4    0    0 -0.20241720769E+02  0.23210472192E+03 -0.47953593549E+02  0.23786945229E+03  0.00000000000E+00 0. -1.
         21    1    1    2  503  502  0.24677338738E+02 -0.63799271350E+02 -0.11288889514E+03  0.13199704814E+03  0.00000000000E+00 0. -1.
          1    1    1    2  501    0 -0.10149952421E+03 -0.21271892988E+03 -0.11665760491E+04  0.11901475433E+04  0.00000000000E+00 0. -1.
<scales pt_clust_5="13000.00000" pt_clust_6="13000.00000" pt_clust_7="13000.00000" pt_clust_8="13000.00000" pt_clust_9="68.40558" pt_clust_10="13000.00000"></scales>
<clustering>
<clus scale="   68.406">  1  9  2 -1</clus>
<clus scale="   80.659">  5  6 -1 -1</clus>
<clus scale="   90.063">  7  8 -1 -1</clus>
<clus scale="  135.370">  2  5  1 -1</clus>
<clus scale="  236.663">  7 10 -1 -1</clus>
<clus scale="   68.406">  1  5  2 -1</clus>
</clustering>
</event>
<event>
10    4  0.2759992E-005  0.5043157E+03  0.7546771E-02  0.1047279E+00
         21   -1    0    0  501  502  0.00000000000E+00  0.00000000000E+00  0.52298489183E+03  0.52298489183E+03  0.00000000000E+00 0. -1.
          2   -1    0    0  503    0 -0.00000000000E+00 -0.00000000000E+00 -0.26744053107E+03  0.26744053107E+03  0.00000000000E+00 0. -1.
         24    2    1    2    0    0  0.12757978230E+03  0.78352718146E+02  0.97152638423E+01  0.17351420109E+03  0.87161013855E+02 0.  0.
         23    2    1    2    0    0 -0.26592436665E+02  0.15431841302E+02 -0.12886544255E+03  0.16125334965E+03  0.91929544089E+02 0.  0.
        -13    1    3    3    0    0  0.58935774440E+02 -0.11557109871E+02  0.11023237701E+01  0.60068356188E+02  0.00000000000E+00 0.  1.
         14    1    3    3    0    0  0.68644007858E+02  0.89909828016E+02  0.86129400722E+01  0.11344584490E+03  0.00000000000E+00 0. -1.
        -11    1    4    4    0    0 -0.38020211832E+01 -0.36929185145E+02 -0.70027690583E+02  0.79259684134E+02  0.00000000000E+00 0.  1.
         11    1    4    4    0    0 -0.22790415482E+02  0.52361026447E+02 -0.58837751964E+02  0.81993665515E+02  0.00000000000E+00 0. -1.
         21    1    1    2  503  502  0.27586208454E+02  0.39630383172E+02  0.14194146328E+02  0.50329315088E+02  0.00000000000E+00 0.  1.
          1    1    1    2  501    0 -0.12857355409E+03 -0.13341494262E+03  0.36050039314E+03  0.40532855707E+03  0.00000000000E+00 0. -1.
<scales pt_clust_5="13000.00000" pt_clust_6="13000.00000" pt_clust_7="13000.00000" pt_clust_8="13000.00000" pt_clust_9="48.28632" pt_clust_10="13000.00000"></scales>
<clustering>
<clus scale="   48.286">  1  9  2 -1</clus>
<clus scale="   87.161">  5  6 -1 -1</clus>
<clus scale="   91.930">  7  8 -1 -1</clus>
<clus scale="  148.202">  7 10 -1 -1</clus>
<clus scale="  180.465">  2  5  1 -1</clus>
<clus scale="   48.286">  1  5  2 -1</clus>
</clustering>
</event>
<event>
10    4  0.2759992E-005  0.7748785E+03  0.7546771E-02  0.9748631E-01
          2   -1    0    0  503    0 -0.00000000000E+00  0.00000000000E+00  0.12708042178E+04  0.12708042178E+04  0.00000000000E+00 0. -1.
         21   -1    0    0  501  502  0.00000000000E+00 -0.00000000000E+00 -0.43600355820E+03  0.43600355820E+03  0.00000000000E+00 0. -1.
         24    2    1    2    0    0  0.57239799214E+01  0.39491033548E+03  0.26383959536E+03  0.48215113613E+03  0.82894203523E+02 0.  0.
         23    2    1    2    0    0 -0.69711083591E+02 -0.80485776249E+02 -0.12919090608E+03  0.19032958085E+03  0.90539846353E+02 0.  0.
        -11    1    3    3    0    0 -0.35117195431E+02  0.24873940553E+03  0.17691819014E+03  0.30725324292E+03  0.00000000000E+00 0.  1.
         12    1    3    3    0    0  0.40841175352E+02  0.14617092994E+03  0.86921405218E+02  0.17489789321E+03  0.00000000000E+00 0. -1.
        -11    1    4    4    0    0 -0.16906286053E+02 -0.33199165327E+02  0.59492996933E+01  0.37727990317E+02  0.00000000000E+00 0.  1.
         11    1    4    4    0    0 -0.52804797538E+02 -0.47286610922E+02 -0.13514020578E+03  0.15260159053E+03  0.00000000000E+00 0. -1.
         21    1    1    2  503  502  0.42947067416E+02  0.20776808446E+03  0.88680738924E+02  0.22994847461E+03  0.00000000000E+00 0. -1.
          1    1    1    2  501    0  0.21040036254E+02 -0.52219264369E+03  0.61147123144E+03  0.80437858445E+03  0.00000000000E+00 0. -1.
<scales pt_clust_5="13000.00000" pt_clust_6="13000.00000" pt_clust_7="13000.00000" pt_clust_8="13000.00000" pt_clust_9="212.16038" pt_clust_10="13000.00000"></scales>
<clustering>
<clus scale="   82.894">  5  6 -1 -1</clus>
<clus scale="   90.540">  7  8 -1 -1</clus>
<clus scale="  212.160">  2  9  1 -1</clus>
<clus scale="  464.810">  1  5  2 -1</clus>
<clus scale="   95.906">  7 10 -1 -1</clus>
<clus scale="  212.160">  2  5  1 -1</clus>
</clustering>
</event>
<event>
10    4  0.2759992E-005  0.5407679E+03  0.7546771E-02  0.1052111E+00
         21   -1    0    0  501  502  0.00000000000E+00  0.00000000000E+00  0.65491519351E+03  0.65491519351E+03  0.00000000000E+00 0.  1.
         -3   -1    0    0    0  501 -0.00000000000E+00 -0.00000000000E+00 -0.19687311560E+03  0.19687311560E+03  0.00000000000E+00 0.  1.
         24    2    1    2    0    0  0.69015663215E+02  0.63035983574E+02  0.11736083349E+02  0.12657820285E+03  0.84543531923E+02 0.  0.
         23    2    1    2    0    0  0.11121396625E+03 -0.25306697749E+03  0.19913881641E+03  0.35465673480E+03  0.98558053700E+02 0.  0.
        -13    1    3    3    0    0  0.64362345467E+02  0.82033694720E+02  0.18469733746E+02  0.10589225490E+03  0.00000000000E+00 0.  1.
         14    1    3    3    0    0  0.46533177479E+01 -0.18997711146E+02 -0.67336503971E+01  0.20685947948E+02  0.00000000000E+00 0. -1.
        -13    1    4    4    0    0  0.83206127992E+02 -0.10142697766E+03  0.13316389023E+03  0.18693130608E+03  0.00000000000E+00 0.  1.
         13    1    4    4    0    0  0.28007838261E+02 -0.15163999983E+03  0.65974926182E+02  0.16772542871E+03  0.00000000000E+00 0. -1.
         21    1    1    2  503  502  0.38740448356E+01  0.21593748424E+02  0.42484995368E+02  0.47814987460E+02  0.00000000000E+00 0. -1.
         -4    1    1    2    0  503 -0.18410367430E+03  0.16843724549E+03  0.20468218278E+03  0.32273838400E+03  0.00000000000E+00 0.  1.
<scales pt_clust_5="13000.00000" pt_clust_6="13000.00000" pt_clust_7="13000.00000" pt_clust_8="13000.00000" pt_clust_9="21.93851" pt_clust_10="13000.00000"></scales>
<clustering>
<clus scale="   21.939">  1  9  2 -1</clus>
<clus scale="   84.544">  5  6 -1 -1</clus>
<clus scale="   98.558">  7  8 -1 -1</clus>
<clus scale="  127.514">  2  5  1 -1</clus>
<clus scale="  256.593">  7 10 -1 -1</clus>
<clus scale="   21.939">  1  5  2 -1</clus>
</clustering>
</event>
<event>
10    4  0.2759992E-005  0.3919897E+03  0.7546771E-02  0.1101318E+00
         21   -1    0    0  501  502  0.00000000000E+00  0.00000000000E+00  0.28235292278E+03  0.28235292278E+03  0.00000000000E+00 0. -1.
          2   -1    0    0  503    0 -0.00000000000E+00 -0.00000000000E+00 -0.43194198078E+03  0.43194198078E+03  0.00000000000E+00 0. -1.
         24    2    1    2    0    0 -0.24577634366E+02 -0.13838248499E+02 -0.66771634099E+01  0.85937382474E+02  0.80901742644E+02 0.  0.
         23    2    1    2    0    0 -0.19062541738E+02  0.64291008581E+01 -0.36698863536E+03  0.37878675604E+03  0.91618962193E+02 0.  0.
        -13    1    3    3    0    0  0.26357446859E+02 -0.21193038381E+02 -0.66782989101E+01  0.34474041786E+02  0.00000000000E+00 0.  1.
         14    1    3    3    0    0 -0.50935081224E+02  0.73547898828E+01  0.11355002055E-02  0.51463340688E+02  0.00000000000E+00 0. -1.
        -13    1    4    4    0    0  0.50205210580E+01 -0.39991691191E+02 -0.19028752266E+03  0.19450933725E+03  0.00000000000E+00 0.  1.
         13    1    4    4    0    0 -0.24083062796E+02  0.46420792049E+02 -0.17670111269E+03  0.18427741879E+03  0.00000000000E+00 0. -1.
         21    1    1    2  503  502 -0.19296563406E+02 -0.14673676416E+02  0.14082278765E+03  0.14289412745E+03  0.00000000000E+00 0. -1.
          1    1    1    2  501    0  0.62936739509E+02  0.22082824056E+02  0.83253953116E+02  0.10667663759E+03  0.00000000000E+00 0. -1.
<scales pt_clust_5="13000.00000" pt_clust_6="13000.00000" pt_clust_7="13000.00000" pt_clust_8="13000.00000" pt_clust_9="24.24199" pt_clust_10="13000.00000"></scales>
<clustering>
<clus scale="   24.242">  1  9  2 -1</clus>
<clus scale="   80.902">  5  6 -1 -1</clus>
<clus scale="   88.145">  2  5  1 -1</clus>
<clus scale="   91.619">  7  8 -1 -1</clus>
<clus scale="   50.628">  7 10 -1 -1</clus>
<clus scale="   24.242">  1  5  2 -1</clus>
</clustering>
</event>
<event>
10    4  0.2759992E-005  0.3820394E+03  0.7546771E-02  0.1057746E+00
         21   -1    0    0  503  502  0.00000000000E+00  0.00000000000E+00  0.25235455262E+03  0.25235455262E+03  0.00000000000E+00 0. -1.
          2   -1    0    0  502    0 -0.00000000000E+00 -0.00000000000E+00 -0.14509042698E+04  0.14509042698E+04  0.00000000000E+00 0. -1.
         24    2    1    2    0    0  0.80834743222E+02 -0.29157392463E+03 -0.66117556482E+03  0.73165156222E+03  0.81309727255E+02 0.  0.
         23    2    1    2    0    0 -0.17643236796E+03  0.16102364564E+03 -0.46336453147E+03  0.52933259009E+03  0.91811257419E+02 0.  0.
        -11    1    3    3    0    0 -0.10598013902E+02 -0.63465233853E+02 -0.18373245435E+03  0.19467349225E+03  0.00000000000E+00 0.  1.
         12    1    3    3    0    0  0.91432757124E+02 -0.22810869078E+03 -0.47744311048E+03  0.53697806997E+03  0.00000000000E+00 0. -1.
        -11    1    4    4    0    0 -0.12340684157E+03  0.60748253326E+02 -0.20166569202E+03  0.24410786584E+03  0.00000000000E+00 0.  1.
         11    1    4    4    0    0 -0.53025526390E+02  0.10027539232E+03 -0.26169883945E+03  0.28522472425E+03  0.00000000000E+00 0. -1.
         21    1    1    2  503  501  0.36614975076E+02  0.23856900304E+02  0.16676466148E+03  0.17239565079E+03  0.00000000000E+00 0. -1.
          1    1    1    2  501    0  0.58982649664E+02  0.10669337868E+03 -0.24077428240E+03  0.26987901935E+03  0.00000000000E+00 0. -1.
<scales pt_clust_5="13000.00000" pt_clust_6="13000.00000" pt_clust_7="13000.00000" pt_clust_8="13000.00000" pt_clust_9="43.70135" pt_clust_10="13000.00000"></scales>
<clustering>
<clus scale="   43.701">  1  9  2 -1</clus>
<clus scale="   81.310">  5  6 -1 -1</clus>
<clus scale="   91.811">  7  8 -1 -1</clus>
<clus scale="  128.747">  7 10 -1 -1</clus>
<clus scale="  308.390">  2  5  1 -1</clus>
<clus scale="   43.701">  1  5  2 -1</clus>
</clustering>
</event>
<event>
10    4  0.2759992E-005  0.1571179E+03  0.7546771E-02  0.1220108E+00
         21   -1    0    0  501  502  0.00000000000E+00  0.00000000000E+00  0.32759884236E+03  0.32759884236E+03  0.00000000000E+00 0.  1.
          2   -1    0    0  503    0 -0.00000000000E+00 -0.00000000000E+00 -0.16408813437E+03  0.16408813437E+03  0.00000000000E+00 0. -1.
         24    2    1    2    0    0  0.25059822927E+02 -0.49240355666E-01 -0.21499605196E+02  0.86347612876E+02  0.79785212139E+02 0.  0.
         23    2    1    2    0    0 -0.90712833565E+01  0.16148159699E+01  0.12571554803E+02  0.93577687605E+02  0.92270492656E+02 0.  0.
        -13    1    3    3    0    0 -0.24092927424E+02  0.92119501288E+01  0.95169323291E+01  0.27493657050E+02  0.00000000000E+00 0.  1.
         14    1    3    3    0    0  0.49152750352E+02 -0.92611904845E+01 -0.31016537525E+02  0.58853955826E+02  0.00000000000E+00 0. -1.
        -11    1    4    4    0    0 -0.26513965399E+02  0.32678207845E+02  0.32121926202E+02  0.52940284964E+02  0.00000000000E+00 0.  1.
         11    1    4    4    0    0  0.17442682042E+02 -0.31063391875E+02 -0.19550371398E+02  0.40637402641E+02  0.00000000000E+00 0. -1.
         21    1    1    2  503  502  0.14302535343E+02  0.28000245648E+02  0.23452279597E+03  0.23662104324E+03  0.00000000000E+00 0.  1.
          1    1    1    2  501    0 -0.30291074914E+02 -0.29565821262E+02 -0.62084037585E+02  0.75140633011E+02  0.00000000000E+00 0. -1.
<scales pt_clust_5="13000.00000" pt_clust_6="13000.00000" pt_clust_7="13000.00000" pt_clust_8="13000.00000" pt_clust_9="31.44163" pt_clust_10="13000.00000"></scales>
<clustering>
<clus scale="   31.442">  1  9  2 -1</clus>
<clus scale="   79.785">  5  6 -1 -1</clus>
<clus scale="   85.837">  2  5  1 -1</clus>
<clus scale="   92.270">  7  8 -1 -1</clus>
<clus scale="   24.733">  7 10 -1 -1</clus>
<clus scale="   31.442">  1  5  2 -1</clus>
</clustering>
</event>
<event>
10    4  0.2759992E-005  0.1847249E+03  0.7546771E-02  0.1200491E+00
          2   -1    0    0  502    0 -0.00000000000E+00  0.00000000000E+00  0.17851399052E+04  0.17851399052E+04  0.00000000000E+00 0. -1.
         21   -1    0    0  503  502  0.00000000000E+00 -0.00000000000E+00 -0.23102245816E+02  0.23102245816E+02  0.00000000000E+00 0. -1.
         24    2    1    2    0    0 -0.90141020199E+01 -0.45127051337E+01  0.93528765454E+03  0.93874866591E+03  0.79902706202E+02 0.  0.
         23    2    1    2    0    0 -0.35595659540E+02 -0.57201749310E+02  0.44703624462E+03  0.46113641631E+03  0.90919191250E+02 0.  0.
        -13    1    3    3    0    0  0.71198013239E+00  0.27791665639E+02  0.13933750904E+03  0.14208386615E+03  0.00000000000E+00 0.  1.
         14    1    3    3    0    0 -0.97260821523E+01 -0.32304370773E+02  0.79595014550E+03  0.79666479976E+03  0.00000000000E+00 0. -1.
        -11    1    4    4    0    0 -0.14773640246E+02 -0.78987023594E+02  0.27577071996E+03  0.28723979587E+03  0.00000000000E+00 0. -1.
         11    1    4    4    0    0 -0.20822019294E+02  0.21785274284E+02  0.17126552466E+03  0.17389662044E+03  0.00000000000E+00 0.  1.
         21    1    1    2  503  501  0.22088421159E+02 -0.45844290823E+01  0.32547852166E+00  0.22561499853E+02  0.00000000000E+00 0. -1.
          1    1    1    2  501    0  0.22521340401E+02  0.66298883526E+02  0.37938828166E+03  0.38579556891E+03  0.00000000000E+00 0. -1.
<scales pt_clust_5="13000.00000" pt_clust_6="13000.00000" pt_clust_7="13000.00000" pt_clust_8="13000.00000" pt_clust_9="22.55915" pt_clust_10="13000.00000"></scales>
<clustering>
<clus scale="   22.559">  2  9  1 -1</clus>
<clus scale="   79.903">  5  6 -1 -1</clus>
<clus scale="   80.282">  1  5  2 -1</clus>
<clus scale="   90.919">  7  8 -1 -1</clus>
<clus scale="   67.712">  7 10 -1 -1</clus>
<clus scale="   22.559">  2  5  1 -1</clus>
</clustering>
</event>
<event>
10    4  0.6019626E-005  0.2677251E+03  0.7546771E-02  0.1131763E+00
          2   -1    0    0  503    0 -0.00000000000E+00  0.00000000000E+00  0.23566350141E+04  0.23566350141E+04  0.00000000000E+00 0. -1.
         21   -1    0    0  501  502  0.00000000000E+00 -0.00000000000E+00 -0.31462023221E+03  0.31462023221E+03  0.00000000000E+00 0. -1.
         24    2    1    2    0    0  0.61935194454E+02  0.76209128821E+02  0.13509939070E+04  0.13568325055E+04  0.78524591951E+02 0.  0.
         23    2    1    2    0    0  0.57011424638E+01  0.39680468487E+02  0.41529604080E+03  0.42846562059E+03  0.97493301920E+02 0.  0.
        -11    1    3    3    0    0 -0.11243571281E+02  0.27249668362E+02  0.16799750129E+03  0.17056413093E+03  0.00000000000E+00 0.  1.
         12    1    3    3    0    0  0.73178765736E+02  0.48959460459E+02  0.11829964057E+04  0.11862683745E+04  0.00000000000E+00 0. -1.
        -13    1    4    4    0    0  0.28607902813E+02 -0.23194817143E+02  0.18567300048E+03  0.18929045077E+03  0.00000000000E+00 0.  1.
         13    1    4    4    0    0 -0.22906760349E+02  0.62875285630E+02  0.22962304032E+03  0.23917516982E+03  0.00000000000E+00 0. -1.
         21    1    1    2  503  502 -0.25798902387E+02  0.54845821385E+02 -0.28859556437E+03  0.29489158561E+03  0.00000000000E+00 0. -1.
          1    1    1    2  501    0 -0.41837434531E+02 -0.17073541869E+03  0.56432039846E+03  0.59106553464E+03  0.00000000000E+00 0. -1.
<scales pt_clust_5="13000.00000" pt_clust_6="13000.00000" pt_clust_7="13000.00000" pt_clust_8="13000.00000" pt_clust_9="60.61062" pt_clust_10="13000.00000"></scales>
<clustering>
<clus scale="   60.611">  2  9  1 -1</clus>
<clus scale="   78.525">  5  6 -1 -1</clus>
<clus scale="   97.493">  7  8 -1 -1</clus>
<clus scale="  128.564">  1  5  2 -1</clus>
<clus scale="  104.278">  7 10 -1 -1</clus>
<clus scale="   60.611">  2  5  1 -1</clus>
</clustering>
</event>
<event>
10    4  0.2759992E-005  0.2035158E+03  0.7546771E-02  0.1154128E+00
         -1   -1    0    0    0  501 -0.00000000000E+00  0.00000000000E+00  0.60458802238E+03  0.60458802238E+03  0.00000000000E+00 0.  1.
         21   -1    0    0  501  502  0.00000000000E+00 -0.00000000000E+00 -0.22987380619E+03  0.22987380619E+03  0.00000000000E+00 0. -1.
         24    2    1    2    0    0  0.99882618114E+02 -0.10688700634E+03  0.46414157556E+03  0.49316351949E+03  0.79884199074E+02 0.  0.
         23    2    1    2    0    0 -0.64143430909E+02  0.12214197443E+03  0.31043268846E+02  0.16267004027E+03  0.80404078337E+02 0.  0.
        -13    1    3    3    0    0  0.46594903690E+02 -0.84067835902E+02  0.37271208436E+03  0.38490620145E+03  0.00000000000E+00 0.  1.
         14    1    3    3    0    0  0.53287714424E+02 -0.22819170438E+02  0.91429491201E+02  0.10825731804E+03  0.00000000000E+00 0. -1.
        -11    1    4    4    0    0  0.18475157905E+02  0.32131735848E+02  0.21824946173E+01  0.37128738074E+02  0.00000000000E+00 0.  1.
         11    1    4    4    0    0 -0.82618588814E+02  0.90010238586E+02  0.28860774229E+02  0.12554130220E+03  0.00000000000E+00 0. -1.
         21    1    1    2  503  502  0.29774879388E+02 -0.33018564723E+02 -0.97173765306E+02  0.10686210611E+03  0.00000000000E+00 0. -1.
         -2    1    1    2    0  503 -0.65514066593E+02  0.17763596628E+02 -0.23296862918E+02  0.71766162699E+02  0.00000000000E+00 0.  1.
<scales pt_clust_5="13000.00000" pt_clust_6="13000.00000" pt_clust_7="13000.00000" pt_clust_8="13000.00000" pt_clust_9="44.46087" pt_clust_10="13000.00000"></scales>
<clustering>
<clus scale="   44.461">  2  9  1 -1</clus>
<clus scale="   79.884">  5  6 -1 -1</clus>
<clus scale="   80.404">  7  8 -1 -1</clus>
<clus scale="   54.721">  7 10 -1 -1</clus>
<clus scale="  171.127">  1  5  2 -1</clus>
<clus scale="   44.461">  2  5  1 -1</clus>
</clustering>
</event>
<event>
10    4  0.2759992E-005  0.5960023E+03  0.7546771E-02  0.1035010E+00
         21   -1    0    0  503  502  0.00000000000E+00  0.00000000000E+00  0.42484000337E+03  0.42484000337E+03  0.00000000000E+00 0.  1.
          2   -1    0    0  502    0 -0.00000000000E+00 -0.00000000000E+00 -0.41911481747E+03  0.41911481747E+03  0.00000000000E+00 0. -1.
         24    2    1    2    0    0 -0.11049825108E+02  0.11677423970E+03  0.12321870514E+03  0.18837902553E+03  0.80904179575E+02 0.  0.
         23    2    1    2    0    0  0.14817386523E+03 -0.51402744840E+01  0.18183950612E+03  0.25196711453E+03  0.91868950473E+02 0.  0.
        -11    1    3    3    0    0 -0.26943224920E+02  0.49231171193E+02  0.10095727494E+03  0.11550764888E+03  0.00000000000E+00 0.  1.
         12    1    3    3    0    0  0.15893399812E+02  0.67543068506E+02  0.22261430194E+02  0.72871376651E+02  0.00000000000E+00 0. -1.
        -13    1    4    4    0    0  0.12755525791E+03 -0.31338767146E+02  0.10483737054E+03  0.16805753898E+03  0.00000000000E+00 0.  1.
         13    1    4    4    0    0  0.20618607322E+02  0.26198492662E+02  0.77002135581E+02  0.83909575554E+02  0.00000000000E+00 0. -1.
         21    1    1    2  503  501 -0.12048356459E+01  0.42191056627E+02 -0.19412789604E+01  0.42252875077E+02  0.00000000000E+00 0.  1.
          1    1    1    2  501    0 -0.13591920447E+03 -0.15382502184E+03 -0.29739174640E+03  0.36135580570E+03  0.00000000000E+00 0. -1.
<scales pt_clust_5="13000.00000" pt_clust_6="13000.00000" pt_clust_7="13000.00000" pt_clust_8="13000.00000" pt_clust_9="42.20828" pt_clust_10="13000.00000"></scales>
<clustering>
<clus scale="   42.208">  1  9  2 -1</clus>
<clus scale="   80.904">  5  6 -1 -1</clus>
<clus scale="   91.869">  7  8 -1 -1</clus>
<clus scale="  156.114">  2  5  1 -1</clus>
<clus scale="  150.091">  7 10 -1 -1</clus>
<clus scale="   42.208">  1  5  2 -1</clus>
</clustering>
</event>
<event>
10    4  0.2759992E-005  0.3527342E+03  0.7546771E-02  0.1077018E+00
          2   -1    0    0  502    0 -0.00000000000E+00  0.00000000000E+00  0.29598002445E+03  0.29598002445E+03  0.00000000000E+00 0. -1.
         21   -1    0    0  503  502  0.00000000000E+00 -0.00000000000E+00 -0.57547251238E+03  0.57547251238E+03  0.00000000000E+00 0. -1.
         24    2    1    2    0    0 -0.22332837101E+03 -0.83783602906E+02 -0.19750602650E+03  0.31963851229E+03  0.79151087278E+02 0.  0.
         23    2    1    2    0    0  0.27732503368E+02 -0.67799353412E+02  0.77701637453E+02  0.14109534569E+03  0.92219889644E+02 0.  0.
        -11    1    3    3    0    0 -0.13366288836E+03 -0.10781845041E+02 -0.88038283010E+02  0.16041432350E+03  0.00000000000E+00 0.  1.
         12    1    3    3    0    0 -0.89665482651E+02 -0.73001757865E+02 -0.10946774349E+03  0.15922418879E+03  0.00000000000E+00 0. -1.
        -11    1    4    4    0    0  0.55133523749E+02 -0.70904656175E+02  0.64115192299E+02  0.11035367503E+03  0.00000000000E+00 0.  1.
         11    1    4    4    0    0 -0.27401020381E+02  0.31053027632E+01  0.13586445154E+02  0.30741670662E+02  0.00000000000E+00 0. -1.
         21    1    1    2  503  501  0.34615938710E+02  0.32931083882E+01 -0.18695029629E+03  0.19015656985E+03  0.00000000000E+00 0. -1.
          1    1    1    2  501    0  0.16097992894E+03  0.14828984793E+03  0.27262197409E+02  0.22056210900E+03  0.00000000000E+00 0. -1.
<scales pt_clust_5="13000.00000" pt_clust_6="13000.00000" pt_clust_7="13000.00000" pt_clust_8="13000.00000" pt_clust_9="34.77223" pt_clust_10="13000.00000"></scales>
<clustering>
<clus scale="   34.772">  2  9  1 -1</clus>
<clus scale="   79.151">  5  6 -1 -1</clus>
<clus scale="   92.220">  7  8 -1 -1</clus>
<clus scale="  225.849">  7 10 -1 -1</clus>
<clus scale="  230.215">  1  5  2 -1</clus>
<clus scale="   34.772">  2  5  1 -1</clus>
</clustering>
</event>
<event>
10    4  0.2759992E-005  0.2829336E+03  0.7546771E-02  0.1130637E+00
         21   -1    0    0  503  502  0.00000000000E+00  0.00000000000E+00  0.81145680130E+03  0.81145680130E+03  0.00000000000E+00 0.  1.
          2   -1    0    0  502    0 -0.00000000000E+00 -0.00000000000E+00 -0.70069323852E+03  0.70069323852E+03  0.00000000000E+00 0. -1.
         24    2    1    2    0    0 -0.54117407980E+02 -0.10397402441E+03 -0.20532301405E+03  0.25198866850E+03  0.87186336985E+02 0.  0.
         23    2    1    2    0    0 -0.34695958640E+02  0.11820451097E+03 -0.27167992745E+03  0.31207305117E+03  0.91670553195E+02 0.  0.
        -13    1    3    3    0    0 -0.24275723019E+02  0.97683734703E+01 -0.21971059282E+02  0.34168103463E+02  0.00000000000E+00 0.  1.
         14    1    3    3    0    0 -0.29841684961E+02 -0.11374239788E+03 -0.18335195477E+03  0.21782056504E+03  0.00000000000E+00 0. -1.
        -13    1    4    4    0    0  0.21183671954E+02  0.50587728935E+02 -0.16547446816E+03  0.17432632013E+03  0.00000000000E+00 0.  1.
         13    1    4    4    0    0 -0.55879630594E+02  0.67616782034E+02 -0.10620545929E+03  0.13774673104E+03  0.00000000000E+00 0. -1.
         21    1    1    2  503  501  0.80277946051E+02  0.10488141412E+03  0.74164203508E+03  0.75331106977E+03  0.00000000000E+00 0.  1.
          1    1    1    2  501    0  0.85354205688E+01 -0.11911190068E+03 -0.15387553079E+03  0.19477725037E+03  0.00000000000E+00 0. -1.
<scales pt_clust_5="13000.00000" pt_clust_6="13000.00000" pt_clust_7="13000.00000" pt_clust_8="13000.00000" pt_clust_9="132.07823" pt_clust_10="13000.00000"></scales>
<clustering>
<clus scale="   87.186">  5  6 -1 -1</clus>
<clus scale="   91.671">  7  8 -1 -1</clus>
<clus scale="  119.417">  7 10 -1 -1</clus>
<clus scale="  132.078">  1  9  2 -1</clus>
<clus scale="  111.975">  2  5  1 -1</clus>
<clus scale="  132.078">  1  5  2 -1</clus>
</clustering>
</event>
<event>
10    4  0.2759992E-005  0.2151645E+03  0.7546771E-02  0.1159541E+00
          4   -1    0    0  503    0 -0.00000000000E+00  0.00000000000E+00  0.44971868403E+03  0.44971868403E+03  0.00000000000E+00 0. -1.
         21   -1    0    0  501  502  0.00000000000E+00 -0.00000000000E+00 -0.13715158269E+03  0.13715158269E+03  0.00000000000E+00 0.  1.
         24    2    1    2    0    0 -0.57862261603E+02 -0.73561948073E+02  0.14225390631E+03  0.18709139272E+03  0.77508798511E+02 0.  0.
         23    2    1    2    0    0 -0.15820965419E+02  0.62906749669E+01  0.14462285542E+03  0.17378233924E+03  0.94840158069E+02 0.  0.
        -13    1    3    3    0    0 -0.34701526868E+02 -0.86988218981E+02  0.99464562057E+02  0.13661751467E+03  0.00000000000E+00 0.  1.
         14    1    3    3    0    0 -0.23160734735E+02  0.13426270909E+02  0.42789344249E+02  0.50473878048E+02  0.00000000000E+00 0. -1.
        -13    1    4    4    0    0  0.36530077943E+02 -0.15718723516E+01  0.92615032887E+02  0.99571389937E+02  0.00000000000E+00 0. -1.
         13    1    4    4    0    0 -0.52351043362E+02  0.78625473184E+01  0.52007822530E+02  0.74210949299E+02  0.00000000000E+00 0.  1.
         21    1    1    2  503  502  0.12273867478E+02 -0.37057026932E+02 -0.64252415322E+02  0.75181406894E+02  0.00000000000E+00 0.  1.
          3    1    1    2  501    0  0.61409359544E+02  0.10432830004E+03  0.89942754941E+02  0.15081512787E+03  0.00000000000E+00 0. -1.
<scales pt_clust_5="13000.00000" pt_clust_6="13000.00000" pt_clust_7="13000.00000" pt_clust_8="13000.00000" pt_clust_9="39.03679" pt_clust_10="13000.00000"></scales>
<clustering>
<clus scale="   39.037">  2  9  1 -1</clus>
<clus scale="   77.509">  5  6 -1 -1</clus>
<clus scale="   94.840">  7  8 -1 -1</clus>
<clus scale="  110.256">  7 10 -1 -1</clus>
<clus scale="  127.576">  1  5  2 -1</clus>
<clus scale="   39.037">  2  5  1 -1</clus>
</clustering>
</event>
<event>
10    4  0.2759992E-005  0.4101384E+03  0.7546771E-02  0.1041793E+00
         21   -1    0    0  503  502  0.00000000000E+00  0.00000000000E+00  0.12393661069E+03  0.12393661069E+03  0.00000000000E+00 0. -1.
          2   -1    0    0  502    0 -0.00000000000E+00 -0.00000000000E+00 -0.33568679825E+04  0.33568679825E+04  0.00000000000E+00 0. -1.
         24    2    1    2    0    0  0.85158936157E+02 -0.32679647815E+03 -0.13393112479E+04  0.13836043186E+04  0.80983388220E+02 0.  0.
         23    2    1    2    0    0 -0.13466867678E+03  0.22655407823E+03 -0.96511032547E+03  0.10046680831E+04  0.91965286373E+02 0.  0.
        -13    1    3    3    0    0  0.58776534256E+02 -0.10697242430E+03 -0.57833152584E+03  0.59107117534E+03  0.00000000000E+00 0.  1.
         14    1    3    3    0    0  0.26382401901E+02 -0.21982405385E+03 -0.76097972207E+03  0.79253314327E+03  0.00000000000E+00 0. -1.
        -13    1    4    4    0    0 -0.13938369439E+03  0.16391506647E+03 -0.70648725235E+03  0.73852569421E+03  0.00000000000E+00 0. -1.
         13    1    4    4    0    0  0.47150176088E+01  0.62639011759E+02 -0.25862307313E+03  0.26614238884E+03  0.00000000000E+00 0.  1.
         21    1    1    2  503  501  0.13434140926E+03 -0.70861287447E+02 -0.76499784942E+01  0.15207714645E+03  0.00000000000E+00 0. -1.
          1    1    1    2  501    0 -0.84831668637E+02  0.17110368736E+03 -0.92085981992E+03  0.94045504506E+03  0.00000000000E+00 0. -1.
<scales pt_clust_5="13000.00000" pt_clust_6="13000.00000" pt_clust_7="13000.00000" pt_clust_8="13000.00000" pt_clust_9="151.88462" pt_clust_10="13000.00000"></scales>
<clustering>
<clus scale="   80.983">  5  6 -1 -1</clus>
<clus scale="   91.965">  7  8 -1 -1</clus>
<clus scale="  151.885">  1  9  2 -1</clus>
<clus scale="  168.493">  7 10 -1 -1</clus>
<clus scale="  393.018">  2  5  1 -1</clus>
<clus scale="  151.885">  1  5  2 -1</clus>
</clustering>
</event>
<event>
10    4  0.2759992E-005  0.3785433E+03  0.7546771E-02  0.1095328E+00
          2   -1    0    0  502    0 -0.00000000000E+00  0.00000000000E+00  0.37081229788E+03  0.37081229788E+03  0.00000000000E+00 0. -1.
         21   -1    0    0  503  502  0.00000000000E+00 -0.00000000000E+00 -0.18701314917E+03  0.18701314917E+03  0.00000000000E+00 0. -1.
         24    2    1    2    0    0  0.42843258866E+02  0.42040783805E+02  0.12583985767E+02  0.11075557427E+03  0.92225095292E+02 0.  0.
         23    2    1    2    0    0  0.51134123685E+01  0.83979864488E+02 -0.58574449809E+02  0.14726546254E+03  0.10572315575E+03 0.  0.
        -13    1    3    3    0    0 -0.25567741167E+02  0.24036934299E+02 -0.10014082573E+02  0.36493361707E+02  0.00000000000E+00 0.  1.
         14    1    3    3    0    0  0.68411000033E+02  0.18003849506E+02  0.22598068340E+02  0.74262212567E+02  0.00000000000E+00 0. -1.
        -11    1    4    4    0    0 -0.40810019532E+01  0.41890907102E+02  0.28008365154E+02  0.50556613745E+02  0.00000000000E+00 0.  1.
         11    1    4    4    0    0  0.91944143217E+01  0.42088957386E+02 -0.86582814963E+02  0.96708848796E+02  0.00000000000E+00 0. -1.
         21    1    1    2  503  501  0.28613415775E+02  0.97288601052E+01  0.13228259060E+02  0.32990379189E+02  0.00000000000E+00 0. -1.
          1    1    1    2  501    0 -0.76570087010E+02 -0.13574950840E+03  0.21656135369E+03  0.26681403105E+03  0.00000000000E+00 0. -1.
<scales pt_clust_5="13000.00000" pt_clust_6="13000.00000" pt_clust_7="13000.00000" pt_clust_8="13000.00000" pt_clust_9="30.22216" pt_clust_10="13000.00000"></scales>
<clustering>
<clus scale="   30.222">  2  9  1 -1</clus>
<clus scale="   92.225">  5  6 -1 -1</clus>
<clus scale="  105.723">  7  8 -1 -1</clus>
<clus scale="  114.388">  1  5  2 -1</clus>
<clus scale="  104.379">  7 10 -1 -1</clus>
<clus scale="   30.222">  2  5  1 -1</clus>
</clustering>
</event>
<event>
10    4  0.2759992E-005  0.7847711E+03  0.7546771E-02  0.9880086E-01
         21   -1    0    0  503  502  0.00000000000E+00  0.00000000000E+00  0.28007310629E+03  0.28007310629E+03  0.00000000000E+00 0. -1.
          2   -1    0    0  502    0 -0.00000000000E+00 -0.00000000000E+00 -0.13917680525E+04  0.13917680525E+04  0.00000000000E+00 0. -1.
         24    2    1    2    0    0 -0.19113934291E+03 -0.13130027920E+03 -0.77576008869E+02  0.25761928366E+03  0.81090359702E+02 0.  0.
         23    2    1    2    0    0 -0.17254877688E+03  0.10599888233E+03 -0.13669300100E+02  0.22293872536E+03  0.92227881054E+02 0.  0.
        -13    1    3    3    0    0 -0.90952810104E+02 -0.50821177489E+02  0.59401147167E+01  0.10435751391E+03  0.00000000000E+00 0.  1.
         14    1    3    3    0    0 -0.10018653280E+03 -0.80479101712E+02 -0.83516123586E+02  0.15326176975E+03  0.00000000000E+00 0. -1.
        -11    1    4    4    0    0 -0.14660466782E+03  0.44864591560E+02 -0.25674537738E+02  0.15545077063E+03  0.00000000000E+00 0.  1.
         11    1    4    4    0    0 -0.25944109059E+02  0.61134290772E+02  0.12005237638E+02  0.67487954731E+02  0.00000000000E+00 0. -1.
         21    1    1    2  503  501 -0.89237276315E+02 -0.10843708146E+03 -0.19534256344E+03  0.24058389225E+03  0.00000000000E+00 0. -1.
          1    1    1    2  501    0  0.45292539610E+03  0.13373847833E+03 -0.82510707380E+03  0.95069925752E+03  0.00000000000E+00 0. -1.
<scales pt_clust_5="13000.00000" pt_clust_6="13000.00000" pt_clust_7="13000.00000" pt_clust_8="13000.00000" pt_clust_9="140.43472" pt_clust_10="13000.00000"></scales>
<clustering>
<clus scale="   81.090">  5  6 -1 -1</clus>
<clus scale="   92.228">  7  8 -1 -1</clus>
<clus scale="  140.435">  1  9  2 -1</clus>
<clus scale="  290.940">  2  5  1 -1</clus>
<clus scale="  262.277">  7 10 -1 -1</clus>
<clus scale="  140.435">  1  5  2 -1</clus>
</clustering>
</event>
<event>
10    4  0.2759992E-005  0.7409417E+03  0.7546771E-02  0.1031430E+00
         -3   -1    0    0    0  501 -0.00000000000E+00  0.00000000000E+00  0.28674185073E+03  0.28674185073E+03  0.00000000000E+00 0.  1.
         21   -1    0    0  503  502  0.00000000000E+00 -0.00000000000E+00 -0.11129096856E+04  0.11129096856E+04  0.00000000000E+00 0. -1.
         24    2    1    2    0    0 -0.20622725690E+02 -0.33339735736E+02 -0.36374882499E+03  0.37478863426E+03  0.81341735282E+02 0.  0.
         23    2    1    2    0    0 -0.36320643046E+03  0.16440922641E+03 -0.28056430433E+03  0.49581141494E+03  0.90351123196E+02 0.  0.
        -13    1    3    3    0    0  0.20915311540E+02  0.14132008929E+02 -0.71941930049E+02  0.76241755176E+02  0.00000000000E+00 0.  1.
         14    1    3    3    0    0 -0.41538037230E+02 -0.47471744665E+02 -0.29180689494E+03  0.29854687909E+03  0.00000000000E+00 0. -1.
        -11    1    4    4    0    0 -0.22259223177E+02  0.36637107312E+02 -0.45000475550E+02  0.62151375274E+02  0.00000000000E+00 0.  1.
         11    1    4    4    0    0 -0.34094720728E+03  0.12777211910E+03 -0.23556382878E+03  0.43366003966E+03  0.00000000000E+00 0. -1.
         21    1    1    2  503  501  0.11751574794E+03 -0.30539688779E+02 -0.21044802681E+03  0.24296295106E+03  0.00000000000E+00 0. -1.
         -4    1    1    2    0  502  0.26631340821E+03 -0.10052980190E+03  0.28593321219E+02  0.28608853609E+03  0.00000000000E+00 0.  1.
<scales pt_clust_5="13000.00000" pt_clust_6="13000.00000" pt_clust_7="13000.00000" pt_clust_8="13000.00000" pt_clust_9="120.76952" pt_clust_10="13000.00000"></scales>
<clustering>
<clus scale="   81.342">  5  6 -1 -1</clus>
<clus scale="   90.296">  1  5  2 -1</clus>
<clus scale="   90.351">  7  8 -1 -1</clus>
<clus scale="  120.770">  2  9  1 -1</clus>
<clus scale="  331.293">  7 10 -1 -1</clus>
<clus scale="  120.770">  2  5  1 -1</clus>
</clustering>
</event>
<event>
10    4  0.2759992E-005  0.2346295E+03  0.7546771E-02  0.1156916E+00
         21   -1    0    0  501  502  0.00000000000E+00  0.00000000000E+00  0.40132387372E+02  0.40132387372E+02  0.00000000000E+00 0.  1.
         -3   -1    0    0    0  501 -0.00000000000E+00 -0.00000000000E+00 -0.11589992453E+04  0.11589992453E+04  0.00000000000E+00 0.  1.
         24    2    1    2    0    0 -0.60667556249E+02 -0.25773198778E+02 -0.53114141463E+03  0.54217190255E+03  0.86569968385E+02 0.  0.
         23    2    1    2    0    0 -0.84226569417E+02  0.23281439383E+02 -0.27142397377E+03  0.29966130880E+03  0.92140034939E+02 0.  0.
        -11    1    3    3    0    0 -0.28620106080E+01  0.24785013064E+02 -0.62776271675E+02  0.67552559261E+02  0.00000000000E+00 0.  1.
         12    1    3    3    0    0 -0.57805545641E+02 -0.50558211842E+02 -0.46836514296E+03  0.47461934329E+03  0.00000000000E+00 0. -1.
        -13    1    4    4    0    0 -0.10256074486E+03  0.98184762230E+01 -0.20469168887E+03  0.22915888888E+03  0.00000000000E+00 0.  1.
         13    1    4    4    0    0  0.18334175441E+02  0.13462963160E+02 -0.66732284905E+02  0.70502419922E+02  0.00000000000E+00 0. -1.
         21    1    1    2  503  502  0.44096879952E+02 -0.68866606799E+01 -0.30393212719E+02  0.53997298971E+02  0.00000000000E+00 0.  1.
         -4    1    1    2    0  503  0.10079724571E+03  0.93784200740E+01 -0.28590825682E+03  0.30330112236E+03  0.00000000000E+00 0.  1.
<scales pt_clust_5="13000.00000" pt_clust_6="13000.00000" pt_clust_7="13000.00000" pt_clust_8="13000.00000" pt_clust_9="44.63139" pt_clust_10="13000.00000"></scales>
<clustering>
<clus scale="   44.631">  1  9  2 -1</clus>
<clus scale="   86.570">  5  6 -1 -1</clus>
<clus scale="   92.140">  7  8 -1 -1</clus>
<clus scale="  104.605">  2  5  1 -1</clus>
<clus scale="   83.707">  7 10 -1 -1</clus>
<clus scale="   44.631">  1  5  2 -1</clus>
</clustering>
</event>
<event>
10    4  0.2759992E-005  0.2317950E+03  0.7546771E-02  0.1139303E+00
          2   -1    0    0  503    0 -0.00000000000E+00  0.00000000000E+00  0.73811914019E+03  0.73811914019E+03  0.00000000000E+00 0. -1.
         21   -1    0    0  501  502  0.00000000000E+00 -0.00000000000E+00 -0.79973742911E+02  0.79973742911E+02  0.00000000000E+00 0. -1.
         24    2    1    2    0    0 -0.30088728538E+02  0.13221179877E+03  0.29349973492E+03  0.33081933347E+03  0.70100254536E+02 0.  0.
         23    2    1    2    0    0  0.27901092637E+02 -0.72445140752E+02  0.60177495256E+02  0.13594134453E+03  0.93978448750E+02 0.  0.
        -11    1    3    3    0    0 -0.48266014798E+02  0.71709594543E+02  0.13627739239E+03  0.16137968215E+03  0.00000000000E+00 0.  1.
         12    1    3    3    0    0  0.18177286260E+02  0.60502204225E+02  0.15722234252E+03  0.16943965132E+03  0.00000000000E+00 0. -1.
        -13    1    4    4    0    0  0.27322099812E+02  0.13004072551E+02  0.36217924367E+02  0.47194714604E+02  0.00000000000E+00 0.  1.
         13    1    4    4    0    0  0.57899282543E+00 -0.85449213303E+02  0.23959570889E+02  0.88746629930E+02  0.00000000000E+00 0. -1.
         21    1    1    2  503  502 -0.46719491512E+02  0.41015353853E+02  0.90223363148E+02  0.10956835947E+03  0.00000000000E+00 0.  1.
          1    1    1    2  501    0  0.48907127412E+02 -0.10078201187E+03  0.21424480396E+03  0.24176384562E+03  0.00000000000E+00 0. -1.
<scales pt_clust_5="13000.00000" pt_clust_6="13000.00000" pt_clust_7="13000.00000" pt_clust_8="13000.00000" pt_clust_9="62.16892" pt_clust_10="13000.00000"></scales>
<clustering>
<clus scale="   62.169">  2  9  1 -1</clus>
<clus scale="   70.100">  5  6 -1 -1</clus>
<clus scale="   93.978">  7  8 -1 -1</clus>
<clus scale="  100.918">  7 10 -1 -1</clus>
<clus scale="  164.914">  1  5  2 -1</clus>
<clus scale="   62.169">  2  5  1 -1</clus>
</clustering>
</event>
<event>
10    4  0.2759992E-005  0.5999319E+03  0.7546771E-02  0.1028621E+00
          2   -1    0    0  502    0 -0.00000000000E+00  0.00000000000E+00  0.13167477545E+04  0.13167477545E+04  0.00000000000E+00 0. -1.
         21   -1    0    0  503  502  0.00000000000E+00 -0.00000000000E+00 -0.48551413798E+03  0.48551413798E+03  0.00000000000E+00 0. -1.
         24    2    1    2    0    0 -0.11352832082E+03 -0.55780037441E+02 -0.26006284961E+03  0.29974279377E+03  0.78822360167E+02 0.  0.
         23    2    1    2    0    0  0.13710988098E+03 -0.13494155063E+03  0.17278859205E+03  0.27418502117E+03  0.91176678733E+02 0.  0.
        -11    1    3    3    0    0 -0.17497037229E+02 -0.47278281341E+02 -0.11502231690E+03  0.12558469486E+03  0.00000000000E+00 0.  1.
         12    1    3    3    0    0 -0.96031283595E+02 -0.85017560999E+01 -0.14504053271E+03  0.17415809890E+03  0.00000000000E+00 0. -1.
        -13    1    4    4    0    0  0.11143277735E+03 -0.71560706767E+02  0.67511251675E+02  0.14864712484E+03  0.00000000000E+00 0.  1.
         13    1    4    4    0    0  0.25677103633E+02 -0.63380843860E+02  0.10527734038E+03  0.12553789633E+03  0.00000000000E+00 0. -1.
         21    1    1    2  503  501  0.21948541958E+02 -0.10186873187E+03 -0.11385511450E+03  0.15434365593E+03  0.00000000000E+00 0. -1.
          1    1    1    2  501    0 -0.45530102113E+02  0.29259031994E+03  0.10323629886E+04  0.10739904217E+04  0.00000000000E+00 0. -1.
<scales pt_clust_5="13000.00000" pt_clust_6="13000.00000" pt_clust_7="13000.00000" pt_clust_8="13000.00000" pt_clust_9="104.20642" pt_clust_10="13000.00000"></scales>
<clustering>
<clus scale="   78.822">  5  6 -1 -1</clus>
<clus scale="   91.177">  7  8 -1 -1</clus>
<clus scale="  104.206">  2  9  1 -1</clus>
<clus scale="  184.891">  1  5  2 -1</clus>
<clus scale="  214.466">  7 10 -1 -1</clus>
<clus scale="  104.206">  2  5  1 -1</clus>
</clustering>
</event>
<event>
10    4  0.2759992E-005  0.1749643E+03  0.7546771E-02  0.1198490E+00
         21   -1    0    0  503  502  0.00000000000E+00  0.00000000000E+00  0.17975732582E+03  0.17975732582E+03  0.00000000000E+00 0. -1.
          2   -1    0    0  502    0 -0.00000000000E+00 -0.00000000000E+00 -0.15419286819E+03  0.15419286819E+03  0.00000000000E+00 0. -1.
         24    2    1    2    0    0 -0.39384563411E+02  0.17913611120E+02  0.36356806660E+02  0.95669632070E+02  0.77193392278E+02 0.  0.
         23    2    1    2    0    0  0.32994620233E+02 -0.26976393300E+02  0.29511403930E+02  0.10392015793E+03  0.90067227684E+02 0.  0.
        -13    1    3    3    0    0 -0.75563647198E+01  0.19317312974E+02 -0.21340781530E+02  0.29760480249E+02  0.00000000000E+00 0.  1.
         14    1    3    3    0    0 -0.31828198692E+02 -0.14037018541E+01  0.57697588190E+02  0.65909151821E+02  0.00000000000E+00 0. -1.
        -13    1    4    4    0    0  0.18264295099E+02 -0.51722933988E+02 -0.92539448209E+01  0.55628067291E+02  0.00000000000E+00 0.  1.
         13    1    4    4    0    0  0.14730325134E+02  0.24746540688E+02  0.38765348751E+02  0.48292090640E+02  0.00000000000E+00 0. -1.
         21    1    1    2  503  501 -0.34835879974E+02  0.15536841496E+02  0.32719321254E+02  0.50254213362E+02  0.00000000000E+00 0. -1.
          1    1    1    2  501    0  0.41225823153E+02 -0.64740593156E+01 -0.73023074214E+02  0.84106190653E+02  0.00000000000E+00 0. -1.
<scales pt_clust_5="13000.00000" pt_clust_6="13000.00000" pt_clust_7="13000.00000" pt_clust_8="13000.00000" pt_clust_9="38.14357" pt_clust_10="13000.00000"></scales>
<clustering>
<clus scale="   38.144">  1  9  2 -1</clus>
<clus scale="   77.193">  5  6 -1 -1</clus>
<clus scale="   90.067">  7  8 -1 -1</clus>
<clus scale="   40.257">  7 10 -1 -1</clus>
<clus scale="   98.683">  2  5  1 -1</clus>
<clus scale="   38.144">  1  5  2 -1</clus>
</clustering>
</event>
<event>
10    4  0.2759992E-005  0.1698430E+03  0.7546771E-02  0.1203316E+00
         -3   -1    0    0    0  501 -0.00000000000E+00  0.00000000000E+00  0.22497934614E+03  0.22497934614E+03  0.00000000000E+00 0.  1.
         21   -1    0    0  503  502  0.00000000000E+00 -0.00000000000E+00 -0.16814104165E+03  0.16814104165E+03  0.00000000000E+00 0. -1.
         24    2    1    2    0    0 -0.36286422865E+02 -0.23504343758E+01 -0.40677874140E+02  0.95454419520E+02  0.78323864405E+02 0.  0.
         23    2    1    2    0    0  0.13516537217E+02  0.18047227447E+02  0.13547135969E+03  0.16501039442E+03  0.91474268366E+02 0.  0.
        -13    1    3    3    0    0 -0.24752151779E+02 -0.28893723432E+02  0.79480979084E+01  0.38867576871E+02  0.00000000000E+00 0.  1.
         14    1    3    3    0    0 -0.11534271085E+02  0.26543289056E+02 -0.48625972048E+02  0.56586842649E+02  0.00000000000E+00 0. -1.
        -11    1    4    4    0    0  0.97035895962E+01  0.55132367986E+02  0.92509206549E+02  0.10812812283E+03  0.00000000000E+00 0.  1.
         11    1    4    4    0    0  0.38129476203E+01 -0.37085140539E+02  0.42962153141E+02  0.56882271587E+02  0.00000000000E+00 0. -1.
         21    1    1    2  503  501 -0.32536983002E+02  0.17543468176E+02 -0.54674072003E+02  0.65997596077E+02  0.00000000000E+00 0. -1.
         -4    1    1    2    0  502  0.55306868650E+02 -0.33240261247E+02  0.16718890941E+02  0.66657977781E+02  0.00000000000E+00 0.  1.
<scales pt_clust_5="13000.00000" pt_clust_6="13000.00000" pt_clust_7="13000.00000" pt_clust_8="13000.00000" pt_clust_9="36.96523" pt_clust_10="13000.00000"></scales>
<clustering>
<clus scale="   36.965">  2  9  1 -1</clus>
<clus scale="   78.324">  5  6 -1 -1</clus>
<clus scale="   91.474">  7  8 -1 -1</clus>
<clus scale="   55.976">  7 10 -1 -1</clus>
<clus scale="   97.162">  1  5  2 -1</clus>
<clus scale="   36.965">  2  5  1 -1</clus>
</clustering>
</event>
<event>
10    4  0.2759992E-005  0.1277967E+03  0.7546771E-02  0.1253360E+00
         -3   -1    0    0    0  501 -0.00000000000E+00  0.00000000000E+00  0.24162572891E+03  0.24162572891E+03  0.00000000000E+00 0.  1.
         21   -1    0    0  503  502  0.00000000000E+00 -0.00000000000E+00 -0.94781160354E+02  0.94781160354E+02  0.00000000000E+00 0. -1.
         24    2    1    2    0    0 -0.20729365192E+02  0.26840762434E+02 -0.24527533372E+02  0.90430234822E+02  0.80161676425E+02 0.  0.
         23    2    1    2    0    0  0.14826611682E+02  0.11598853346E+01  0.11635694220E+03  0.15059041035E+03  0.94431774013E+02 0.  0.
        -13    1    3    3    0    0 -0.32215290620E+02  0.28977765872E+02  0.17558322043E+02  0.46752866625E+02  0.00000000000E+00 0.  1.
         14    1    3    3    0    0  0.11485925429E+02 -0.21370034374E+01 -0.42085855414E+02  0.43677368197E+02  0.00000000000E+00 0. -1.
        -13    1    4    4    0    0  0.37980858902E+02 -0.35620508615E+02  0.60687435847E+02  0.79964561817E+02  0.00000000000E+00 0.  1.
         13    1    4    4    0    0 -0.23154247220E+02  0.36780393950E+02  0.55669506349E+02  0.70625848530E+02  0.00000000000E+00 0. -1.
         21    1    1    2  503  501  0.37855928847E+02 -0.25338368605E+02  0.28098977928E+02  0.53522489040E+02  0.00000000000E+00 0.  1.
         -4    1    1    2    0  502 -0.31953175338E+02 -0.26622791643E+01  0.26916181808E+02  0.41863755059E+02  0.00000000000E+00 0.  1.
<scales pt_clust_5="13000.00000" pt_clust_6="13000.00000" pt_clust_7="13000.00000" pt_clust_8="13000.00000" pt_clust_9="45.55334" pt_clust_10="13000.00000"></scales>
<clustering>
<clus scale="   45.553">  2  9  1 -1</clus>
<clus scale="   80.162">  5  6 -1 -1</clus>
<clus scale="   80.883">  1  5  2 -1</clus>
<clus scale="   94.432">  7  8 -1 -1</clus>
<clus scale="   27.683">  7 10 -1 -1</clus>
<clus scale="   45.553">  2  5  1 -1</clus>
</clustering>
</event>
<event>
10    4  0.2759992E-005  0.3020335E+03  0.7546771E-02  0.1086421E+00
          2   -1    0    0  503    0 -0.00000000000E+00  0.00000000000E+00  0.68760116452E+03  0.68760116452E+03  0.00000000000E+00 0. -1.
         21   -1    0    0  501  502  0.00000000000E+00 -0.00000000000E+00 -0.34370410213E+03  0.34370410213E+03  0.00000000000E+00 0.  1.
         24    2    1    2    0    0  0.24588174285E+03 -0.13684821724E+03  0.22763875507E+03  0.37411598811E+03  0.94647259456E+02 0.  0.
         23    2    1    2    0    0 -0.79895521903E+02  0.80471604743E+02  0.12885593952E+03  0.19231094098E+03  0.86721803942E+02 0.  0.
        -13    1    3    3    0    0  0.16607949371E+03 -0.11667612097E+03  0.20559488779E+03  0.28890305176E+03  0.00000000000E+00 0.  1.
         14    1    3    3    0    0  0.79802249142E+02 -0.20172096267E+02  0.22043867283E+02  0.85212936346E+02  0.00000000000E+00 0. -1.
        -13    1    4    4    0    0  0.10988038300E+02  0.39223563098E+02  0.53552141629E+02  0.67283406282E+02  0.00000000000E+00 0.  1.
         13    1    4    4    0    0 -0.90883560203E+02  0.41248041644E+02  0.75303797893E+02  0.12502753469E+03  0.00000000000E+00 0. -1.
         21    1    1    2  503  502 -0.39284549158E+02 -0.21282566272E+02 -0.21173806356E+03  0.21640062613E+03  0.00000000000E+00 0.  1.
          1    1    1    2  501    0 -0.12670167179E+03  0.77659178766E+02  0.19914043135E+03  0.24847771143E+03  0.00000000000E+00 0. -1.
<scales pt_clust_5="13000.00000" pt_clust_6="13000.00000" pt_clust_7="13000.00000" pt_clust_8="13000.00000" pt_clust_9="44.67912" pt_clust_10="13000.00000"></scales>
<clustering>
<clus scale="   44.679">  2  9  1 -1</clus>
<clus scale="   86.722">  7  8 -1 -1</clus>
<clus scale="   94.647">  5  6 -1 -1</clus>
<clus scale="  153.042">  7 10 -1 -1</clus>
<clus scale="  284.881">  1  5  2 -1</clus>
<clus scale="   44.679">  2  5  1 -1</clus>
</clustering>
</event>
<event>
10    4  0.2759992E-005  0.2457672E+03  0.7546771E-02  0.1121700E+00
          2   -1    0    0  502    0 -0.00000000000E+00  0.00000000000E+00  0.46794615928E+03  0.46794615928E+03  0.00000000000E+00 0. -1.
         21   -1    0    0  503  502  0.00000000000E+00 -0.00000000000E+00 -0.44063389870E+03  0.44063389870E+03  0.00000000000E+00 0. -1.
         24    2    1    2    0    0  0.22429147735E+03  0.60415645616E+02  0.35407053253E+03  0.43103256898E+03  0.80414031528E+02 0.  0.
         23    2    1    2    0    0 -0.20435350025E+02  0.43641380655E+01 -0.99443128725E+02  0.13291695791E+03  0.85681576894E+02 0.  0.
        -11    1    3    3    0    0  0.13177845186E+03  0.54537617824E+02  0.15045289909E+03  0.20730650491E+03  0.00000000000E+00 0.  1.
         12    1    3    3    0    0  0.92513025488E+02  0.58780277917E+01  0.20361763344E+03  0.22372606407E+03  0.00000000000E+00 0. -1.
        -13    1    4    4    0    0  0.25034546396E+02 -0.22150318573E+02 -0.53322961871E+02  0.62934119433E+02  0.00000000000E+00 0. -1.
         13    1    4    4    0    0 -0.45469896421E+02  0.26514456638E+02 -0.46120166854E+02  0.69982838482E+02  0.00000000000E+00 0.  1.
         21    1    1    2  503  501 -0.14886018369E+03 -0.76427383195E+02 -0.23436830102E+03  0.28797395666E+03  0.00000000000E+00 0. -1.
          1    1    1    2  501    0 -0.54995943640E+02  0.11647599514E+02  0.70531578078E+01  0.56656574431E+02  0.00000000000E+00 0. -1.
<scales pt_clust_5="13000.00000" pt_clust_6="13000.00000" pt_clust_7="13000.00000" pt_clust_8="13000.00000" pt_clust_9="167.33350" pt_clust_10="13000.00000"></scales>
<clustering>
<clus scale="   80.414">  5  6 -1 -1</clus>
<clus scale="   85.682">  7  8 -1 -1</clus>
<clus scale="   56.216">  7 10 -1 -1</clus>
<clus scale="  167.333">  2  9  1 -1</clus>
<clus scale="  213.101">  1  5  2 -1</clus>
<clus scale="  167.333">  2  5  1 -1</clus>
</clustering>
</event>
<event>
10    4  0.2759992E-005  0.2318372E+03  0.7546771E-02  0.1135461E+00
         -1   -1    0    0    0  501 -0.00000000000E+00  0.00000000000E+00  0.32848910739E+03  0.32848910739E+03  0.00000000000E+00 0.  1.
         21   -1    0    0  503  502  0.00000000000E+00 -0.00000000000E+00 -0.36947943844E+03  0.36947943844E+03  0.00000000000E+00 0.  1.
         24    2    1    2    0    0  0.20818211900E+03 -0.30636096667E+02 -0.12881291604E+03  0.25968725443E+03  0.81032941958E+02 0.  0.
         23    2    1    2    0    0 -0.39903936667E+02 -0.29641878804E+02  0.10719731398E+03  0.14793755197E+03  0.89012864348E+02 0.  0.
        -11    1    3    3    0    0  0.20377113557E+03 -0.39990548714E+02 -0.10283444993E+03  0.23172579436E+03  0.00000000000E+00 0.  1.
         12    1    3    3    0    0  0.44109834353E+01  0.93544520467E+01 -0.25978466113E+02  0.27961460075E+02  0.00000000000E+00 0. -1.
        -11    1    4    4    0    0 -0.36317307676E+02 -0.60635163213E+02  0.71763053327E+02  0.10072490098E+03  0.00000000000E+00 0.  1.
         11    1    4    4    0    0 -0.35866289913E+01  0.30993284409E+02  0.35434260650E+02  0.47212650993E+02  0.00000000000E+00 0. -1.
         21    1    1    2  503  501 -0.60874162947E+02  0.50482162497E+01 -0.11901431897E+03  0.13377427377E+03  0.00000000000E+00 0.  1.
         -2    1    1    2    0  502 -0.10740401939E+03  0.55229759221E+02  0.99639589983E+02  0.15656946566E+03  0.00000000000E+00 0.  1.
<scales pt_clust_5="13000.00000" pt_clust_6="13000.00000" pt_clust_7="13000.00000" pt_clust_8="13000.00000" pt_clust_9="61.08313" pt_clust_10="13000.00000"></scales>
<clustering>
<clus scale="   61.083">  2  9  1 -1</clus>
<clus scale="   81.033">  5  6 -1 -1</clus>
<clus scale="   89.013">  7  8 -1 -1</clus>
<clus scale="  127.411">  7 10 -1 -1</clus>
<clus scale="  180.904">  1  5  2 -1</clus>
<clus scale="   61.083">  2  5  1 -1</clus>
</clustering>
</event>
<event>
10    4  0.2759992E-005  0.1794576E+03  0.7546771E-02  0.1197583E+00
          2   -1    0    0  502    0 -0.00000000000E+00  0.00000000000E+00  0.62325207614E+03  0.62325207614E+03  0.00000000000E+00 0. -1.
         21   -1    0    0  503  502  0.00000000000E+00 -0.00000000000E+00 -0.49134478372E+02  0.49134478372E+02  0.00000000000E+00 0.  1.
         24    2    1    2    0    0  0.45305184646E+02 -0.22230220698E+02  0.33325482967E+03  0.34596863628E+03  0.78030592221E+02 0.  0.
         23    2    1    2    0    0 -0.14642199940E+02 -0.14256385410E+01  0.48127005483E+02  0.10422837712E+03  0.91273870714E+02 0.  0.
        -11    1    3    3    0    0  0.54398642699E+02  0.13280627172E+01  0.29601163422E+03  0.30097153300E+03  0.00000000000E+00 0.  1.
         12    1    3    3    0    0 -0.90934580530E+01 -0.23558283415E+02  0.37243195444E+02  0.44997103281E+02  0.00000000000E+00 0. -1.
        -13    1    4    4    0    0 -0.36686120825E+02  0.34206915765E+02  0.21428013764E+02  0.54544883547E+02  0.00000000000E+00 0. -1.
         13    1    4    4    0    0  0.22043920884E+02 -0.35632554306E+02  0.26698991719E+02  0.49683493568E+02  0.00000000000E+00 0.  1.
         21    1    1    2  503  501  0.13561052313E+02  0.21606095123E+02  0.11285405337E+01  0.25534272851E+02  0.00000000000E+00 0.  1.
          1    1    1    2  501    0 -0.44224037018E+02  0.20497641159E+01  0.19160722209E+03  0.19665526827E+03  0.00000000000E+00 0. -1.
<scales pt_clust_5="13000.00000" pt_clust_6="13000.00000" pt_clust_7="13000.00000" pt_clust_8="13000.00000" pt_clust_9="25.50932" pt_clust_10="13000.00000"></scales>
<clustering>
<clus scale="   25.509">  2  9  1 -1</clus>
<clus scale="   78.031">  5  6 -1 -1</clus>
<clus scale="   91.274">  7  8 -1 -1</clus>
<clus scale="   43.441">  7 10 -1 -1</clus>
<clus scale="   93.279">  1  5  2 -1</clus>
<clus scale="   25.509">  2  5  1 -1</clus>
</clustering>
</event>
<event>
10    4  0.2759992E-005  0.1681336E+03  0.7546771E-02  0.1211363E+00
          2   -1    0    0  502    0 -0.00000000000E+00  0.00000000000E+00  0.84316238050E+03  0.84316238050E+03  0.00000000000E+00 0. -1.
         21   -1    0    0  503  502  0.00000000000E+00 -0.00000000000E+00 -0.59317060190E+02  0.59317060190E+02  0.00000000000E+00 0. -1.
         24    2    1    2    0    0 -0.31509366042E+02  0.13323057233E+02  0.20253075544E+03  0.21963398967E+03  0.77781993540E+02 0.  0.
         23    2    1    2    0    0 -0.31020467360E+02  0.44052271828E+01  0.25365129744E+03  0.27179462033E+03  0.92475183295E+02 0.  0.
        -13    1    3    3    0    0 -0.39336664772E+02  0.21448523081E+02  0.20343988308E+03  0.20831514195E+03  0.00000000000E+00 0.  1.
         14    1    3    3    0    0  0.78272987303E+01 -0.81254658478E+01 -0.90912764503E+00  0.11318847721E+02  0.00000000000E+00 0. -1.
        -13    1    4    4    0    0 -0.59093051018E+02  0.18805000986E+02  0.12782951267E+03  0.14207744737E+03  0.00000000000E+00 0. -1.
         13    1    4    4    0    0  0.28072583658E+02 -0.14399773804E+02  0.12582178477E+03  0.12971717297E+03  0.00000000000E+00 0.  1.
         21    1    1    2  503  501  0.19940573789E+02  0.22393481796E+02 -0.33626501118E+02  0.45053702260E+02  0.00000000000E+00 0. -1.
          1    1    1    2  501    0  0.42589259613E+02 -0.40121766212E+02  0.36128976855E+03  0.36599712843E+03  0.00000000000E+00 0. -1.
<scales pt_clust_5="13000.00000" pt_clust_6="13000.00000" pt_clust_7="13000.00000" pt_clust_8="13000.00000" pt_clust_9="29.98490" pt_clust_10="13000.00000"></scales>
<clustering>
<clus scale="   29.985">  2  9  1 -1</clus>
<clus scale="   77.782">  5  6 -1 -1</clus>
<clus scale="   84.277">  1  5  2 -1</clus>
<clus scale="   92.475">  7  8 -1 -1</clus>
<clus scale="   39.786">  7 10 -1 -1</clus>
<clus scale="   29.985">  2  5  1 -1</clus>
</clustering>
</event>
<event>
10    4  0.2759992E-005  0.3236348E+03  0.7546771E-02  0.1107253E+00
          2   -1    0    0  502    0 -0.00000000000E+00  0.00000000000E+00  0.13980264725E+04  0.13980264725E+04  0.00000000000E+00 0. -1.
         21   -1    0    0  503  502  0.00000000000E+00 -0.00000000000E+00 -0.81808796223E+02  0.81808796223E+02  0.00000000000E+00 0. -1.
         24    2    1    2    0    0 -0.10515464150E+03 -0.22321268692E+02  0.16567348077E+03  0.21335431900E+03  0.80725618876E+02 0.  0.
         23    2    1    2    0    0  0.91194075762E+02  0.12918358550E+03  0.27310331773E+03  0.32867032219E+03  0.91836813491E+02 0.  0.
        -13    1    3    3    0    0 -0.14880325852E+02  0.26314684766E+02  0.24737584582E+02  0.39061935727E+02  0.00000000000E+00 0.  1.
         14    1    3    3    0    0 -0.90274315647E+02 -0.48635953458E+02  0.14093589619E+03  0.17429238328E+03  0.00000000000E+00 0. -1.
        -11    1    4    4    0    0  0.38120318866E+02  0.18349156291E+02  0.14545814652E+03  0.15148571760E+03  0.00000000000E+00 0.  1.
         11    1    4    4    0    0  0.53073756896E+02  0.11083442921E+03  0.12764517122E+03  0.17718460459E+03  0.00000000000E+00 0. -1.
         21    1    1    2  503  501  0.65850701957E+02 -0.16904765338E+03  0.27184406031E+03  0.32682199617E+03  0.00000000000E+00 0. -1.
          1    1    1    2  501    0 -0.51890136220E+02  0.62185336566E+02  0.60559681745E+03  0.61098863134E+03  0.00000000000E+00 0. -1.
<scales pt_clust_5="13000.00000" pt_clust_6="13000.00000" pt_clust_7="13000.00000" pt_clust_8="13000.00000" pt_clust_9="179.05686" pt_clust_10="13000.00000"></scales>
<clustering>
<clus scale="   80.726">  5  6 -1 -1</clus>
<clus scale="   91.837">  7  8 -1 -1</clus>
<clus scale="   80.991">  7 10 -1 -1</clus>
<clus scale="  134.434">  1  5  2 -1</clus>
<clus scale="  179.057">  2  9  1 -1</clus>
<clus scale="  179.057">  2  5  1 -1</clus>
</clustering>
</event>
<event>
10    4  0.2759992E-005  0.2366541E+03  0.7546771E-02  0.1159787E+00
          2   -1    0    0  503    0 -0.00000000000E+00  0.00000000000E+00  0.42727877523E+03  0.42727877523E+03  0.00000000000E+00 0. -1.
         21   -1    0    0  501  502  0.00000000000E+00 -0.00000000000E+00 -0.84633408384E+02  0.84633408384E+02  0.00000000000E+00 0. -1.
         24    2    1    2    0    0  0.56859605244E+02  0.18450900959E+02  0.65366873365E+02  0.11954143566E+03  0.80273758167E+02 0.  0.
         23    2    1    2    0    0 -0.81796930523E+02 -0.72986093871E+02  0.23185998366E+03  0.27186732786E+03  0.90194701597E+02 0.  0.
        -11    1    3    3    0    0  0.61878163968E+02  0.29570510701E+02  0.76700453248E+02  0.10288965841E+03  0.00000000000E+00 0.  1.
         12    1    3    3    0    0 -0.50185587242E+01 -0.11119609741E+02 -0.11333579883E+02  0.16651777245E+02  0.00000000000E+00 0. -1.
        -13    1    4    4    0    0 -0.35016421754E+02 -0.10281388209E+02  0.16490555926E+03  0.16889553047E+03  0.00000000000E+00 0.  1.
         13    1    4    4    0    0 -0.46780508769E+02 -0.62704705662E+02  0.66954424393E+02  0.10297179739E+03  0.00000000000E+00 0. -1.
         21    1    1    2  503  502 -0.18068738544E+02 -0.14140684449E+02 -0.70097491285E+01  0.23991141117E+02  0.00000000000E+00 0. -1.
          1    1    1    2  501    0  0.43006063823E+02  0.68675877361E+02  0.52428258948E+02  0.96512278976E+02  0.00000000000E+00 0. -1.
<scales pt_clust_5="13000.00000" pt_clust_6="13000.00000" pt_clust_7="13000.00000" pt_clust_8="13000.00000" pt_clust_9="22.94424" pt_clust_10="13000.00000"></scales>
<clustering>
<clus scale="   22.944">  2  9  1 -1</clus>
<clus scale="   80.274">  5  6 -1 -1</clus>
<clus scale="   90.195">  7  8 -1 -1</clus>
<clus scale="   74.193">  7 10 -1 -1</clus>
<clus scale="   95.334">  1  5  2 -1</clus>
<clus scale="   22.944">  2  5  1 -1</clus>
</clustering>
</event>
<event>
10    4  0.2759992E-005  0.3171676E+03  0.7546771E-02  0.1126448E+00
          2   -1    0    0  502    0 -0.00000000000E+00  0.00000000000E+00  0.22263173841E+03  0.22263173841E+03  0.00000000000E+00 0. -1.
         21   -1    0    0  503  502  0.00000000000E+00 -0.00000000000E+00 -0.39935240659E+03  0.39935240659E+03  0.00000000000E+00 0. -1.
         24    2    1    2    0    0 -0.25420257376E+02 -0.15063050023E+02  0.93253663928E+02  0.12733894173E+03  0.81522237976E+02 0.  0.
         23    2    1    2    0    0  0.10282198327E+03  0.16650238816E+03 -0.10043795814E+03  0.24055414778E+03  0.97381256278E+02 0.  0.
        -13    1    3    3    0    0 -0.25771842952E+01  0.30687867555E+02  0.56556600136E+02  0.64397485299E+02  0.00000000000E+00 0.  1.
         14    1    3    3    0    0 -0.22843073081E+02 -0.45750917578E+02  0.36697063792E+02  0.62941456433E+02  0.00000000000E+00 0. -1.
        -11    1    4    4    0    0  0.11700404838E+03  0.12402919465E+03 -0.61648234386E+02  0.18131104011E+03  0.00000000000E+00 0. -1.
         11    1    4    4    0    0 -0.14182065113E+02  0.42473193514E+02 -0.38789723750E+02  0.59243107673E+02  0.00000000000E+00 0.  1.
         21    1    1    2  503  501 -0.47952559377E+02 -0.44845262989E+02 -0.11100900457E+03  0.12897110009E+03  0.00000000000E+00 0. -1.
          1    1    1    2  501    0 -0.29449166516E+02 -0.10659407515E+03 -0.58527369402E+02  0.12511995538E+03  0.00000000000E+00 0. -1.
<scales pt_clust_5="13000.00000" pt_clust_6="13000.00000" pt_clust_7="13000.00000" pt_clust_8="13000.00000" pt_clust_9="65.65475" pt_clust_10="13000.00000"></scales>
<clustering>
<clus scale="   65.655">  2  9  1 -1</clus>
<clus scale="   81.522">  5  6 -1 -1</clus>
<clus scale="   88.126">  1  5  2 -1</clus>
<clus scale="   97.381">  7  8 -1 -1</clus>
<clus scale="  142.293">  7 10 -1 -1</clus>
<clus scale="   65.655">  2  5  1 -1</clus>
</clustering>
</event>
<event>
10    4  0.2759992E-005  0.2176217E+03  0.7546771E-02  0.1171602E+00
         21   -1    0    0  501  502  0.00000000000E+00  0.00000000000E+00  0.82391113550E+02  0.82391113550E+02  0.00000000000E+00 0. -1.
          2   -1    0    0  503    0 -0.00000000000E+00 -0.00000000000E+00 -0.52320346294E+03  0.52320346294E+03  0.00000000000E+00 0. -1.
         24    2    1    2    0    0  0.67099445841E+00  0.44671051679E+02 -0.26331364829E+03  0.27886554461E+03  0.80224444531E+02 0.  0.
         23    2    1    2    0    0  0.48984748754E+02 -0.41275167434E+02 -0.16392887073E+03  0.19754882999E+03  0.89720234705E+02 0.  0.
        -13    1    3    3    0    0  0.79487780959E+01 -0.20575466791E+02 -0.10828846867E+03  0.11051210501E+03  0.00000000000E+00 0.  1.
         14    1    3    3    0    0 -0.72777836374E+01  0.65246518470E+02 -0.15502517962E+03  0.16835343960E+03  0.00000000000E+00 0. -1.
        -11    1    4    4    0    0  0.23574885298E+02  0.26353420961E+02 -0.75429547117E+02  0.83306029742E+02  0.00000000000E+00 0. -1.
         11    1    4    4    0    0  0.25409863456E+02 -0.67628588395E+02 -0.88499323615E+02  0.11424280025E+03  0.00000000000E+00 0.  1.
         21    1    1    2  503  502  0.33709613711E+02  0.23126452668E+02 -0.19172400155E+01  0.40924890700E+02  0.00000000000E+00 0.  1.
          1    1    1    2  501    0 -0.83365356924E+02 -0.26522336913E+02 -0.11652590345E+02  0.88255311183E+02  0.00000000000E+00 0. -1.
<scales pt_clust_5="13000.00000" pt_clust_6="13000.00000" pt_clust_7="13000.00000" pt_clust_8="13000.00000" pt_clust_9="40.87996" pt_clust_10="13000.00000"></scales>
<clustering>
<clus scale="   40.880">  1  9  2 -1</clus>
<clus scale="   80.224">  5  6 -1 -1</clus>
<clus scale="   89.720">  7  8 -1 -1</clus>
<clus scale="   64.054">  7 10 -1 -1</clus>
<clus scale="   93.373">  2  5  1 -1</clus>
<clus scale="   40.880">  1  5  2 -1</clus>
</clustering>
</event>
<event>
10    4  0.2759992E-005  0.3894317E+03  0.7546771E-02  0.1085624E+00
          2   -1    0    0  502    0 -0.00000000000E+00  0.00000000000E+00  0.22865933647E+04  0.22865933647E+04  0.00000000000E+00 0. -1.
         21   -1    0    0  503  502  0.00000000000E+00 -0.00000000000E+00 -0.70714555460E+02  0.70714555460E+02  0.00000000000E+00 0. -1.
         24    2    1    2    0    0  0.53185411509E+02 -0.10391939136E+03  0.31400004247E+03  0.34494965203E+03  0.82257570243E+02 0.  0.
         23    2    1    2    0    0  0.12925347958E+03  0.98441957833E+02  0.73008994333E+03  0.75447088977E+03  0.98983418364E+02 0.  0.
        -13    1    3    3    0    0  0.61612576632E+02 -0.10386078242E+03  0.31410764551E+03  0.33652159617E+03  0.00000000000E+00 0.  1.
         14    1    3    3    0    0 -0.84271651230E+01 -0.58608941116E-01 -0.10760303826E+00  0.84280558512E+01  0.00000000000E+00 0. -1.
        -11    1    4    4    0    0  0.13922063451E+03  0.72913012833E+02  0.67351402320E+03  0.69160670324E+03  0.00000000000E+00 0. -1.
         11    1    4    4    0    0 -0.99671549216E+01  0.25528945001E+02  0.56575920131E+02  0.62864186535E+02  0.00000000000E+00 0.  1.
         21    1    1    2  503  501  0.17350085809E+00  0.22306265884E+02 -0.32663678850E+02  0.39553957024E+02  0.00000000000E+00 0. -1.
          1    1    1    2  501    0 -0.18261239195E+03 -0.16828832361E+02  0.12044525022E+04  0.12183334213E+04  0.00000000000E+00 0. -1.
<scales pt_clust_5="13000.00000" pt_clust_6="13000.00000" pt_clust_7="13000.00000" pt_clust_8="13000.00000" pt_clust_9="22.30694" pt_clust_10="13000.00000"></scales>
<clustering>
<clus scale="   22.307">  2  9  1 -1</clus>
<clus scale="   82.258">  5  6 -1 -1</clus>
<clus scale="   98.983">  7  8 -1 -1</clus>
<clus scale="  135.753">  1  5  2 -1</clus>
<clus scale="  165.482">  7 10 -1 -1</clus>
<clus scale="   22.307">  2  5  1 -1</clus>
</clustering>
</event>
<event>
10    4  0.2759992E-005  0.4463653E+03  0.7546771E-02  0.1076892E+00
         21   -1    0    0  501  502  0.00000000000E+00  0.00000000000E+00  0.20288822866E+03  0.20288822866E+03  0.00000000000E+00 0. -1.
          2   -1    0    0  503    0 -0.00000000000E+00 -0.00000000000E+00 -0.91233273256E+03  0.91233273256E+03  0.00000000000E+00 0. -1.
         24    2    1    2    0    0 -0.90826446323E+02  0.61839155605E+01 -0.79313516333E+02  0.13887167344E+03  0.68607752100E+02 0.  0.
         23    2    1    2    0    0 -0.98707801500E+02 -0.19810537361E+03 -0.59386244563E+03  0.63929674492E+03  0.83897286105E+02 0.  0.
        -11    1    3    3    0    0 -0.45283457686E+02 -0.30900713446E+01  0.17575913010E+01  0.45422782919E+02  0.00000000000E+00 0.  1.
         12    1    3    3    0    0 -0.45542988637E+02  0.92739869050E+01 -0.81071107634E+02  0.93448890523E+02  0.00000000000E+00 0. -1.
        -11    1    4    4    0    0 -0.73290526276E+02 -0.19747735748E+03 -0.54324777355E+03  0.58265508787E+03  0.00000000000E+00 0. -1.
         11    1    4    4    0    0 -0.25417275224E+02 -0.62801613175E+00 -0.50614672081E+02  0.56641657055E+02  0.00000000000E+00 0.  1.
         21    1    1    2  503  502  0.45391488599E+02  0.12642850001E+03  0.64878606260E+02  0.14917703041E+03  0.00000000000E+00 0. -1.
          1    1    1    2  501    0  0.14414275922E+03  0.65492958042E+02 -0.10114714820E+03  0.18787551245E+03  0.00000000000E+00 0. -1.
<scales pt_clust_5="13000.00000" pt_clust_6="13000.00000" pt_clust_7="13000.00000" pt_clust_8="13000.00000" pt_clust_9="133.10428" pt_clust_10="13000.00000"></scales>
<clustering>
<clus scale="   68.608">  5  6 -1 -1</clus>
<clus scale="   83.897">  7  8 -1 -1</clus>
<clus scale="  113.994">  2  5  1 -1</clus>
<clus scale="  133.104">  1  9  2 -1</clus>
<clus scale="  195.220">  7 10 -1 -1</clus>
<clus scale="  133.104">  1  5  2 -1</clus>
</clustering>
</event>
<event>
10    4  0.2759992E-005  0.2218326E+03  0.7546771E-02  0.1160987E+00
         21   -1    0    0  503  502  0.00000000000E+00  0.00000000000E+00  0.12641883018E+03  0.12641883018E+03  0.00000000000E+00 0. -1.
          2   -1    0    0  502    0 -0.00000000000E+00 -0.00000000000E+00 -0.11270786875E+04  0.11270786875E+04  0.00000000000E+00 0. -1.
         24    2    1    2    0    0 -0.79047164033E+02  0.16950631487E+01 -0.90996189471E+03  0.91696514358E+03  0.80889414274E+02 0.  0.
         23    2    1    2    0    0  0.14150798814E+01  0.23939973667E+02 -0.16586973571E+03  0.19131248626E+03  0.92263608123E+02 0.  0.
        -11    1    3    3    0    0 -0.18384931756E+02 -0.21595475215E+02 -0.88414574064E+02  0.92852071449E+02  0.00000000000E+00 0.  1.
         12    1    3    3    0    0 -0.60662232278E+02  0.23290538364E+02 -0.82154732064E+03  0.82411307213E+03  0.00000000000E+00 0. -1.
        -11    1    4    4    0    0 -0.41796667689E+02  0.18850157719E+02 -0.51539113907E+02  0.68982390059E+02  0.00000000000E+00 0. -1.
         11    1    4    4    0    0  0.43211747570E+02  0.50898159476E+01 -0.11433062181E+03  0.12233009620E+03  0.00000000000E+00 0.  1.
         21    1    1    2  503  501  0.13903517538E+02  0.16033204334E+02  0.65030533588E+02  0.68405714234E+02  0.00000000000E+00 0. -1.
          1    1    1    2  501    0  0.63728566614E+02 -0.41668241149E+02  0.10141239540E+02  0.76814173578E+02  0.00000000000E+00 0. -1.
<scales pt_clust_5="13000.00000" pt_clust_6="13000.00000" pt_clust_7="13000.00000" pt_clust_8="13000.00000" pt_clust_9="21.22196" pt_clust_10="13000.00000"></scales>
<clustering>
<clus scale="   21.222">  1  9  2 -1</clus>
<clus scale="   80.889">  5  6 -1 -1</clus>
<clus scale="   92.264">  7  8 -1 -1</clus>
<clus scale="   79.712">  7 10 -1 -1</clus>
<clus scale="  112.562">  2  5  1 -1</clus>
<clus scale="   21.222">  1  5  2 -1</clus>
</clustering>
</event>
<event>
10    4  0.2759992E-005  0.7236716E+03  0.7546771E-02  0.1013846E+00
         21   -1    0    0  503  502  0.00000000000E+00  0.00000000000E+00  0.15504378473E+04  0.15504378473E+04  0.00000000000E+00 0. -1.
         -3   -1    0    0    0  501 -0.00000000000E+00 -0.00000000000E+00 -0.17455612424E+03  0.17455612424E+03  0.00000000000E+00 0.  1.
         24    2    1    2    0    0  0.45280566525E+02  0.11944759682E+03  0.64597146231E+03  0.66338034312E+03  0.80475408883E+02 0.  0.
         23    2    1    2    0    0  0.25449001312E+02  0.23494163558E+03  0.51434817057E+03  0.57338831275E+03  0.91514440583E+02 0.  0.
        -11    1    3    3    0    0  0.15675602187E+02  0.12747841219E+02  0.22871111570E+02  0.30517531095E+02  0.00000000000E+00 0.  1.
         12    1    3    3    0    0  0.29604964338E+02  0.10669975560E+03  0.62310035074E+03  0.63286281203E+03  0.00000000000E+00 0. -1.
        -11    1    4    4    0    0 -0.24105463685E+02  0.52094822341E+02  0.18201894141E+03  0.19085554466E+03  0.00000000000E+00 0.  1.
         11    1    4    4    0    0  0.49554464997E+02  0.18284681323E+03  0.33232922916E+03  0.38253276809E+03  0.00000000000E+00 0. -1.
         21    1    1    2  503  501  0.17237786519E+01  0.38428518218E+02  0.15382438741E+02  0.41428756279E+02  0.00000000000E+00 0.  1.
         -4    1    1    2    0  502 -0.72453346488E+02 -0.39281775062E+03  0.20017965142E+03  0.44679655936E+03  0.00000000000E+00 0.  1.
<scales pt_clust_5="13000.00000" pt_clust_6="13000.00000" pt_clust_7="13000.00000" pt_clust_8="13000.00000" pt_clust_9="38.46718" pt_clust_10="13000.00000"></scales>
<clustering>
<clus scale="   38.467">  1  9  2 -1</clus>
<clus scale="   80.475">  5  6 -1 -1</clus>
<clus scale="   91.514">  7  8 -1 -1</clus>
<clus scale="  164.572">  2  5  1 -1</clus>
<clus scale="  284.090">  7 10 -1 -1</clus>
<clus scale="   38.467">  1  5  2 -1</clus>
</clustering>
</event>
<event>
10    4  0.2759992E-005  0.1216724E+04  0.7546771E-02  0.9632410E-01
          2   -1    0    0  502    0 -0.00000000000E+00  0.00000000000E+00  0.12879466966E+04  0.12879466966E+04  0.00000000000E+00 0. -1.
         21   -1    0    0  503  502  0.00000000000E+00 -0.00000000000E+00 -0.40077229517E+03  0.40077229517E+03  0.00000000000E+00 0. -1.
         24    2    1    2    0    0  0.14655333279E+03 -0.44995289027E+02  0.10324469303E+03  0.20213669152E+03  0.81837155563E+02 0.  0.
         23    2    1    2    0    0 -0.22038047797E+03 -0.44712739675E+03  0.81672905704E+03  0.96136078663E+03  0.93154417259E+02 0.  0.
        -13    1    3    3    0    0  0.13696524935E+03 -0.27167632548E+02  0.11303501845E+03  0.17965098158E+03  0.00000000000E+00 0.  1.
         14    1    3    3    0    0  0.95880834436E+01 -0.17827656479E+02 -0.97903254136E+01  0.22485709937E+02  0.00000000000E+00 0. -1.
        -11    1    4    4    0    0  0.32056029307E+01 -0.34676320872E+02  0.88337905159E+02  0.94954244809E+02  0.00000000000E+00 0.  1.
         11    1    4    4    0    0 -0.22358608090E+03 -0.41245107588E+03  0.72839115188E+03  0.86640654182E+03  0.00000000000E+00 0. -1.
         21    1    1    2  503  501  0.34551856009E+02  0.43290037503E+01 -0.18078601697E+01  0.34868888504E+02  0.00000000000E+00 0. -1.
          1    1    1    2  501    0  0.39275289169E+02  0.48779368203E+03 -0.30991488501E+02  0.49035262509E+03  0.00000000000E+00 0. -1.
<scales pt_clust_5="13000.00000" pt_clust_6="13000.00000" pt_clust_7="13000.00000" pt_clust_8="13000.00000" pt_clust_9="34.82199" pt_clust_10="13000.00000"></scales>
<clustering>
<clus scale="   34.822">  2  9  1 -1</clus>
<clus scale="   81.837">  5  6 -1 -1</clus>
<clus scale="   93.154">  7  8 -1 -1</clus>
<clus scale="  177.424">  1  5  2 -1</clus>
<clus scale="  490.483">  7 10 -1 -1</clus>
<clus scale="   34.822">  2  5  1 -1</clus>
</clustering>
</event>
<event>
10    4  0.2759992E-005  0.1849920E+03  0.7546771E-02  0.1193678E+00
          2   -1    0    0  503    0 -0.00000000000E+00  0.00000000000E+00  0.77066603242E+03  0.77066603242E+03  0.00000000000E+00 0. -1.
         21   -1    0    0  501  502  0.00000000000E+00 -0.00000000000E+00 -0.46714116027E+02  0.46714116027E+02  0.00000000000E+00 0. -1.
         24    2    1    2    0    0 -0.42255245634E+02  0.15421389895E+02  0.51154264246E+03  0.51981770102E+03  0.80692268460E+02 0.  0.
         23    2    1    2    0    0 -0.21469849757E+02 -0.39195914824E+02  0.56658362654E+02  0.11791314025E+03  0.93252691099E+02 0.  0.
        -11    1    3    3    0    0 -0.11897832559E+01  0.42876069965E+02  0.24937570248E+03  0.25303757418E+03  0.00000000000E+00 0.  1.
         12    1    3    3    0    0 -0.41065462378E+02 -0.27454680071E+02  0.26216693998E+03  0.26678012684E+03  0.00000000000E+00 0. -1.
        -13    1    4    4    0    0  0.11595264386E+02  0.25645084558E+02  0.27967455132E+02  0.39677437729E+02  0.00000000000E+00 0.  1.
         13    1    4    4    0    0 -0.33065114144E+02 -0.64840999383E+02  0.28690907522E+02  0.78235702519E+02  0.00000000000E+00 0. -1.
         21    1    1    2  503  502 -0.21283933844E+00  0.20375468014E+02  0.15926882731E+02  0.25862532569E+02  0.00000000000E+00 0.  1.
          1    1    1    2  501    0  0.63937934729E+02  0.33990569159E+01  0.13982402855E+03  0.15378677461E+03  0.00000000000E+00 0. -1.
<scales pt_clust_5="13000.00000" pt_clust_6="13000.00000" pt_clust_7="13000.00000" pt_clust_8="13000.00000" pt_clust_9="20.37658" pt_clust_10="13000.00000"></scales>
<clustering>
<clus scale="   20.377">  2  9  1 -1</clus>
<clus scale="   80.692">  5  6 -1 -1</clus>
<clus scale="   92.751">  1  5  2 -1</clus>
<clus scale="   93.253">  7  8 -1 -1</clus>
<clus scale="   42.081">  7 10 -1 -1</clus>
<clus scale="   20.377">  2  5  1 -1</clus>
</clustering>
</event>
<event>
10    4  0.2759992E-005  0.3112051E+03  0.7546771E-02  0.1108623E+00
         21   -1    0    0  503  502  0.00000000000E+00  0.00000000000E+00  0.17867752299E+03  0.17867752299E+03  0.00000000000E+00 0.  1.
          2   -1    0    0  502    0 -0.00000000000E+00 -0.00000000000E+00 -0.59218463762E+03  0.59218463762E+03  0.00000000000E+00 0. -1.
         24    2    1    2    0    0  0.27214603599E+02  0.10474999306E+03  0.90058654990E+02  0.16223408630E+03  0.80598645910E+02 0.  0.
         23    2    1    2    0    0  0.93383463877E+01  0.49177038845E+02 -0.75063490068E+02  0.13025064110E+03  0.93942089090E+02 0.  0.
        -13    1    3    3    0    0  0.14469469120E+02  0.11650352745E+03  0.81374249663E+02  0.14284329159E+03  0.00000000000E+00 0.  1.
         14    1    3    3    0    0  0.12745134479E+02 -0.11753534385E+02  0.86844053270E+01  0.19390794706E+02  0.00000000000E+00 0. -1.
        -13    1    4    4    0    0 -0.23113970729E+02  0.43975919950E+02 -0.15271983159E+01  0.49703817892E+02  0.00000000000E+00 0.  1.
         13    1    4    4    0    0  0.32452317117E+02  0.52011188950E+01 -0.73536291752E+02  0.80546823207E+02  0.00000000000E+00 0. -1.
         21    1    1    2  503  501  0.14806811487E+02  0.14757323505E+02 -0.79688159118E+01  0.22372355497E+02  0.00000000000E+00 0.  1.
          1    1    1    2  501    0 -0.51359761474E+02 -0.16868435542E+03 -0.42053346364E+03  0.45600507772E+03  0.00000000000E+00 0. -1.
<scales pt_clust_5="13000.00000" pt_clust_6="13000.00000" pt_clust_7="13000.00000" pt_clust_8="13000.00000" pt_clust_9="20.90503" pt_clust_10="13000.00000"></scales>
<clustering>
<clus scale="   20.905">  1  9  2 -1</clus>
<clus scale="   80.599">  5  6 -1 -1</clus>
<clus scale="   93.942">  7  8 -1 -1</clus>
<clus scale="  145.990">  2  5  1 -1</clus>
<clus scale="   77.355">  7 10 -1 -1</clus>
<clus scale="   20.905">  1  5  2 -1</clus>
</clustering>
</event>
<event>
10    4  0.2759992E-005  0.2961583E+03  0.7546771E-02  0.1113972E+00
         21   -1    0    0  501  502  0.00000000000E+00  0.00000000000E+00  0.12431614905E+03  0.12431614905E+03  0.00000000000E+00 0. -1.
          2   -1    0    0  503    0 -0.00000000000E+00 -0.00000000000E+00 -0.84685143484E+03  0.84685143484E+03  0.00000000000E+00 0. -1.
         24    2    1    2    0    0  0.10939215843E+03  0.22748540051E+02 -0.22113214486E+03  0.26021425881E+03  0.79548064694E+02 0.  0.
         23    2    1    2    0    0 -0.13051174579E+02 -0.12460957334E+03 -0.34232537783E+03  0.37566712350E+03  0.90781300093E+02 0.  0.
        -13    1    3    3    0    0  0.44860854225E+02  0.42768402996E+02 -0.14901605724E+03  0.16139212450E+03  0.00000000000E+00 0.  1.
         14    1    3    3    0    0  0.64531304210E+02 -0.20019862945E+02 -0.72116087621E+02  0.98822134308E+02  0.00000000000E+00 0. -1.
        -11    1    4    4    0    0 -0.21435874293E+02 -0.74511445532E+02 -0.29904915452E+03  0.30893664244E+03  0.00000000000E+00 0. -1.
         11    1    4    4    0    0  0.83846997140E+01 -0.50098127805E+02 -0.43276223316E+02  0.66730481067E+02  0.00000000000E+00 0.  1.
         21    1    1    2  503  502  0.33363142003E+02  0.28938465184E+02  0.57509251462E+02  0.72511019957E+02  0.00000000000E+00 0. -1.
          1    1    1    2  501    0 -0.12970412586E+03  0.72922568102E+02 -0.21658701455E+03  0.26277518162E+03  0.00000000000E+00 0. -1.
<scales pt_clust_5="13000.00000" pt_clust_6="13000.00000" pt_clust_7="13000.00000" pt_clust_8="13000.00000" pt_clust_9="44.16485" pt_clust_10="13000.00000"></scales>
<clustering>
<clus scale="   44.165">  1  9  2 -1</clus>
<clus scale="   79.548">  5  6 -1 -1</clus>
<clus scale="   90.781">  7  8 -1 -1</clus>
<clus scale="  143.910">  7 10 -1 -1</clus>
<clus scale="  147.860">  2  5  1 -1</clus>
<clus scale="   44.165">  1  5  2 -1</clus>
</clustering>
</event>
<event>
10    4  0.2759992E-005  0.1578066E+03  0.7546771E-02  0.1204864E+00
         -1   -1    0    0    0  501 -0.00000000000E+00  0.00000000000E+00  0.46180079598E+03  0.46180079598E+03  0.00000000000E+00 0.  1.
         21   -1    0    0  501  502  0.00000000000E+00 -0.00000000000E+00 -0.56417161973E+02  0.56417161973E+02  0.00000000000E+00 0.  1.
         24    2    1    2    0    0  0.32954381038E+02  0.68764787878E+02  0.20431809923E+03  0.23252266428E+03  0.80661740930E+02 0.  0.
         23    2    1    2    0    0 -0.25502200765E+01 -0.48816729044E+02  0.14698468329E+03  0.17817292506E+03  0.88042702405E+02 0.  0.
        -11    1    3    3    0    0  0.58518075515E+02  0.53896463473E+02  0.16636154411E+03  0.18440541558E+03  0.00000000000E+00 0.  1.
         12    1    3    3    0    0 -0.25563694477E+02  0.14868324406E+02  0.37956555123E+02  0.48117248703E+02  0.00000000000E+00 0. -1.
        -13    1    4    4    0    0  0.34283858490E+02  0.56141792769E+01  0.45089246949E+02  0.56920489741E+02  0.00000000000E+00 0.  1.
         13    1    4    4    0    0 -0.36834078567E+02 -0.54430908321E+02  0.10189543634E+03  0.12125243532E+03  0.00000000000E+00 0. -1.
         21    1    1    2  503  502  0.14520808509E+02  0.24673491992E+02  0.98175499120E+01  0.30265811952E+02  0.00000000000E+00 0.  1.
         -2    1    1    2    0  503 -0.44924969471E+02 -0.44621550826E+02  0.44263301574E+02  0.77256556656E+02  0.00000000000E+00 0.  1.
<scales pt_clust_5="13000.00000" pt_clust_6="13000.00000" pt_clust_7="13000.00000" pt_clust_8="13000.00000" pt_clust_9="28.62927" pt_clust_10="13000.00000"></scales>
<clustering>
<clus scale="   28.629">  2  9  1 -1</clus>
<clus scale="   80.662">  5  6 -1 -1</clus>
<clus scale="   88.043">  7  8 -1 -1</clus>
<clus scale="   53.494">  7 10 -1 -1</clus>
<clus scale="  117.156">  1  5  2 -1</clus>
<clus scale="   28.629">  2  5  1 -1</clus>
</clustering>
</event>
<event>
10    4  0.2759992E-005  0.2461606E+03  0.7546771E-02  0.1157099E+00
         21   -1    0    0  501  502  0.00000000000E+00  0.00000000000E+00  0.11132522278E+03  0.11132522278E+03  0.00000000000E+00 0. -1.
          2   -1    0    0  503    0 -0.00000000000E+00 -0.00000000000E+00 -0.10018620846E+04  0.10018620846E+04  0.00000000000E+00 0. -1.
         24    2    1    2    0    0 -0.31361355003E+01  0.18513891224E+02 -0.13798311958E+03  0.16286495267E+03  0.84457397571E+02 0.  0.
         23    2    1    2    0    0 -0.36573813099E+02  0.82162629248E+02 -0.54604695806E+03  0.55924458442E+03  0.80615651973E+02 0.  0.
        -11    1    3    3    0    0  0.34300217738E+02  0.15246087771E+02 -0.28551192603E+02  0.47160563273E+02  0.00000000000E+00 0.  1.
         12    1    3    3    0    0 -0.37436353239E+02  0.32678034531E+01 -0.10943192698E+03  0.11570438940E+03  0.00000000000E+00 0. -1.
        -11    1    4    4    0    0  0.21863885848E+02  0.46976805506E+02 -0.20537933828E+03  0.21181483035E+03  0.00000000000E+00 0. -1.
         11    1    4    4    0    0 -0.58437698947E+02  0.35185823742E+02 -0.34066761977E+03  0.34742975407E+03  0.00000000000E+00 0.  1.
         21    1    1    2  503  502  0.55396907130E+02  0.17445110153E+02  0.69425770669E+02  0.90515671686E+02  0.00000000000E+00 0. -1.
          1    1    1    2  501    0 -0.15686958531E+02 -0.11812163062E+03 -0.27593255481E+03  0.30056209856E+03  0.00000000000E+00 0. -1.
<scales pt_clust_5="13000.00000" pt_clust_6="13000.00000" pt_clust_7="13000.00000" pt_clust_8="13000.00000" pt_clust_9="58.07882" pt_clust_10="13000.00000"></scales>
<clustering>
<clus scale="   58.079">  1  9  2 -1</clus>
<clus scale="   80.616">  7  8 -1 -1</clus>
<clus scale="   84.457">  5  6 -1 -1</clus>
<clus scale="   90.195">  2  5  1 -1</clus>
<clus scale="  103.795">  7 10 -1 -1</clus>
<clus scale="   58.079">  1  5  2 -1</clus>
</clustering>
</event>
<event>
10    4  0.2759992E-005  0.2648719E+03  0.7546771E-02  0.1126564E+00
         -1   -1    0    0    0  501 -0.00000000000E+00  0.00000000000E+00  0.61791940870E+03  0.61791940870E+03  0.00000000000E+00 0.  1.
         21   -1    0    0  503  502  0.00000000000E+00 -0.00000000000E+00 -0.15828920525E+03  0.15828920525E+03  0.00000000000E+00 0. -1.
         24    2    1    2    0    0 -0.61633526614E+02  0.10771082666E+03  0.12732532447E+03  0.19515833580E+03  0.80465669680E+02 0.  0.
         23    2    1    2    0    0  0.66893199561E+02 -0.10690357333E+03  0.43378708499E+03  0.46081915400E+03  0.90994414438E+02 0.  0.
        -11    1    3    3    0    0 -0.20322178626E+02  0.96312848715E+02  0.59777276598E+02  0.11516283502E+03  0.00000000000E+00 0.  1.
         12    1    3    3    0    0 -0.41311347988E+02  0.11397977946E+02  0.67548047871E+02  0.79995500780E+02  0.00000000000E+00 0. -1.
        -13    1    4    4    0    0  0.64003598747E+02 -0.63482936256E+02  0.38513646148E+03  0.39554599961E+03  0.00000000000E+00 0.  1.
         13    1    4    4    0    0  0.28896008135E+01 -0.43420637073E+02  0.48650623504E+02  0.65273154389E+02  0.00000000000E+00 0. -1.
         21    1    1    2  503  501 -0.29551852762E+02 -0.10078208498E+02 -0.81992801816E+02  0.87736547902E+02  0.00000000000E+00 0. -1.
         -2    1    1    2    0  502  0.24292179815E+02  0.92709551662E+01 -0.19489404185E+02  0.32494576245E+02  0.00000000000E+00 0.  1.
<scales pt_clust_5="13000.00000" pt_clust_6="13000.00000" pt_clust_7="13000.00000" pt_clust_8="13000.00000" pt_clust_9="31.22311" pt_clust_10="13000.00000"></scales>
<clustering>
<clus scale="   31.223">  2  9  1 -1</clus>
<clus scale="   80.466">  5  6 -1 -1</clus>
<clus scale="   90.994">  7  8 -1 -1</clus>
<clus scale="   14.961">  7 10 -1 -1</clus>
<clus scale="  150.874">  1  5  2 -1</clus>
<clus scale="   31.223">  2  5  1 -1</clus>
</clustering>
</event>
<event>
10    4  0.2759992E-005  0.4731151E+03  0.7546771E-02  0.1044165E+00
          2   -1    0    0  502    0 -0.00000000000E+00  0.00000000000E+00  0.21784312749E+04  0.21784312749E+04  0.00000000000E+00 0. -1.
         21   -1    0    0  503  502  0.00000000000E+00 -0.00000000000E+00 -0.10262207176E+03  0.10262207176E+03  0.00000000000E+00 0. -1.
         24    2    1    2    0    0 -0.21595900022E+03  0.13717908945E+02  0.84857317559E+03  0.87948035335E+03  0.81134374943E+02 0.  0.
         23    2    1    2    0    0  0.16157828896E+02  0.15262892861E+03  0.33640021633E+03  0.38195076522E+03  0.95732002090E+02 0.  0.
        -13    1    3    3    0    0 -0.11142112350E+03  0.73697423973E+01  0.28189964059E+03  0.30321013708E+03  0.00000000000E+00 0.  1.
         14    1    3    3    0    0 -0.10453787672E+03  0.63481665481E+01  0.56667353500E+03  0.57627021626E+03  0.00000000000E+00 0. -1.
        -11    1    4    4    0    0 -0.19011149827E+02  0.26188170483E+02  0.15327062890E+03  0.15664970403E+03  0.00000000000E+00 0.  1.
         11    1    4    4    0    0  0.35168978723E+02  0.12644075813E+03  0.18312958743E+03  0.22530106119E+03  0.00000000000E+00 0. -1.
         21    1    1    2  503  501 -0.32714543210E+02  0.80173645609E+01 -0.35397712774E+02  0.48862230215E+02  0.00000000000E+00 0. -1.
          1    1    1    2  501    0  0.23251571453E+03 -0.17436420212E+03  0.92623352404E+03  0.97075999791E+03  0.00000000000E+00 0. -1.
<scales pt_clust_5="13000.00000" pt_clust_6="13000.00000" pt_clust_7="13000.00000" pt_clust_8="13000.00000" pt_clust_9="33.68263" pt_clust_10="13000.00000"></scales>
<clustering>
<clus scale="   33.683">  2  9  1 -1</clus>
<clus scale="   81.134">  5  6 -1 -1</clus>
<clus scale="   95.732">  7  8 -1 -1</clus>
<clus scale="  239.059">  1  5  2 -1</clus>
<clus scale="  172.238">  7 10 -1 -1</clus>
<clus scale="   33.683">  2  5  1 -1</clus>
</clustering>
</event>
<event>
10    4  0.2759992E-005  0.4421476E+03  0.7546771E-02  0.1083092E+00
         21   -1    0    0  503  502  0.00000000000E+00  0.00000000000E+00  0.42710317560E+03  0.42710317560E+03  0.00000000000E+00 0. -1.
          2   -1    0    0  502    0 -0.00000000000E+00 -0.00000000000E+00 -0.65650211787E+03  0.65650211787E+03  0.00000000000E+00 0. -1.
         24    2    1    2    0    0  0.91304577949E+02 -0.96907493228E+01 -0.53351104937E+02  0.13356039843E+03  0.81003722476E+02 0.  0.
         23    2    1    2    0    0 -0.18096538015E+03 -0.41897850880E+02 -0.33881681735E+03  0.39716909596E+03  0.91883384481E+02 0.  0.
        -13    1    3    3    0    0  0.50823757751E+02  0.34696285984E+02 -0.19229717208E+02  0.64472231518E+02  0.00000000000E+00 0.  1.
         14    1    3    3    0    0  0.40480820199E+02 -0.44387035307E+02 -0.34121387729E+02  0.69088166916E+02  0.00000000000E+00 0. -1.
        -11    1    4    4    0    0 -0.11813104023E+03  0.16988223034E+02 -0.17074640644E+03  0.20832157281E+03  0.00000000000E+00 0. -1.
         11    1    4    4    0    0 -0.62834339922E+02 -0.58886073914E+02 -0.16807041091E+03  0.18884752315E+03  0.00000000000E+00 0.  1.
         21    1    1    2  503  501 -0.11054282235E+03 -0.11036403456E+01  0.28967509013E+03  0.31005256238E+03  0.00000000000E+00 0. -1.
          1    1    1    2  501    0  0.20020362455E+03  0.52692240548E+02 -0.12690611010E+03  0.24282323670E+03  0.00000000000E+00 0. -1.
<scales pt_clust_5="13000.00000" pt_clust_6="13000.00000" pt_clust_7="13000.00000" pt_clust_8="13000.00000" pt_clust_9="110.54833" pt_clust_10="13000.00000"></scales>
<clustering>
<clus scale="   81.004">  5  6 -1 -1</clus>
<clus scale="   91.883">  7  8 -1 -1</clus>
<clus scale="  110.548">  1  9  2 -1</clus>
<clus scale="   99.249">  2  5  1 -1</clus>
<clus scale="  169.588">  7 10 -1 -1</clus>
<clus scale="  110.548">  1  5  2 -1</clus>
</clustering>
</event>
<event>
10    4  0.2759992E-005  0.2577496E+03  0.7546771E-02  0.1145769E+00
          2   -1    0    0  503    0 -0.00000000000E+00  0.00000000000E+00  0.14748794887E+04  0.14748794887E+04  0.00000000000E+00 0. -1.
         21   -1    0    0  501  502  0.00000000000E+00 -0.00000000000E+00 -0.17900943810E+03  0.17900943810E+03  0.00000000000E+00 0.  1.
         24    2    1    2    0    0  0.12122681988E+02 -0.60149024495E+02  0.38358903932E+03  0.39709761372E+03  0.82347429634E+02 0.  0.
         23    2    1    2    0    0  0.71856133523E+02  0.39782635112E+02  0.70330013966E+03  0.71404111456E+03  0.92074235566E+02 0.  0.
        -13    1    3    3    0    0 -0.23065903171E+02 -0.63134578172E+02  0.24067123531E+03  0.24988128052E+03  0.00000000000E+00 0.  1.
         14    1    3    3    0    0  0.35188585159E+02  0.29855536766E+01  0.14291780401E+03  0.14721633320E+03  0.00000000000E+00 0. -1.
        -11    1    4    4    0    0  0.36316893240E+02  0.68394527931E+02  0.46691540852E+03  0.47329348917E+03  0.00000000000E+00 0.  1.
         11    1    4    4    0    0  0.35539240283E+02 -0.28611892820E+02  0.23638473114E+03  0.24074762539E+03  0.00000000000E+00 0. -1.
         21    1    1    2  503  502 -0.17192632415E+03  0.77347526270E+02 -0.10216786475E+03  0.21442848072E+03  0.00000000000E+00 0.  1.
          1    1    1    2  501    0  0.87947508639E+02 -0.56981136886E+02  0.31114873635E+03  0.32832171779E+03  0.00000000000E+00 0. -1.
<scales pt_clust_5="13000.00000" pt_clust_6="13000.00000" pt_clust_7="13000.00000" pt_clust_8="13000.00000" pt_clust_9="186.69247" pt_clust_10="13000.00000"></scales>
<clustering>
<clus scale="   82.347">  5  6 -1 -1</clus>
<clus scale="   92.074">  7  8 -1 -1</clus>
<clus scale="  102.694">  1  5  2 -1</clus>
<clus scale="  118.145">  7 10 -1 -1</clus>
<clus scale="  186.692">  2  9  1 -1</clus>
<clus scale="  186.692">  2  5  1 -1</clus>
</clustering>
</event>
<event>
10    4  0.2759992E-005  0.2453552E+03  0.7546771E-02  0.1135904E+00
         21   -1    0    0  503  502  0.00000000000E+00  0.00000000000E+00  0.52366632237E+02  0.52366632237E+02  0.00000000000E+00 0. -1.
          2   -1    0    0  502    0 -0.00000000000E+00 -0.00000000000E+00 -0.12436838736E+04  0.12436838736E+04  0.00000000000E+00 0. -1.
         24    2    1    2    0    0  0.13241294291E+03  0.10021293567E+02 -0.58098072501E+03  0.60142539986E+03  0.80872090279E+02 0.  0.
         23    2    1    2    0    0 -0.69417486452E+02  0.94530187371E+02 -0.30410071415E+03  0.33837890526E+03  0.90930167841E+02 0.  0.
        -11    1    3    3    0    0  0.56864865502E+02 -0.35117931533E+02 -0.27807585404E+03  0.28599486472E+03  0.00000000000E+00 0.  1.
         12    1    3    3    0    0  0.75548077407E+02  0.45139225100E+02 -0.30290487097E+03  0.31543053514E+03  0.00000000000E+00 0. -1.
        -11    1    4    4    0    0  0.21960666954E+02  0.21789250151E+02 -0.77574429181E+02  0.83515473883E+02  0.00000000000E+00 0.  1.
         11    1    4    4    0    0 -0.91378153405E+02  0.72740937220E+02 -0.22652628497E+03  0.25486343137E+03  0.00000000000E+00 0. -1.
         21    1    1    2  503  501 -0.15906699001E+02 -0.33911747821E+02  0.10266880273E+01  0.37471106224E+02  0.00000000000E+00 0. -1.
          1    1    1    2  501    0 -0.47088757456E+02 -0.70639733117E+02 -0.30726249025E+03  0.31877509453E+03  0.00000000000E+00 0. -1.
<scales pt_clust_5="13000.00000" pt_clust_6="13000.00000" pt_clust_7="13000.00000" pt_clust_8="13000.00000" pt_clust_9="37.45704" pt_clust_10="13000.00000"></scales>
<clustering>
<clus scale="   37.457">  1  9  2 -1</clus>
<clus scale="   80.872">  5  6 -1 -1</clus>
<clus scale="   90.930">  7  8 -1 -1</clus>
<clus scale="   91.339">  7 10 -1 -1</clus>
<clus scale="  150.989">  2  5  1 -1</clus>
<clus scale="   37.457">  1  5  2 -1</clus>
</clustering>
</event>
<event>
10    4  0.2759992E-005  0.2995625E+03  0.7546771E-02  0.1102536E+00
          2   -1    0    0  503    0 -0.00000000000E+00  0.00000000000E+00  0.25370674030E+03  0.25370674030E+03  0.00000000000E+00 0. -1.
         21   -1    0    0  501  502  0.00000000000E+00 -0.00000000000E+00 -0.38812045290E+03  0.38812045290E+03  0.00000000000E+00 0.  1.
         24    2    1    2    0    0  0.12716538141E+03  0.14192819270E+03 -0.12433874162E+03  0.24136889555E+03  0.80524374919E+02 0.  0.
         23    2    1    2    0    0  0.28485984407E+02  0.29567915423E+02  0.14788737289E+02  0.89878678004E+02  0.78573259313E+02 0.  0.
        -11    1    3    3    0    0  0.38400011921E+01  0.56705326480E+02 -0.30302116145E+02  0.64408523529E+02  0.00000000000E+00 0.  1.
         12    1    3    3    0    0  0.12332538022E+03  0.85222866223E+02 -0.94036625480E+02  0.17696037202E+03  0.00000000000E+00 0. -1.
        -11    1    4    4    0    0  0.42620129932E+02 -0.87126168072E+01 -0.62826697371E+01  0.43952896447E+02  0.00000000000E+00 0.  1.
         11    1    4    4    0    0 -0.14134145525E+02  0.38280532231E+02  0.21071407026E+02  0.45925781557E+02  0.00000000000E+00 0. -1.
         21    1    1    2  503  502 -0.32816018701E+01 -0.34878063136E+02 -0.89381803294E+02  0.96001848728E+02  0.00000000000E+00 0.  1.
          1    1    1    2  501    0 -0.15236976395E+03 -0.13661804499E+03  0.64518095030E+02  0.21457777091E+03  0.00000000000E+00 0. -1.
<scales pt_clust_5="13000.00000" pt_clust_6="13000.00000" pt_clust_7="13000.00000" pt_clust_8="13000.00000" pt_clust_9="35.03210" pt_clust_10="13000.00000"></scales>
<clustering>
<clus scale="   35.032">  2  9  1 -1</clus>
<clus scale="   78.573">  7  8 -1 -1</clus>
<clus scale="   80.524">  5  6 -1 -1</clus>
<clus scale="  191.376">  1  5  2 -1</clus>
<clus scale="   82.281">  7 10 -1 -1</clus>
<clus scale="   35.032">  2  5  1 -1</clus>
</clustering>
</event>
<event>
10    4  0.2759992E-005  0.3326615E+03  0.7546771E-02  0.1089701E+00
         21   -1    0    0  503  502  0.00000000000E+00  0.00000000000E+00  0.45182230102E+03  0.45182230102E+03  0.00000000000E+00 0. -1.
          2   -1    0    0  502    0 -0.00000000000E+00 -0.00000000000E+00 -0.28837402219E+03  0.28837402219E+03  0.00000000000E+00 0. -1.
         24    2    1    2    0    0  0.17662497045E+03 -0.48866294848E+02 -0.24462064886E+02  0.20180845010E+03  0.80894764696E+02 0.  0.
         23    2    1    2    0    0 -0.67066895362E+02 -0.92508371643E+02 -0.91790940901E+02  0.17229690719E+03  0.90580793319E+02 0.  0.
        -11    1    3    3    0    0  0.16110837630E+03 -0.26390043053E+02 -0.42970496026E+02  0.16881589621E+03  0.00000000000E+00 0.  1.
         12    1    3    3    0    0  0.15516594154E+02 -0.22476251794E+02  0.18508431140E+02  0.32992553889E+02  0.00000000000E+00 0. -1.
        -13    1    4    4    0    0 -0.82581997559E+02 -0.53303271525E+02 -0.41560446547E+02  0.10671595847E+03  0.00000000000E+00 0.  1.
         13    1    4    4    0    0  0.15515102196E+02 -0.39205100118E+02 -0.50230494354E+02  0.65580948715E+02  0.00000000000E+00 0. -1.
         21    1    1    2  503  501 -0.30801998886E+01  0.55226852387E+02  0.20025517667E+03  0.20775376925E+03  0.00000000000E+00 0. -1.
          1    1    1    2  501    0 -0.10647787520E+03  0.86147814103E+02  0.79446107951E+02  0.15833719667E+03  0.00000000000E+00 0. -1.
<scales pt_clust_5="13000.00000" pt_clust_6="13000.00000" pt_clust_7="13000.00000" pt_clust_8="13000.00000" pt_clust_9="55.31268" pt_clust_10="13000.00000"></scales>
<clustering>
<clus scale="   55.313">  1  9  2 -1</clus>
<clus scale="   80.895">  5  6 -1 -1</clus>
<clus scale="   90.581">  7  8 -1 -1</clus>
<clus scale="  156.022">  7 10 -1 -1</clus>
<clus scale="  195.447">  2  5  1 -1</clus>
<clus scale="   55.313">  1  5  2 -1</clus>
</clustering>
</event>
<event>
10    4  0.2759992E-005  0.3280941E+03  0.7546771E-02  0.1120023E+00
         21   -1    0    0  501  502  0.00000000000E+00  0.00000000000E+00  0.17782811398E+03  0.17782811398E+03  0.00000000000E+00 0.  1.
          2   -1    0    0  503    0 -0.00000000000E+00 -0.00000000000E+00 -0.51030135502E+03  0.51030135502E+03  0.00000000000E+00 0. -1.
         24    2    1    2    0    0  0.36685787825E+02  0.30883175511E+02 -0.29666766907E+03  0.31083180109E+03  0.79404566243E+02 0.  0.
         23    2    1    2    0    0 -0.14534487105E+03 -0.12530846324E+03 -0.37766315453E+02  0.21651009712E+03  0.92860029477E+02 0.  0.
        -13    1    3    3    0    0 -0.19718309432E+02  0.15685222825E+02 -0.37610931193E+02  0.45270521172E+02  0.00000000000E+00 0.  1.
         14    1    3    3    0    0  0.56404097257E+02  0.15197952686E+02 -0.25905673788E+03  0.26556127992E+03  0.00000000000E+00 0. -1.
        -13    1    4    4    0    0 -0.92042750594E+02 -0.11640627820E+03  0.36189046875E+01  0.14844320804E+03  0.00000000000E+00 0. -1.
         13    1    4    4    0    0 -0.53302120453E+02 -0.89021850327E+01 -0.41385220141E+02  0.68066889082E+02  0.00000000000E+00 0.  1.
         21    1    1    2  503  502  0.79861551602E+01  0.29522418868E+02  0.24150036067E+02  0.38968912380E+02  0.00000000000E+00 0. -1.
          1    1    1    2  501    0  0.10067292806E+03  0.64902868857E+02 -0.22189292586E+02  0.12181865841E+03  0.00000000000E+00 0. -1.
<scales pt_clust_5="13000.00000" pt_clust_6="13000.00000" pt_clust_7="13000.00000" pt_clust_8="13000.00000" pt_clust_9="30.58352" pt_clust_10="13000.00000"></scales>
<clustering>
<clus scale="   30.584">  1  9  2 -1</clus>
<clus scale="   79.405">  5  6 -1 -1</clus>
<clus scale="   92.860">  7  8 -1 -1</clus>
<clus scale="   93.400">  2  5  1 -1</clus>
<clus scale="  148.585">  7 10 -1 -1</clus>
<clus scale="   30.584">  1  5  2 -1</clus>
</clustering>
</event>
<event>
10    4  0.2759992E-005  0.4505540E+03  0.7546771E-02  0.1032892E+00
         21   -1    0    0  501  502  0.00000000000E+00  0.00000000000E+00  0.83775058221E+03  0.83775058221E+03  0.00000000000E+00 0.  1.
          2   -1    0    0  503    0 -0.00000000000E+00 -0.00000000000E+00 -0.25179374980E+03  0.25179374980E+03  0.00000000000E+00 0. -1.
         24    2    1    2    0    0  0.33966652062E+03 -0.90250096216E+02  0.20514302806E+03  0.41489761318E+03  0.80857543665E+02 0.  0.
         23    2    1    2    0    0 -0.11484042103E+03 -0.52121548986E+01  0.19477787966E+03  0.24362796959E+03  0.90557585560E+02 0.  0.
        -11    1    3    3    0    0  0.29385198245E+03 -0.62783439611E+02  0.14246830714E+03  0.33254769045E+03  0.00000000000E+00 0.  1.
         12    1    3    3    0    0  0.45814538162E+02 -0.27466656605E+02  0.62674720922E+02  0.82349922737E+02  0.00000000000E+00 0. -1.
        -11    1    4    4    0    0 -0.53070999985E+02  0.38479728482E+02  0.59006673608E+02  0.88198685215E+02  0.00000000000E+00 0.  1.
         11    1    4    4    0    0 -0.61769421046E+02 -0.43691883381E+02  0.13577120605E+03  0.15542928438E+03  0.00000000000E+00 0. -1.
         21    1    1    2  503  502  0.62648693026E+02  0.13500278582E+02  0.10206671302E+03  0.12051858847E+03  0.00000000000E+00 0.  1.
          1    1    1    2  501    0 -0.28747479261E+03  0.81961972533E+02  0.83969211667E+02  0.31050016077E+03  0.00000000000E+00 0. -1.
<scales pt_clust_5="13000.00000" pt_clust_6="13000.00000" pt_clust_7="13000.00000" pt_clust_8="13000.00000" pt_clust_9="64.08679" pt_clust_10="13000.00000"></scales>
<clustering>
<clus scale="   64.087">  1  9  2 -1</clus>
<clus scale="   80.858">  5  6 -1 -1</clus>
<clus scale="   90.558">  7  8 -1 -1</clus>
<clus scale="  283.697">  7 10 -1 -1</clus>
<clus scale="  384.613">  2  5  1 -1</clus>
<clus scale="   64.087">  1  5  2 -1</clus>
</clustering>
</event>
<event>
10    4  0.2759992E-005  0.2692604E+03  0.7546771E-02  0.1142001E+00
          2   -1    0    0  503    0 -0.00000000000E+00  0.00000000000E+00  0.23838081760E+03  0.23838081760E+03  0.00000000000E+00 0. -1.
         21   -1    0    0  501  502  0.00000000000E+00 -0.00000000000E+00 -0.88567163764E+03  0.88567163764E+03  0.00000000000E+00 0. -1.
         24    2    1    2    0    0  0.28270834958E+02  0.50703666436E+02  0.19144914120E+03  0.21566285555E+03  0.80545587696E+02 0.  0.
         23    2    1    2    0    0 -0.75945422309E+02 -0.16625787578E+02 -0.17146076097E+03  0.20943633459E+03  0.91764163544E+02 0.  0.
        -11    1    3    3    0    0  0.39330298425E+02  0.43783355441E+02  0.61733867008E+02  0.85293170440E+02  0.00000000000E+00 0.  1.
         12    1    3    3    0    0 -0.11059463468E+02  0.69203109958E+01  0.12971527419E+03  0.13036968511E+03  0.00000000000E+00 0. -1.
        -13    1    4    4    0    0  0.14135228129E+02  0.18185527101E+02 -0.24906377069E+02  0.33924116626E+02  0.00000000000E+00 0.  1.
         13    1    4    4    0    0 -0.90080650438E+02 -0.34811314679E+02 -0.14655438390E+03  0.17551221796E+03  0.00000000000E+00 0. -1.
         21    1    1    2  503  502 -0.47449115490E+02 -0.59909258493E+02 -0.11587034371E+03  0.13880372605E+03  0.00000000000E+00 0.  1.
          1    1    1    2  501    0  0.95123702841E+02  0.25831379635E+02 -0.55140885656E+03  0.56014953906E+03  0.00000000000E+00 0. -1.
<scales pt_clust_5="13000.00000" pt_clust_6="13000.00000" pt_clust_7="13000.00000" pt_clust_8="13000.00000" pt_clust_9="76.42341" pt_clust_10="13000.00000"></scales>
<clustering>
<clus scale="   76.423">  2  9  1 -1</clus>
<clus scale="   80.546">  5  6 -1 -1</clus>
<clus scale="   91.764">  7  8 -1 -1</clus>
<clus scale="   62.997">  7 10 -1 -1</clus>
<clus scale="   98.587">  1  5  2 -1</clus>
<clus scale="   76.423">  2  5  1 -1</clus>
</clustering>
</event>
<event>
10    4  0.2759992E-005  0.3171998E+03  0.7546771E-02  0.1122389E+00
         21   -1    0    0  503  502  0.00000000000E+00  0.00000000000E+00  0.15483060318E+03  0.15483060318E+03  0.00000000000E+00 0.  1.
          2   -1    0    0  502    0 -0.00000000000E+00 -0.00000000000E+00 -0.11769142413E+04  0.11769142413E+04  0.00000000000E+00 0. -1.
         24    2    1    2    0    0  0.13759580260E+03  0.28084279135E+03 -0.21599364257E+03  0.38837204632E+03  0.79839303477E+02 0.  0.
         23    2    1    2    0    0  0.58891414698E+02  0.12961051223E+02 -0.15548085576E+03  0.18890730187E+03  0.88743927211E+02 0.  0.
        -13    1    3    3    0    0  0.13257412235E+03  0.23467885599E+03 -0.20971759136E+03  0.34151358902E+03  0.00000000000E+00 0.  1.
         14    1    3    3    0    0  0.50216802533E+01  0.46163935366E+02 -0.62760512185E+01  0.46858457294E+02  0.00000000000E+00 0. -1.
        -13    1    4    4    0    0  0.71015994117E+02  0.35175802261E+02 -0.13414368291E+03  0.15580480143E+03  0.00000000000E+00 0. -1.
         13    1    4    4    0    0 -0.12124579420E+02 -0.22214751038E+02 -0.21337172857E+02  0.33102500439E+02  0.00000000000E+00 0.  1.
         21    1    1    2  503  501 -0.15449018321E+03 -0.27703504487E+03 -0.46132076961E+03  0.55985041329E+03  0.00000000000E+00 0. -1.
          1    1    1    2  501    0 -0.41997034094E+02 -0.16768797702E+02 -0.18928837020E+03  0.19461508302E+03  0.00000000000E+00 0. -1.
<scales pt_clust_5="13000.00000" pt_clust_6="13000.00000" pt_clust_7="13000.00000" pt_clust_8="13000.00000" pt_clust_9="317.19983" pt_clust_10="13000.00000"></scales>
<clustering>
<clus scale="   79.839">  5  6 -1 -1</clus>
<clus scale="   88.744">  7  8 -1 -1</clus>
<clus scale="   45.221">  7 10 -1 -1</clus>
<clus scale="  317.200">  1  9  2 -1</clus>
<clus scale="   97.433">  2  5  1 -1</clus>
<clus scale="  317.200">  1  5  2 -1</clus>
</clustering>
</event>
<event>
10    4  0.2759992E-005  0.2331808E+03  0.7546771E-02  0.1150489E+00
          2   -1    0    0  503    0 -0.00000000000E+00  0.00000000000E+00  0.41313258174E+03  0.41313258174E+03  0.00000000000E+00 0. -1.
         21   -1    0    0  501  502  0.00000000000E+00 -0.00000000000E+00 -0.12784125013E+03  0.12784125013E+03  0.00000000000E+00 0. -1.
         24    2    1    2    0    0 -0.58586064846E+02  0.93597854066E+02  0.49921487581E+02  0.14543175504E+03  0.80407432315E+02 0.  0.
         23    2    1    2    0    0 -0.19545845835E+02  0.73476732034E+01  0.31982923414E+02  0.98980436432E+02  0.91313695660E+02 0.  0.
        -13    1    3    3    0    0  0.94232108707E+01  0.56094740016E+02  0.33624826722E+02  0.66076060208E+02  0.00000000000E+00 0.  1.
         14    1    3    3    0    0 -0.68009275716E+02  0.37503114050E+02  0.16296660859E+02  0.79355694831E+02  0.00000000000E+00 0. -1.
        -11    1    4    4    0    0  0.28046912970E+02  0.56768002992E+01 -0.14806030670E+02  0.32219154753E+02  0.00000000000E+00 0. -1.
         11    1    4    4    0    0 -0.47592758806E+02  0.16708729042E+01  0.46788954085E+02  0.66761281678E+02  0.00000000000E+00 0.  1.
         21    1    1    2  503  502 -0.24377457574E+02 -0.62258817107E+02  0.15218607063E+01  0.66878522751E+02  0.00000000000E+00 0. -1.
          1    1    1    2  501    0  0.10250936825E+03 -0.38686710163E+02  0.20186505991E+03  0.22968311765E+03  0.00000000000E+00 0. -1.
<scales pt_clust_5="13000.00000" pt_clust_6="13000.00000" pt_clust_7="13000.00000" pt_clust_8="13000.00000" pt_clust_9="66.86121" pt_clust_10="13000.00000"></scales>
<clustering>
<clus scale="   66.861">  2  9  1 -1</clus>
<clus scale="   80.407">  5  6 -1 -1</clus>
<clus scale="   91.314">  7  8 -1 -1</clus>
<clus scale="  109.881">  7 10 -1 -1</clus>
<clus scale="  123.971">  1  5  2 -1</clus>
<clus scale="   66.861">  2  5  1 -1</clus>
</clustering>
</event>
<event>
10    4  0.2759992E-005  0.3437602E+03  0.7546771E-02  0.1115041E+00
         21   -1    0    0  503  502  0.00000000000E+00  0.00000000000E+00  0.23461873034E+03  0.23461873034E+03  0.00000000000E+00 0. -1.
          2   -1    0    0  502    0 -0.00000000000E+00 -0.00000000000E+00 -0.54080630563E+03  0.54080630563E+03  0.00000000000E+00 0. -1.
         24    2    1    2    0    0  0.39669498326E+02  0.10930415270E+02 -0.77633614583E+02  0.11796814193E+03  0.78716969718E+02 0.  0.
         23    2    1    2    0    0 -0.36142021087E+02 -0.10889107717E+03 -0.38427914187E+03  0.41158619477E+03  0.92570105694E+02 0.  0.
        -13    1    3    3    0    0  0.34490230294E+02  0.19516626969E+02 -0.92158726509E+02  0.10031802224E+03  0.00000000000E+00 0.  1.
         14    1    3    3    0    0  0.51792680325E+01 -0.85862116981E+01  0.14525111926E+02  0.17650119692E+02  0.00000000000E+00 0. -1.
        -13    1    4    4    0    0 -0.60693485948E+02 -0.10581754762E+03 -0.33322964078E+03  0.35485637393E+03  0.00000000000E+00 0. -1.
         13    1    4    4    0    0  0.24551464861E+02 -0.30735295441E+01 -0.51049501090E+02  0.56729820837E+02  0.00000000000E+00 0.  1.
         21    1    1    2  503  501  0.28218053293E+02  0.55024501899E+01  0.14466111339E+03  0.14749024787E+03  0.00000000000E+00 0. -1.
          1    1    1    2  501    0 -0.31745530532E+02  0.92458211708E+02  0.11064067774E+02  0.98380451395E+02  0.00000000000E+00 0. -1.
<scales pt_clust_5="13000.00000" pt_clust_6="13000.00000" pt_clust_7="13000.00000" pt_clust_8="13000.00000" pt_clust_9="28.74953" pt_clust_10="13000.00000"></scales>
<clustering>
<clus scale="   28.750">  1  9  2 -1</clus>
<clus scale="   78.717">  5  6 -1 -1</clus>
<clus scale="   92.031">  2  5  1 -1</clus>
<clus scale="   92.570">  7  8 -1 -1</clus>
<clus scale="   97.591">  7 10 -1 -1</clus>
<clus scale="   28.750">  1  5  2 -1</clus>
</clustering>
</event>
<event>
10    4  0.2759992E-005  0.4027862E+03  0.7546771E-02  0.1084522E+00
         21   -1    0    0  503  502  0.00000000000E+00  0.00000000000E+00  0.18261540882E+03  0.18261540882E+03  0.00000000000E+00 0. -1.
          2   -1    0    0  502    0 -0.00000000000E+00 -0.00000000000E+00 -0.14016518806E+04  0.14016518806E+04  0.00000000000E+00 0. -1.
         24    2    1    2    0    0  0.95491892679E+02 -0.23742671380E+02 -0.14484026981E+03  0.19220905831E+03  0.79266653311E+02 0.  0.
         23    2    1    2    0    0  0.59434607743E+02  0.14231461771E+03 -0.28285517273E+03  0.33540294803E+03  0.93285399677E+02 0.  0.
        -13    1    3    3    0    0  0.23636826824E+02  0.27207932371E+02 -0.26743776559E+02  0.44879847938E+02  0.00000000000E+00 0.  1.
         14    1    3    3    0    0  0.71855065855E+02 -0.50950603752E+02 -0.11809649325E+03  0.14732921038E+03  0.00000000000E+00 0. -1.
        -11    1    4    4    0    0  0.76402165908E+02  0.70727047802E+02 -0.19280982513E+03  0.21912378901E+03  0.00000000000E+00 0. -1.
         11    1    4    4    0    0 -0.16967558166E+02  0.71587569912E+02 -0.90045347604E+02  0.11627915901E+03  0.00000000000E+00 0.  1.
         21    1    1    2  503  501 -0.29401284142E+02 -0.30157658953E+03 -0.82714937916E+02  0.31409335526E+03  0.00000000000E+00 0. -1.
          1    1    1    2  501    0 -0.12552521628E+03  0.18300464320E+03 -0.70862609128E+03  0.74256192778E+03  0.00000000000E+00 0. -1.
<scales pt_clust_5="13000.00000" pt_clust_6="13000.00000" pt_clust_7="13000.00000" pt_clust_8="13000.00000" pt_clust_9="305.71910" pt_clust_10="13000.00000"></scales>
<clustering>
<clus scale="   79.267">  5  6 -1 -1</clus>
<clus scale="   93.285">  7  8 -1 -1</clus>
<clus scale="  126.355">  2  5  1 -1</clus>
<clus scale="  182.702">  7 10 -1 -1</clus>
<clus scale="  305.719">  1  9  2 -1</clus>
<clus scale="  305.719">  1  5  2 -1</clus>
</clustering>
</event>
<event>
10    4  0.2759992E-005  0.5451522E+03  0.7546771E-02  0.1064387E+00
          2   -1    0    0  503    0 -0.00000000000E+00  0.00000000000E+00  0.26303521010E+04  0.26303521010E+04  0.00000000000E+00 0. -1.
         21   -1    0    0  501  502  0.00000000000E+00 -0.00000000000E+00 -0.68018611163E+02  0.68018611163E+02  0.00000000000E+00 0. -1.
         24    2    1    2    0    0  0.33816165233E+02 -0.25044949586E+02  0.47694138691E+03  0.48502285843E+03  0.77480992004E+02 0.  0.
         23    2    1    2    0    0  0.78372891391E+02 -0.16278416695E+03  0.48414829492E+03  0.52520018947E+03  0.93779914841E+02 0.  0.
        -13    1    3    3    0    0  0.32354710728E+02  0.21845795259E+02  0.16387302859E+03  0.16845900265E+03  0.00000000000E+00 0.  1.
         14    1    3    3    0    0  0.14614545049E+01 -0.46890744846E+02  0.31306835832E+03  0.31656385578E+03  0.00000000000E+00 0. -1.
        -13    1    4    4    0    0  0.85532267210E+01 -0.67025511496E+02  0.28977124535E+03  0.29754487311E+03  0.00000000000E+00 0.  1.
         13    1    4    4    0    0  0.69819664670E+02 -0.95758655450E+02  0.19437704957E+03  0.22765531636E+03  0.00000000000E+00 0. -1.
         21    1    1    2  503  502 -0.12946975447E+01 -0.14038616010E+03  0.84165373793E+03  0.85328246482E+03  0.00000000000E+00 0. -1.
          1    1    1    2  501    0 -0.11089435908E+03  0.32821527663E+03  0.75959007004E+03  0.83486519941E+03  0.00000000000E+00 0. -1.
<scales pt_clust_5="13000.00000" pt_clust_6="13000.00000" pt_clust_7="13000.00000" pt_clust_8="13000.00000" pt_clust_9="150.74261" pt_clust_10="13000.00000"></scales>
<clustering>
<clus scale="   77.481">  5  6 -1 -1</clus>
<clus scale="   88.171">  1  5  2 -1</clus>
<clus scale="   93.780">  7  8 -1 -1</clus>
<clus scale="  150.743">  2  9  1 -1</clus>
<clus scale="  245.934">  7 10 -1 -1</clus>
<clus scale="  150.743">  2  5  1 -1</clus>
</clustering>
</event>
<event>
10    4  0.2759992E-005  0.2756894E+03  0.7546771E-02  0.1147151E+00
         21   -1    0    0  501  502  0.00000000000E+00  0.00000000000E+00  0.89005004544E+02  0.89005004544E+02  0.00000000000E+00 0. -1.
          2   -1    0    0  503    0 -0.00000000000E+00 -0.00000000000E+00 -0.54576208908E+03  0.54576208908E+03  0.00000000000E+00 0. -1.
         24    2    1    2    0    0 -0.13760927888E+02 -0.15774320027E+01 -0.12379855687E+03  0.14852506145E+03  0.80881145938E+02 0.  0.
         23    2    1    2    0    0  0.66962583744E+02  0.67171472621E+02 -0.79462673266E+02  0.15869284809E+03  0.99363520657E+02 0.  0.
        -11    1    3    3    0    0 -0.47793659997E+02 -0.38436146074E+01 -0.71765127391E+02  0.86308984577E+02  0.00000000000E+00 0.  1.
         12    1    3    3    0    0  0.34032732110E+02  0.22661826048E+01 -0.52033429475E+02  0.62216076872E+02  0.00000000000E+00 0. -1.
        -13    1    4    4    0    0 -0.89741912370E+01 -0.19692734387E+02 -0.85677674339E+01  0.23275449186E+02  0.00000000000E+00 0.  1.
         13    1    4    4    0    0  0.75936774981E+02  0.86864207008E+02 -0.70894905832E+02  0.13541739891E+03  0.00000000000E+00 0. -1.
         21    1    1    2  503  502  0.55379497928E+02 -0.25583639639E+02 -0.15545220428E+02  0.62952881476E+02  0.00000000000E+00 0. -1.
          1    1    1    2  501    0 -0.10858115378E+03 -0.40010400979E+02 -0.23795063397E+03  0.26459630260E+03  0.00000000000E+00 0. -1.
<scales pt_clust_5="13000.00000" pt_clust_6="13000.00000" pt_clust_7="13000.00000" pt_clust_8="13000.00000" pt_clust_9="61.00337" pt_clust_10="13000.00000"></scales>
<clustering>
<clus scale="   61.003">  1  9  2 -1</clus>
<clus scale="   80.881">  5  6 -1 -1</clus>
<clus scale="   81.202">  2  5  1 -1</clus>
<clus scale="   99.364">  7  8 -1 -1</clus>
<clus scale="  110.523">  7 10 -1 -1</clus>
<clus scale="   61.003">  1  5  2 -1</clus>
</clustering>
</event>
<event>
10    4  0.2759992E-005  0.8602179E+03  0.7546771E-02  0.1013574E+00
         21   -1    0    0  501  502  0.00000000000E+00  0.00000000000E+00  0.32308566297E+03  0.32308566297E+03  0.00000000000E+00 0.  1.
         -1   -1    0    0    0  501 -0.00000000000E+00 -0.00000000000E+00 -0.10108975953E+04  0.10108975953E+04  0.00000000000E+00 0.  1.
         24    2    1    2    0    0 -0.39202972461E+02  0.45323581630E+02 -0.94782771357E+02  0.13793035496E+03  0.80311325294E+02 0.  0.
         23    2    1    2    0    0 -0.19827834312E+03 -0.11071680011E+03  0.10663787582E+03  0.26718173180E+03  0.91879976429E+02 0.  0.
        -13    1    3    3    0    0  0.18232881377E+02 -0.94512161330E+01 -0.23973422077E+02  0.31567204750E+02  0.00000000000E+00 0.  1.
         14    1    3    3    0    0 -0.57435853838E+02  0.54774797763E+02 -0.70809349280E+02  0.10636315021E+03  0.00000000000E+00 0. -1.
        -11    1    4    4    0    0 -0.18263428009E+03 -0.64846825104E+02  0.68653313169E+02  0.20560561374E+03  0.00000000000E+00 0.  1.
         11    1    4    4    0    0 -0.15644063027E+02 -0.45869975010E+02  0.37984562654E+02  0.61576118061E+02  0.00000000000E+00 0. -1.
         21    1    1    2  503  502  0.17898936511E+01 -0.32061946658E+02  0.91837578283E+02  0.97289839797E+02  0.00000000000E+00 0.  1.
         -2    1    1    2    0  503  0.23569142193E+03  0.97455165141E+02 -0.79150461503E+03  0.83158133167E+03  0.00000000000E+00 0.  1.
<scales pt_clust_5="13000.00000" pt_clust_6="13000.00000" pt_clust_7="13000.00000" pt_clust_8="13000.00000" pt_clust_9="32.11187" pt_clust_10="13000.00000"></scales>
<clustering>
<clus scale="   32.112">  1  9  2 -1</clus>
<clus scale="   80.311">  5  6 -1 -1</clus>
<clus scale="   91.880">  7  8 -1 -1</clus>
<clus scale="   98.806">  2  5  1 -1</clus>
<clus scale="  240.641">  7 10 -1 -1</clus>
<clus scale="   32.112">  1  5  2 -1</clus>
</clustering>
</event>
<event>
10    4  0.2759992E-005  0.2770080E+03  0.7546771E-02  0.1100378E+00
         21   -1    0    0  503  502  0.00000000000E+00  0.00000000000E+00  0.10659437451E+03  0.10659437451E+03  0.00000000000E+00 0. -1.
          4   -1    0    0  502    0 -0.00000000000E+00 -0.00000000000E+00 -0.89525362493E+03  0.89525362493E+03  0.00000000000E+00 0. -1.
         24    2    1    2    0    0  0.46334638227E+02  0.25144272800E+03 -0.46403984553E+03  0.53594509822E+03  0.80832084613E+02 0.  0.
         23    2    1    2    0    0 -0.47670014828E+02 -0.17172132020E+03 -0.21444597011E+03  0.29516487315E+03  0.96822446378E+02 0.  0.
        -11    1    3    3    0    0 -0.16358687417E+02  0.21900257007E+02 -0.75905980888E+02  0.80678038186E+02  0.00000000000E+00 0.  1.
         12    1    3    3    0    0  0.62693325645E+02  0.22954247099E+03 -0.38813386464E+03  0.45526706003E+03  0.00000000000E+00 0. -1.
        -11    1    4    4    0    0  0.26364653125E+02 -0.83756044879E+02 -0.90083893767E+02  0.12579856082E+03  0.00000000000E+00 0. -1.
         11    1    4    4    0    0 -0.74034667953E+02 -0.87965275319E+02 -0.12436207634E+03  0.16936631233E+03  0.00000000000E+00 0.  1.
         21    1    1    2  503  501  0.83877256876E+01 -0.31133708999E+02  0.15528436096E+02  0.35788183885E+02  0.00000000000E+00 0. -1.
          3    1    1    2  501    0 -0.70523490870E+01 -0.48587698803E+02 -0.12570187088E+03  0.13494984418E+03  0.00000000000E+00 0. -1.
<scales pt_clust_5="13000.00000" pt_clust_6="13000.00000" pt_clust_7="13000.00000" pt_clust_8="13000.00000" pt_clust_9="32.24379" pt_clust_10="13000.00000"></scales>
<clustering>
<clus scale="   32.244">  1  9  2 -1</clus>
<clus scale="   80.832">  5  6 -1 -1</clus>
<clus scale="   96.822">  7  8 -1 -1</clus>
<clus scale="   50.794">  7 10 -1 -1</clus>
<clus scale="  255.929">  2  5  1 -1</clus>
<clus scale="   32.244">  1  5  2 -1</clus>
</clustering>
</event>
<event>
10    4  0.2759992E-005  0.3173253E+03  0.7546771E-02  0.1097363E+00
         21   -1    0    0  503  502  0.00000000000E+00  0.00000000000E+00  0.62488494103E+03  0.62488494103E+03  0.00000000000E+00 0. -1.
          2   -1    0    0  502    0 -0.00000000000E+00 -0.00000000000E+00 -0.49925728070E+03  0.49925728070E+03  0.00000000000E+00 0. -1.
         24    2    1    2    0    0  0.10311709040E+03  0.13191556230E+03 -0.37406731319E+03  0.41760206246E+03  0.80189013381E+02 0.  0.
         23    2    1    2    0    0  0.16062696621E+02 -0.35874697024E+02  0.15362892576E+03  0.18307523475E+03  0.91486013353E+02 0.  0.
        -11    1    3    3    0    0  0.27629567527E+02  0.31478532945E+02 -0.30587880359E+02  0.51864337101E+02  0.00000000000E+00 0.  1.
         12    1    3    3    0    0  0.75487522872E+02  0.10043702936E+03 -0.34347943283E+03  0.36573772536E+03  0.00000000000E+00 0. -1.
        -11    1    4    4    0    0 -0.11227713216E+02 -0.60418265985E+02  0.11053681345E+03  0.12647061135E+03  0.00000000000E+00 0. -1.
         11    1    4    4    0    0  0.27290409838E+02  0.24543568961E+02  0.43092112313E+02  0.56604623398E+02  0.00000000000E+00 0.  1.
         21    1    1    2  503  501  0.85583796297E+02 -0.10390907557E+03  0.27569230154E+03  0.30680274983E+03  0.00000000000E+00 0. -1.
          1    1    1    2  501    0 -0.20476358332E+03  0.78682102968E+01  0.70373746211E+02  0.21666217469E+03  0.00000000000E+00 0. -1.
<scales pt_clust_5="13000.00000" pt_clust_6="13000.00000" pt_clust_7="13000.00000" pt_clust_8="13000.00000" pt_clust_9="134.61680" pt_clust_10="13000.00000"></scales>
<clustering>
<clus scale="   80.189">  5  6 -1 -1</clus>
<clus scale="   91.486">  7  8 -1 -1</clus>
<clus scale="  134.617">  1  9  2 -1</clus>
<clus scale="  171.940">  7 10 -1 -1</clus>
<clus scale="  184.134">  2  5  1 -1</clus>
<clus scale="  134.617">  1  5  2 -1</clus>
</clustering>
</event>
<event>
10    4  0.2759992E-005  0.4006304E+03  0.7546771E-02  0.1100482E+00
         21   -1    0    0  501  502  0.00000000000E+00  0.00000000000E+00  0.20217839670E+03  0.20217839670E+03  0.00000000000E+00 0. -1.
          2   -1    0    0  503    0 -0.00000000000E+00 -0.00000000000E+00 -0.36653540877E+03  0.36653540877E+03  0.00000000000E+00 0. -1.
         24    2    1    2    0    0 -0.27239893416E+02 -0.94305660737E+01 -0.33054011854E+02  0.88840482136E+02  0.77260055635E+02 0.  0.
         23    2    1    2    0    0  0.18275626438E+02  0.79539023352E+02 -0.25109383846E+03  0.27957893559E+03  0.91955482466E+02 0.  0.
        -13    1    3    3    0    0 -0.58315858780E+01 -0.41958491749E+02 -0.97851122093E+01  0.43477245136E+02  0.00000000000E+00 0.  1.
         14    1    3    3    0    0 -0.21408307538E+02  0.32527925675E+02 -0.23268899645E+02  0.45363236999E+02  0.00000000000E+00 0. -1.
        -11    1    4    4    0    0  0.37478808571E+02  0.41849132871E+00 -0.48927613320E+02  0.61633980661E+02  0.00000000000E+00 0.  1.
         11    1    4    4    0    0 -0.19203182134E+02  0.79120532023E+02 -0.20216622514E+03  0.21794495492E+03  0.00000000000E+00 0. -1.
         21    1    1    2  503  502 -0.10851608015E+02 -0.54314981896E+02 -0.19497474307E+02  0.58719895770E+02  0.00000000000E+00 0.  1.
          1    1    1    2  501    0  0.19815874993E+02 -0.15793475382E+02  0.13928831254E+03  0.14157449197E+03  0.00000000000E+00 0. -1.
<scales pt_clust_5="13000.00000" pt_clust_6="13000.00000" pt_clust_7="13000.00000" pt_clust_8="13000.00000" pt_clust_9="55.38843" pt_clust_10="13000.00000"></scales>
<clustering>
<clus scale="   55.388">  1  9  2 -1</clus>
<clus scale="   77.260">  5  6 -1 -1</clus>
<clus scale="   84.371">  2  5  1 -1</clus>
<clus scale="   91.955">  7  8 -1 -1</clus>
<clus scale="   60.433">  7 10 -1 -1</clus>
<clus scale="   55.388">  1  5  2 -1</clus>
</clustering>
</event>
<event>
10    4  0.2759992E-005  0.2483011E+03  0.7546771E-02  0.1156829E+00
         21   -1    0    0  501  502  0.00000000000E+00  0.00000000000E+00  0.59616210191E+02  0.59616210191E+02  0.00000000000E+00 0. -1.
          2   -1    0    0  503    0 -0.00000000000E+00 -0.00000000000E+00 -0.69371629868E+03  0.69371629868E+03  0.00000000000E+00 0. -1.
         24    2    1    2    0    0 -0.36815497335E+02  0.17407443178E+02 -0.63528014993E+02  0.11043566343E+03  0.80633908165E+02 0.  0.
         23    2    1    2    0    0  0.63552969862E+02  0.68359872985E+02 -0.25648825222E+03  0.28942910291E+03  0.96285668061E+02 0.  0.
        -11    1    3    3    0    0  0.38386083299E+01 -0.28295327999E+02 -0.14391695113E+02  0.31976262895E+02  0.00000000000E+00 0.  1.
         12    1    3    3    0    0 -0.40654105665E+02  0.45702771178E+02 -0.49136319880E+02  0.78459400533E+02  0.00000000000E+00 0. -1.
        -13    1    4    4    0    0 -0.10522538396E+02  0.37983172805E+02 -0.30984746765E+02  0.50134815875E+02  0.00000000000E+00 0.  1.
         13    1    4    4    0    0  0.74075508258E+02  0.30376700180E+02 -0.22550350545E+03  0.23929428704E+03  0.00000000000E+00 0. -1.
         21    1    1    2  503  502  0.20292105996E+02  0.14091947009E+02 -0.49198846039E+01  0.25190430738E+02  0.00000000000E+00 0.  1.
          1    1    1    2  501    0 -0.47029578522E+02 -0.99859263172E+02 -0.30916393667E+03  0.32827731179E+03  0.00000000000E+00 0. -1.
<scales pt_clust_5="13000.00000" pt_clust_6="13000.00000" pt_clust_7="13000.00000" pt_clust_8="13000.00000" pt_clust_9="24.70531" pt_clust_10="13000.00000"></scales>
<clustering>
<clus scale="   24.705">  1  9  2 -1</clus>
<clus scale="   80.634">  5  6 -1 -1</clus>
<clus scale="   88.440">  2  5  1 -1</clus>
<clus scale="   96.286">  7  8 -1 -1</clus>
<clus scale="  102.276">  7 10 -1 -1</clus>
<clus scale="   24.705">  1  5  2 -1</clus>
</clustering>
</event>
<event>
10    4  0.2759992E-005  0.1097539E+04  0.7546771E-02  0.9677126E-01
          2   -1    0    0  502    0 -0.00000000000E+00  0.00000000000E+00  0.20371593902E+04  0.20371593902E+04  0.00000000000E+00 0. -1.
         21   -1    0    0  503  502  0.00000000000E+00 -0.00000000000E+00 -0.37706543173E+03  0.37706543173E+03  0.00000000000E+00 0.  1.
         24    2    1    2    0    0  0.17801591710E+03  0.57417291323E+02  0.68136238976E+03  0.71124419009E+03  0.81407491509E+02 0.  0.
         23    2    1    2    0    0  0.39731755254E+03  0.76326846528E+02  0.23925112492E+03  0.47838359105E+03  0.89009743020E+02 0.  0.
        -13    1    3    3    0    0  0.81417083940E+02  0.48030122872E+02  0.45886352707E+03  0.46849906161E+03  0.00000000000E+00 0.  1.
         14    1    3    3    0    0  0.96598833163E+02  0.93871684506E+01  0.22249886270E+03  0.24274512848E+03  0.00000000000E+00 0. -1.
        -11    1    4    4    0    0  0.33397843616E+03  0.91221606968E+02  0.22125773515E+03  0.41087463144E+03  0.00000000000E+00 0.  1.
         11    1    4    4    0    0  0.63339116377E+02 -0.14894760439E+02  0.17993389776E+02  0.67508959610E+02  0.00000000000E+00 0. -1.
         21    1    1    2  503  501  0.71420657488E+02 -0.76718469448E+00 -0.12067906356E+03  0.14023171992E+03  0.00000000000E+00 0.  1.
          1    1    1    2  501    0 -0.64675412713E+03 -0.13297695316E+03  0.86015950738E+03  0.10843653209E+04  0.00000000000E+00 0. -1.
<scales pt_clust_5="13000.00000" pt_clust_6="13000.00000" pt_clust_7="13000.00000" pt_clust_8="13000.00000" pt_clust_9="71.42478" pt_clust_10="13000.00000"></scales>
<clustering>
<clus scale="   71.425">  2  9  1 -1</clus>
<clus scale="   81.407">  5  6 -1 -1</clus>
<clus scale="   89.010">  7  8 -1 -1</clus>
<clus scale="  207.768">  1  5  2 -1</clus>
<clus scale="  500.399">  7 10 -1 -1</clus>
<clus scale="   71.425">  2  5  1 -1</clus>
</clustering>
</event>
<event>
10    4  0.2939033E-005  0.5136261E+03  0.7546771E-02  0.1024911E+00
          2   -1    0    0  502    0 -0.00000000000E+00  0.00000000000E+00  0.14850518772E+04  0.14850518772E+04  0.00000000000E+00 0. -1.
         21   -1    0    0  503  502  0.00000000000E+00 -0.00000000000E+00 -0.13824991483E+03  0.13824991483E+03  0.00000000000E+00 0. -1.
         24    2    1    2    0    0 -0.27950409626E+03  0.14604282904E+03  0.61631753047E+03  0.69703299055E+03  0.80973105456E+02 0.  0.
         23    2    1    2    0    0 -0.52443586710E+02  0.30106957387E+02  0.28249770268E+03  0.30420117760E+03  0.95271432033E+02 0.  0.
        -11    1    3    3    0    0 -0.13565357970E+03  0.38064797778E+02  0.33118400412E+03  0.35990785918E+03  0.00000000000E+00 0.  1.
         12    1    3    3    0    0 -0.14385051657E+03  0.10797803126E+03  0.28513352635E+03  0.33712513137E+03  0.00000000000E+00 0. -1.
        -13    1    4    4    0    0 -0.36109872493E+02 -0.32046899330E+02  0.11034927028E+03  0.12044869489E+03  0.00000000000E+00 0.  1.
         13    1    4    4    0    0 -0.16333714217E+02  0.62153856717E+02  0.17214843240E+03  0.18375248271E+03  0.00000000000E+00 0. -1.
         21    1    1    2  503  501 -0.18815584724E+02 -0.12320611035E+02 -0.80307990875E+01  0.23881319451E+02  0.00000000000E+00 0.  1.
          1    1    1    2  501    0  0.35076326770E+03 -0.16382917539E+03  0.45601752830E+03  0.59818630442E+03  0.00000000000E+00 0. -1.
<scales pt_clust_5="13000.00000" pt_clust_6="13000.00000" pt_clust_7="13000.00000" pt_clust_8="13000.00000" pt_clust_9="22.49052" pt_clust_10="13000.00000"></scales>
<clustering>
<clus scale="   22.491">  2  9  1 -1</clus>
<clus scale="   80.973">  5  6 -1 -1</clus>
<clus scale="   95.271">  7  8 -1 -1</clus>
<clus scale="  329.160">  1  5  2 -1</clus>
<clus scale="  179.152">  7 10 -1 -1</clus>
<clus scale="   22.491">  2  5  1 -1</clus>
</clustering>
</event>
<event>
10    4  0.2759992E-005  0.3159892E+03  0.7546771E-02  0.1080793E+00
          2   -1    0    0  503    0 -0.00000000000E+00  0.00000000000E+00  0.18388353641E+04  0.18388353641E+04  0.00000000000E+00 0. -1.
         21   -1    0    0  501  502  0.00000000000E+00 -0.00000000000E+00 -0.10542578309E+03  0.10542578309E+03  0.00000000000E+00 0. -1.
         24    2    1    2    0    0  0.16991174949E+03  0.21647031205E+03  0.10721752456E+04  0.11097962358E+04  0.79740386858E+02 0.  0.
         23    2    1    2    0    0 -0.27201239957E+02 -0.72089534801E+02  0.20843956140E+03  0.23604617182E+03  0.79586028889E+02 0.  0.
        -13    1    3    3    0    0  0.47462477686E+02  0.14271021234E+02  0.21355065965E+03  0.21922644246E+03  0.00000000000E+00 0.  1.
         14    1    3    3    0    0  0.12244927180E+03  0.20219929081E+03  0.85862458591E+03  0.89056979339E+03  0.00000000000E+00 0. -1.
        -13    1    4    4    0    0  0.26995056697E+02 -0.13109335552E+02  0.45865250799E+02  0.54810664980E+02  0.00000000000E+00 0. -1.
         13    1    4    4    0    0 -0.54196296654E+02 -0.58980199249E+02  0.16257431060E+03  0.18123550684E+03  0.00000000000E+00 0.  1.
         21    1    1    2  503  502 -0.21607708666E+02  0.26255623367E+02 -0.46179239026E+02  0.57347824276E+02  0.00000000000E+00 0. -1.
          1    1    1    2  501    0 -0.12110280086E+03 -0.17063640061E+03  0.49897401311E+03  0.54107091527E+03  0.00000000000E+00 0. -1.
<scales pt_clust_5="13000.00000" pt_clust_6="13000.00000" pt_clust_7="13000.00000" pt_clust_8="13000.00000" pt_clust_9="34.00369" pt_clust_10="13000.00000"></scales>
<clustering>
<clus scale="   34.004">  2  9  1 -1</clus>
<clus scale="   79.586">  7  8 -1 -1</clus>
<clus scale="   79.740">  5  6 -1 -1</clus>
<clus scale="  206.152">  7 10 -1 -1</clus>
<clus scale="  289.207">  1  5  2 -1</clus>
<clus scale="   34.004">  2  5  1 -1</clus>
</clustering>
</event>
<event>
10    4  0.2759992E-005  0.2942309E+03  0.7546771E-02  0.1132066E+00
         21   -1    0    0  503  502  0.00000000000E+00  0.00000000000E+00  0.15067276420E+03  0.15067276420E+03  0.00000000000E+00 0. -1.
         -1   -1    0    0    0  501 -0.00000000000E+00 -0.00000000000E+00 -0.30353984742E+03  0.30353984742E+03  0.00000000000E+00 0.  1.
         24    2    1    2    0    0 -0.48019289911E+02  0.11913795405E+02 -0.13002807038E+02  0.94572065562E+02  0.79542516112E+02 0.  0.
         23    2    1    2    0    0 -0.79808298199E+02  0.68586234423E+02 -0.59190391265E+02  0.15166943122E+03  0.91796938596E+02 0.  0.
        -13    1    3    3    0    0  0.13209657719E+02  0.21726625010E+02 -0.19749243239E+02  0.32195867746E+02  0.00000000000E+00 0.  1.
         14    1    3    3    0    0 -0.61228947629E+02 -0.98128296049E+01  0.67464362010E+01  0.62376197817E+02  0.00000000000E+00 0. -1.
        -13    1    4    4    0    0 -0.81867463662E+02  0.12334739128E+02 -0.41863609314E+02  0.92773860438E+02  0.00000000000E+00 0.  1.
         13    1    4    4    0    0  0.20591654625E+01  0.56251495295E+02 -0.17326781951E+02  0.58895570785E+02  0.00000000000E+00 0. -1.
         21    1    1    2  503  501 -0.20180007965E+02 -0.25914587850E+02 -0.22597791007E+02  0.39868016546E+02  0.00000000000E+00 0.  1.
         -2    1    1    2    0  502  0.14800759607E+03 -0.54585441978E+02 -0.58076093904E+02  0.16810309829E+03  0.00000000000E+00 0.  1.
<scales pt_clust_5="13000.00000" pt_clust_6="13000.00000" pt_clust_7="13000.00000" pt_clust_8="13000.00000" pt_clust_9="32.84509" pt_clust_10="13000.00000"></scales>
<clustering>
<clus scale="   32.845">  1  9  2 -1</clus>
<clus scale="   79.543">  5  6 -1 -1</clus>
<clus scale="   91.797">  7  8 -1 -1</clus>
<clus scale="   96.140">  2  5  1 -1</clus>
<clus scale="  129.474">  7 10 -1 -1</clus>
<clus scale="   32.845">  1  5  2 -1</clus>
</clustering>
</event>
<event>
10    4  0.2759992E-005  0.4141474E+03  0.7546771E-02  0.1065235E+00
         21   -1    0    0  503  502  0.00000000000E+00  0.00000000000E+00  0.91820727818E+02  0.91820727818E+02  0.00000000000E+00 0.  1.
          4   -1    0    0  502    0 -0.00000000000E+00 -0.00000000000E+00 -0.12028248872E+04  0.12028248872E+04  0.00000000000E+00 0. -1.
         24    2    1    2    0    0  0.63744642444E+02 -0.17513182349E+03 -0.20495649957E+03  0.28818897039E+03  0.79442941158E+02 0.  0.
         23    2    1    2    0    0  0.13909218538E+03  0.10536350862E+03 -0.27744794181E+03  0.34030024121E+03  0.91535724003E+02 0.  0.
        -11    1    3    3    0    0 -0.76007541335E+01 -0.94262107611E+02 -0.10193848754E+03  0.13904881027E+03  0.00000000000E+00 0.  1.
         12    1    3    3    0    0  0.71345396577E+02 -0.80869715874E+02 -0.10301801203E+03  0.14914016012E+03  0.00000000000E+00 0. -1.
        -13    1    4    4    0    0  0.11344246743E+03  0.65543191486E+02 -0.25748162607E+03  0.28889771742E+03  0.00000000000E+00 0.  1.
         13    1    4    4    0    0  0.25649717952E+02  0.39820317134E+02 -0.19966315742E+02  0.51402523790E+02  0.00000000000E+00 0. -1.
         21    1    1    2  503  501 -0.24545081807E+02  0.67683904158E+01 -0.35821581349E+02  0.43948354236E+02  0.00000000000E+00 0. -1.
          3    1    1    2  501    0 -0.17829174602E+03  0.62999924450E+02 -0.59277813670E+03  0.62220804923E+03  0.00000000000E+00 0. -1.
<scales pt_clust_5="13000.00000" pt_clust_6="13000.00000" pt_clust_7="13000.00000" pt_clust_8="13000.00000" pt_clust_9="25.46119" pt_clust_10="13000.00000"></scales>
<clustering>
<clus scale="   25.461">  1  9  2 -1</clus>
<clus scale="   79.443">  5  6 -1 -1</clus>
<clus scale="   91.536">  7  8 -1 -1</clus>
<clus scale="  193.354">  7 10 -1 -1</clus>
<clus scale="  196.426">  2  5  1 -1</clus>
<clus scale="   25.461">  1  5  2 -1</clus>
</clustering>
</event>
<event>
10    4  0.2759992E-005  0.4530268E+03  0.7546771E-02  0.1065610E+00
         -1   -1    0    0    0  501 -0.00000000000E+00  0.00000000000E+00  0.11687452082E+04  0.11687452082E+04  0.00000000000E+00 0.  1.
         21   -1    0    0  501  502  0.00000000000E+00 -0.00000000000E+00 -0.99335255314E+02  0.99335255314E+02  0.00000000000E+00 0.  1.
         24    2    1    2    0    0  0.11537967056E+03  0.53546390081E+02  0.46036850668E+03  0.48448990392E+03  0.81311873595E+02 0.  0.
         23    2    1    2    0    0  0.11738729909E+03  0.58714281275E+02  0.43612647533E+03  0.46336545486E+03  0.85288319591E+02 0.  0.
        -11    1    3    3    0    0  0.57809519422E+02 -0.15915499368E+02  0.20853268854E+03  0.21698185603E+03  0.00000000000E+00 0.  1.
         12    1    3    3    0    0  0.57570151134E+02  0.69461889449E+02  0.25183581814E+03  0.26750804789E+03  0.00000000000E+00 0. -1.
        -11    1    4    4    0    0  0.53024544108E+02  0.28637342157E+02  0.79652164924E+02  0.99880764018E+02  0.00000000000E+00 0.  1.
         11    1    4    4    0    0  0.64362754980E+02  0.30076939118E+02  0.35647431041E+03  0.36348469084E+03  0.00000000000E+00 0. -1.
         21    1    1    2  503  502 -0.14482701389E+02 -0.17875365468E+02 -0.46011101140E+01  0.23461618538E+02  0.00000000000E+00 0.  1.
         -2    1    1    2    0  503 -0.21828426826E+03 -0.94385305888E+02  0.17751608101E+03  0.29676348622E+03  0.00000000000E+00 0.  1.
<scales pt_clust_5="13000.00000" pt_clust_6="13000.00000" pt_clust_7="13000.00000" pt_clust_8="13000.00000" pt_clust_9="23.00603" pt_clust_10="13000.00000"></scales>
<clustering>
<clus scale="   23.006">  2  9  1 -1</clus>
<clus scale="   81.312">  5  6 -1 -1</clus>
<clus scale="   85.288">  7  8 -1 -1</clus>
<clus scale="  148.522">  1  5  2 -1</clus>
<clus scale="  204.564">  7 10 -1 -1</clus>
<clus scale="   23.006">  2  5  1 -1</clus>
</clustering>
</event>
<event>
10    4  0.2759992E-005  0.4647732E+03  0.7546771E-02  0.1071186E+00
         21   -1    0    0  501  502  0.00000000000E+00  0.00000000000E+00  0.29745870360E+03  0.29745870360E+03  0.00000000000E+00 0. -1.
          2   -1    0    0  503    0 -0.00000000000E+00 -0.00000000000E+00 -0.94462821195E+03  0.94462821195E+03  0.00000000000E+00 0. -1.
         24    2    1    2    0    0  0.70356312021E+02 -0.51274417369E+02 -0.14269850419E+03  0.18514322903E+03  0.79599470093E+02 0.  0.
         23    2    1    2    0    0  0.15660599079E+03  0.83521303719E+02 -0.14586344697E+03  0.24698227523E+03  0.90679956942E+02 0.  0.
        -11    1    3    3    0    0  0.59703289293E+02  0.40640852859E+01 -0.57473268432E+02  0.82970935428E+02  0.00000000000E+00 0.  1.
         12    1    3    3    0    0  0.10653022728E+02 -0.55338502654E+02 -0.85225235759E+02  0.10217229360E+03  0.00000000000E+00 0. -1.
        -13    1    4    4    0    0  0.10833853924E+03  0.16278363286E+02 -0.50283937946E+02  0.12054334743E+03  0.00000000000E+00 0.  1.
         13    1    4    4    0    0  0.48267451551E+02  0.67242940433E+02 -0.95579509024E+02  0.12643892780E+03  0.00000000000E+00 0. -1.
         21    1    1    2  503  502 -0.36226832904E+03 -0.18273011049E+03 -0.43388921884E+03  0.59404418163E+03  0.00000000000E+00 0. -1.
          1    1    1    2  501    0  0.13530602623E+03  0.15048322414E+03  0.75281661649E+02  0.21591722966E+03  0.00000000000E+00 0. -1.
<scales pt_clust_5="13000.00000" pt_clust_6="13000.00000" pt_clust_7="13000.00000" pt_clust_8="13000.00000" pt_clust_9="383.00245" pt_clust_10="13000.00000"></scales>
<clustering>
<clus scale="   79.599">  5  6 -1 -1</clus>
<clus scale="   90.680">  7  8 -1 -1</clus>
<clus scale="  117.963">  2  5  1 -1</clus>
<clus scale="  203.321">  7 10 -1 -1</clus>
<clus scale="  383.002">  1  9  2 -1</clus>
<clus scale="  383.002">  1  5  2 -1</clus>
</clustering>
</event>
<event>
10    4  0.2759992E-005  0.4133426E+03  0.7546771E-02  0.1096292E+00
         21   -1    0    0  501  502  0.00000000000E+00  0.00000000000E+00  0.13233213274E+03  0.13233213274E+03  0.00000000000E+00 0.  1.
          2   -1    0    0  503    0 -0.00000000000E+00 -0.00000000000E+00 -0.11384667536E+04  0.11384667536E+04  0.00000000000E+00 0. -1.
         24    2    1    2    0    0  0.17243223010E+02  0.22240975234E+02 -0.13167888054E+03  0.15435826381E+03  0.75466259392E+02 0.  0.
         23    2    1    2    0    0 -0.14072703168E+03  0.12704511840E+03 -0.45725915569E+03  0.50348250278E+03  0.92000736878E+02 0.  0.
        -11    1    3    3    0    0 -0.25298935970E+02 -0.42680731081E+01 -0.22113655878E+02  0.33871320989E+02  0.00000000000E+00 0.  1.
         12    1    3    3    0    0  0.42542158980E+02  0.26509048342E+02 -0.10956522467E+03  0.12048694282E+03  0.00000000000E+00 0. -1.
        -13    1    4    4    0    0 -0.41564052474E+02  0.61754523451E+02 -0.86207414970E+02  0.11389868314E+03  0.00000000000E+00 0. -1.
         13    1    4    4    0    0 -0.99162979204E+02  0.65290594951E+02 -0.37105174072E+03  0.38958381964E+03  0.00000000000E+00 0.  1.
         21    1    1    2  503  502  0.42833080225E+02  0.44873299043E+02  0.63207113808E+02  0.88563112889E+02  0.00000000000E+00 0.  1.
          1    1    1    2  501    0  0.80650728442E+02 -0.19415939268E+03 -0.48040369845E+03  0.52439500689E+03  0.00000000000E+00 0. -1.
<scales pt_clust_5="13000.00000" pt_clust_6="13000.00000" pt_clust_7="13000.00000" pt_clust_8="13000.00000" pt_clust_9="62.03455" pt_clust_10="13000.00000"></scales>
<clustering>
<clus scale="   62.035">  1  9  2 -1</clus>
<clus scale="   75.466">  5  6 -1 -1</clus>
<clus scale="   85.675">  2  5  1 -1</clus>
<clus scale="   92.001">  7  8 -1 -1</clus>
<clus scale="  195.315">  7 10 -1 -1</clus>
<clus scale="   62.035">  1  5  2 -1</clus>
</clustering>
</event>
<event>
10    4  0.2759992E-005  0.3403200E+03  0.7546771E-02  0.1109104E+00
         21   -1    0    0  503  502  0.00000000000E+00  0.00000000000E+00  0.13359640460E+03  0.13359640460E+03  0.00000000000E+00 0. -1.
          2   -1    0    0  502    0 -0.00000000000E+00 -0.00000000000E+00 -0.44414594803E+03  0.44414594803E+03  0.00000000000E+00 0. -1.
         24    2    1    2    0    0  0.39725201131E+01  0.73918928437E+02 -0.54179886285E+02  0.12097548340E+03  0.78865826623E+02 0.  0.
         23    2    1    2    0    0 -0.13609060987E+03  0.41913713878E+02 -0.94872666052E+02  0.19343472951E+03  0.90215066974E+02 0.  0.
        -13    1    3    3    0    0 -0.21517429165E+02  0.78614388751E+01 -0.43779295069E+02  0.49410815170E+02  0.00000000000E+00 0.  1.
         14    1    3    3    0    0  0.25489949278E+02  0.66057489562E+02 -0.10400591217E+02  0.71564668231E+02  0.00000000000E+00 0. -1.
        -11    1    4    4    0    0 -0.27163436867E+02  0.42768161818E+02 -0.61132153014E+02  0.79398413711E+02  0.00000000000E+00 0.  1.
         11    1    4    4    0    0 -0.10892717301E+03 -0.85444793991E+00 -0.33740513038E+02  0.11403631580E+03  0.00000000000E+00 0. -1.
         21    1    1    2  503  501  0.18925153088E+02  0.90679024594E+01  0.96655260842E+01  0.23104343075E+02  0.00000000000E+00 0. -1.
          1    1    1    2  501    0  0.11319293667E+03 -0.12490054477E+03 -0.17116251718E+03  0.24022779665E+03  0.00000000000E+00 0. -1.
<scales pt_clust_5="13000.00000" pt_clust_6="13000.00000" pt_clust_7="13000.00000" pt_clust_8="13000.00000" pt_clust_9="20.98543" pt_clust_10="13000.00000"></scales>
<clustering>
<clus scale="   20.985">  1  9  2 -1</clus>
<clus scale="   78.866">  5  6 -1 -1</clus>
<clus scale="   90.215">  7  8 -1 -1</clus>
<clus scale="  110.273">  2  5  1 -1</clus>
<clus scale="  145.799">  7 10 -1 -1</clus>
<clus scale="   20.985">  1  5  2 -1</clus>
</clustering>
</event>
<event>
10    4  0.2759992E-005  0.6235678E+03  0.7546771E-02  0.1034820E+00
         21   -1    0    0  501  502  0.00000000000E+00  0.00000000000E+00  0.13532723992E+03  0.13532723992E+03  0.00000000000E+00 0.  1.
          2   -1    0    0  503    0 -0.00000000000E+00 -0.00000000000E+00 -0.16130175130E+04  0.16130175130E+04  0.00000000000E+00 0. -1.
         24    2    1    2    0    0  0.10959526514E+03  0.12348572939E+02 -0.77844143151E+03  0.79033517606E+03  0.80591679658E+02 0.  0.
         23    2    1    2    0    0  0.23330508614E+03 -0.51624347537E+02 -0.21263886547E+03  0.33235480055E+03  0.90266770517E+02 0.  0.
        -13    1    3    3    0    0  0.82257723226E+01 -0.26716943577E+02 -0.15646842822E+03  0.15894598905E+03  0.00000000000E+00 0.  1.
         14    1    3    3    0    0  0.10136949281E+03  0.39065516516E+02 -0.62197300329E+03  0.63138918701E+03  0.00000000000E+00 0. -1.
        -11    1    4    4    0    0  0.66571474912E+01 -0.26457069985E+02 -0.25766932768E+02  0.37526377246E+02  0.00000000000E+00 0. -1.
         11    1    4    4    0    0  0.22664793865E+03 -0.25167277551E+02 -0.18687193270E+03  0.29482842330E+03  0.00000000000E+00 0.  1.
         21    1    1    2  503  502  0.15188147385E+02 -0.22413865384E+02 -0.17344978752E+02  0.32154462682E+02  0.00000000000E+00 0.  1.
          1    1    1    2  501    0 -0.35808849866E+03  0.61689639982E+02 -0.46926499734E+03  0.59350031363E+03  0.00000000000E+00 0. -1.
<scales pt_clust_5="13000.00000" pt_clust_6="13000.00000" pt_clust_7="13000.00000" pt_clust_8="13000.00000" pt_clust_9="27.07510" pt_clust_10="13000.00000"></scales>
<clustering>
<clus scale="   27.075">  1  9  2 -1</clus>
<clus scale="   80.592">  5  6 -1 -1</clus>
<clus scale="   90.267">  7  8 -1 -1</clus>
<clus scale="  137.074">  2  5  1 -1</clus>
<clus scale="  287.575">  7 10 -1 -1</clus>
<clus scale="   27.075">  1  5  2 -1</clus>
</clustering>
</event>
<event>
10    4  0.2759992E-005  0.3339192E+03  0.7546771E-02  0.1103030E+00
         21   -1    0    0  503  502  0.00000000000E+00  0.00000000000E+00  0.30076124586E+03  0.30076124586E+03  0.00000000000E+00 0.  1.
         -1   -1    0    0    0  501 -0.00000000000E+00 -0.00000000000E+00 -0.23239585860E+03  0.23239585860E+03  0.00000000000E+00 0.  1.
         24    2    1    2    0    0 -0.20280179124E+02  0.97365451185E+02 -0.14922293380E+02  0.13446571922E+03  0.89258266034E+02 0.  0.
         23    2    1    2    0    0  0.52404231456E+02  0.25600363416E+02  0.13722794019E+03  0.17493250587E+03  0.91478368806E+02 0.  0.
        -13    1    3    3    0    0 -0.35312721125E+02  0.10778544383E+03 -0.20675046301E+02  0.11529157695E+03  0.00000000000E+00 0.  1.
         14    1    3    3    0    0  0.15032542000E+02 -0.10419992646E+02  0.57527529217E+01  0.19174142273E+02  0.00000000000E+00 0. -1.
        -11    1    4    4    0    0  0.72160027273E+02  0.11413770551E+02  0.61832117007E+02  0.95710785117E+02  0.00000000000E+00 0.  1.
         11    1    4    4    0    0 -0.19755795817E+02  0.14186592865E+02  0.75395823184E+02  0.79221720753E+02  0.00000000000E+00 0. -1.
         21    1    1    2  503  501 -0.32403071705E+02  0.78964699453E+01  0.47600849191E+02  0.58121890345E+02  0.00000000000E+00 0. -1.
         -2    1    1    2    0  502  0.27901937273E+00 -0.13086228455E+03 -0.10154110875E+03  0.16563698903E+03  0.00000000000E+00 0.  1.
<scales pt_clust_5="13000.00000" pt_clust_6="13000.00000" pt_clust_7="13000.00000" pt_clust_8="13000.00000" pt_clust_9="33.35136" pt_clust_10="13000.00000"></scales>
<clustering>
<clus scale="   33.351">  1  9  2 -1</clus>
<clus scale="   89.258">  5  6 -1 -1</clus>
<clus scale="   91.478">  7  8 -1 -1</clus>
<clus scale="  129.900">  7 10 -1 -1</clus>
<clus scale="  136.421">  2  5  1 -1</clus>
<clus scale="   33.351">  1  5  2 -1</clus>
</clustering>
</event>
<event>
10    4  0.2759992E-005  0.6425125E+03  0.7546771E-02  0.1040496E+00
         21   -1    0    0  501  502  0.00000000000E+00  0.00000000000E+00  0.13475310879E+03  0.13475310879E+03  0.00000000000E+00 0. -1.
          2   -1    0    0  503    0 -0.00000000000E+00 -0.00000000000E+00 -0.14809480194E+04  0.14809480194E+04  0.00000000000E+00 0. -1.
         24    2    1    2    0    0 -0.21800330255E+02  0.63041605428E+02 -0.23944478205E+03  0.26088457702E+03  0.79230426360E+02 0.  0.
         23    2    1    2    0    0  0.65761941837E+02  0.12403064005E+03 -0.25022814811E+01  0.16542570966E+03  0.87470974275E+02 0.  0.
        -13    1    3    3    0    0  0.21885792899E+02  0.49529013034E+02 -0.94697363646E+02  0.10908575409E+03  0.00000000000E+00 0.  1.
         14    1    3    3    0    0 -0.43686123154E+02  0.13512592395E+02 -0.14474741840E+03  0.15179882293E+03  0.00000000000E+00 0. -1.
        -11    1    4    4    0    0  0.20659168429E+02  0.76261868618E+02 -0.41273394827E+02  0.89141275321E+02  0.00000000000E+00 0.  1.
         11    1    4    4    0    0  0.45102773408E+02  0.47768771428E+02  0.38771113346E+02  0.76284434342E+02  0.00000000000E+00 0. -1.
         21    1    1    2  503  502 -0.86832087062E+02  0.40091743508E+01 -0.22132055854E+02  0.89697896959E+02  0.00000000000E+00 0. -1.
          1    1    1    2  501    0  0.42870475481E+02 -0.19108141982E+03 -0.10821157912E+04  0.10996929446E+04  0.00000000000E+00 0. -1.
<scales pt_clust_5="13000.00000" pt_clust_6="13000.00000" pt_clust_7="13000.00000" pt_clust_8="13000.00000" pt_clust_9="86.92459" pt_clust_10="13000.00000"></scales>
<clustering>
<clus scale="   79.230">  5  6 -1 -1</clus>
<clus scale="   86.925">  1  9  2 -1</clus>
<clus scale="   87.471">  7  8 -1 -1</clus>
<clus scale="  106.150">  2  5  1 -1</clus>
<clus scale="  134.629">  7 10 -1 -1</clus>
<clus scale="   86.925">  1  5  2 -1</clus>
</clustering>
</event>
<event>
10    4  0.2759992E-005  0.5975754E+03  0.7546771E-02  0.1053267E+00
         21   -1    0    0  503  502  0.00000000000E+00  0.00000000000E+00  0.83568961874E+03  0.83568961874E+03  0.00000000000E+00 0. -1.
          2   -1    0    0  502    0 -0.00000000000E+00 -0.00000000000E+00 -0.39707608781E+03  0.39707608781E+03  0.00000000000E+00 0. -1.
         24    2    1    2    0    0 -0.19987848564E+02  0.34289804483E+02  0.24088898079E+01  0.91477973206E+02  0.82383930775E+02 0.  0.
         23    2    1    2    0    0 -0.37318538200E+02  0.20493597475E+03 -0.13018779657E+03  0.26148563398E+03  0.89635078847E+02 0.  0.
        -11    1    3    3    0    0 -0.26900054605E+01 -0.22164543423E+02 -0.18339489803E+02  0.28893597919E+02  0.00000000000E+00 0.  1.
         12    1    3    3    0    0 -0.17297843103E+02  0.56454347906E+02  0.20748379611E+02  0.62584375286E+02  0.00000000000E+00 0. -1.
        -11    1    4    4    0    0 -0.19991658232E+02  0.18018602828E+02  0.83522044090E+01  0.28179704846E+02  0.00000000000E+00 0.  1.
         11    1    4    4    0    0 -0.17326879967E+02  0.18691737192E+03 -0.13854000098E+03  0.23330592913E+03  0.00000000000E+00 0. -1.
         21    1    1    2  503  501 -0.25029907055E+02  0.97398333701E+02  0.52062180666E+03  0.53024522367E+03  0.00000000000E+00 0. -1.
          1    1    1    2  501    0  0.82336293818E+02 -0.33662411293E+03  0.45770631034E+02  0.34955687571E+03  0.00000000000E+00 0. -1.
<scales pt_clust_5="13000.00000" pt_clust_6="13000.00000" pt_clust_7="13000.00000" pt_clust_8="13000.00000" pt_clust_9="101.08436" pt_clust_10="13000.00000"></scales>
<clustering>
<clus scale="   82.384">  5  6 -1 -1</clus>
<clus scale="   89.635">  7  8 -1 -1</clus>
<clus scale="   91.446">  2  5  1 -1</clus>
<clus scale="  101.084">  1  9  2 -1</clus>
<clus scale="  265.703">  7 10 -1 -1</clus>
<clus scale="  101.084">  1  5  2 -1</clus>
</clustering>
</event>
<event>
10    4  0.2759992E-005  0.2318004E+03  0.7546771E-02  0.1146806E+00
         21   -1    0    0  503  502  0.00000000000E+00  0.00000000000E+00  0.23768494472E+03  0.23768494472E+03  0.00000000000E+00 0. -1.
          2   -1    0    0  502    0 -0.00000000000E+00 -0.00000000000E+00 -0.57757722776E+03  0.57757722776E+03  0.00000000000E+00 0. -1.
         24    2    1    2    0    0 -0.66432952575E+02  0.90217677225E+02 -0.36580343516E+03  0.39087521862E+03  0.80116895162E+02 0.  0.
         23    2    1    2    0    0 -0.68659547821E+02  0.26369355910E+02  0.24774498606E+01  0.11790057804E+03  0.92113691201E+02 0.  0.
        -13    1    3    3    0    0  0.22603727804E+01  0.25585975859E+02 -0.20328763498E+02  0.32756832434E+02  0.00000000000E+00 0.  1.
         14    1    3    3    0    0 -0.68693325356E+02  0.64631701366E+02 -0.34547467166E+03  0.35811838619E+03  0.00000000000E+00 0. -1.
        -11    1    4    4    0    0  0.58916827369E+01 -0.26064078621E+02 -0.58117336725E-01  0.26721742036E+02  0.00000000000E+00 0.  1.
         11    1    4    4    0    0 -0.74551230558E+02  0.52433434530E+02  0.25355671973E+01  0.91178836005E+02  0.00000000000E+00 0. -1.
         21    1    1    2  503  501  0.14018900046E+03 -0.14819048807E+03  0.97278858519E+02  0.22600122327E+03  0.00000000000E+00 0. -1.
          1    1    1    2  501    0 -0.50965000600E+01  0.31603454936E+02 -0.73845156263E+02  0.80485152545E+02  0.00000000000E+00 0. -1.
<scales pt_clust_5="13000.00000" pt_clust_6="13000.00000" pt_clust_7="13000.00000" pt_clust_8="13000.00000" pt_clust_9="168.13286" pt_clust_10="13000.00000"></scales>
<clustering>
<clus scale="   80.117">  5  6 -1 -1</clus>
<clus scale="   92.114">  7  8 -1 -1</clus>
<clus scale="   32.012">  7 10 -1 -1</clus>
<clus scale="  137.736">  2  5  1 -1</clus>
<clus scale="  168.133">  1  9  2 -1</clus>
<clus scale="  168.133">  1  5  2 -1</clus>
</clustering>
</event>
<event>
10    4  0.2759992E-005  0.1048533E+04  0.7546771E-02  0.9926966E-01
         -1   -1    0    0    0  501 -0.00000000000E+00  0.00000000000E+00  0.11034120666E+04  0.11034120666E+04  0.00000000000E+00 0.  1.
         21   -1    0    0  503  502  0.00000000000E+00 -0.00000000000E+00 -0.47950259554E+03  0.47950259554E+03  0.00000000000E+00 0.  1.
         24    2    1    2    0    0  0.23423238953E+02 -0.64339313484E+02  0.40654144353E+03  0.41982884570E+03  0.79322878130E+02 0.  0.
         23    2    1    2    0    0 -0.11106705821E+02 -0.47689339252E+03  0.23468074872E+03  0.53936078536E+03  0.91018329032E+02 0.  0.
        -13    1    3    3    0    0 -0.21810810381E+02 -0.43601141963E+02  0.27296867077E+03  0.27728805645E+03  0.00000000000E+00 0.  1.
         14    1    3    3    0    0  0.45234049335E+02 -0.20738171521E+02  0.13357277276E+03  0.14254078925E+03  0.00000000000E+00 0. -1.
        -11    1    4    4    0    0  0.32825233212E+01 -0.42996609618E+03  0.23554700680E+03  0.49026932520E+03  0.00000000000E+00 0.  1.
         11    1    4    4    0    0 -0.14389229143E+02 -0.46927296344E+02 -0.86625807892E+00  0.49091460159E+02  0.00000000000E+00 0. -1.
         21    1    1    2  503  501  0.23942992665E+02 -0.39864416011E+01 -0.70651168285E+02  0.74704392069E+02  0.00000000000E+00 0.  1.
         -2    1    1    2    0  502 -0.36259525797E+02  0.54521914760E+03  0.53338447093E+02  0.54902063902E+03  0.00000000000E+00 0.  1.
<scales pt_clust_5="13000.00000" pt_clust_6="13000.00000" pt_clust_7="13000.00000" pt_clust_8="13000.00000" pt_clust_9="24.27259" pt_clust_10="13000.00000"></scales>
<clustering>
<clus scale="   24.273">  2  9  1 -1</clus>
<clus scale="   79.323">  5  6 -1 -1</clus>
<clus scale="   91.018">  7  8 -1 -1</clus>
<clus scale="  104.915">  1  5  2 -1</clus>
<clus scale="  514.976">  7 10 -1 -1</clus>
<clus scale="   24.273">  2  5  1 -1</clus>
</clustering>
</event>
<event>
10    4  0.2759992E-005  0.7203714E+03  0.7546771E-02  0.9953553E-01
         -1   -1    0    0    0  501 -0.00000000000E+00  0.00000000000E+00  0.33465525160E+03  0.33465525160E+03  0.00000000000E+00 0.  1.
         21   -1    0    0  503  502  0.00000000000E+00 -0.00000000000E+00 -0.13525068174E+04  0.13525068174E+04  0.00000000000E+00 0.  1.
         24    2    1    2    0    0 -0.24432762308E+03 -0.15587441877E+03  0.11388309430E+03  0.32112949517E+03  0.78498227224E+02 0.  0.
         23    2    1    2    0    0 -0.33857800032E+02 -0.19208769775E+03 -0.13122402722E+03  0.25226588514E+03  0.91511186407E+02 0.  0.
        -13    1    3    3    0    0 -0.17394840773E+03 -0.11287897607E+03  0.11793863263E+03  0.23855656112E+03  0.00000000000E+00 0.  1.
         14    1    3    3    0    0 -0.70379215348E+02 -0.42995442700E+02 -0.40555383284E+01  0.82572934047E+02  0.00000000000E+00 0. -1.
        -11    1    4    4    0    0  0.82882944637E+01 -0.14257056644E+03 -0.11945562839E+03  0.18618461105E+03  0.00000000000E+00 0.  1.
         11    1    4    4    0    0 -0.42146094496E+02 -0.49517131307E+02 -0.11768398837E+02  0.66081274090E+02  0.00000000000E+00 0. -1.
         21    1    1    2  503  501  0.48501176354E+02 -0.18757983059E+01 -0.30490911694E+02  0.57319965308E+02  0.00000000000E+00 0. -1.
         -2    1    1    2    0  502  0.22968424675E+03  0.34983791482E+03 -0.97001972122E+03  0.10564467234E+04  0.00000000000E+00 0.  1.
<scales pt_clust_5="13000.00000" pt_clust_6="13000.00000" pt_clust_7="13000.00000" pt_clust_8="13000.00000" pt_clust_9="48.53746" pt_clust_10="13000.00000"></scales>
<clustering>
<clus scale="   48.537">  2  9  1 -1</clus>
<clus scale="   78.498">  5  6 -1 -1</clus>
<clus scale="   91.511">  7  8 -1 -1</clus>
<clus scale="  297.219">  1  5  2 -1</clus>
<clus scale="  319.412">  7 10 -1 -1</clus>
<clus scale="   48.537">  2  5  1 -1</clus>
</clustering>
</event>
<event>
10    4  0.2759992E-005  0.3052458E+03  0.7546771E-02  0.1112407E+00
         21   -1    0    0  501  502  0.00000000000E+00  0.00000000000E+00  0.12448967500E+03  0.12448967500E+03  0.00000000000E+00 0. -1.
          2   -1    0    0  503    0 -0.00000000000E+00 -0.00000000000E+00 -0.10004611778E+04  0.10004611778E+04  0.00000000000E+00 0. -1.
         24    2    1    2    0    0  0.17436710188E+03  0.62468679774E+02 -0.12265252235E+03  0.23610568335E+03  0.79975185526E+02 0.  0.
         23    2    1    2    0    0  0.99198162986E+02 -0.21336336671E+02 -0.28801777257E+03  0.31898019560E+03  0.92187922576E+02 0.  0.
        -13    1    3    3    0    0  0.43790530780E+02 -0.17348976460E+02 -0.42033757972E+02  0.63130296843E+02  0.00000000000E+00 0.  1.
         14    1    3    3    0    0  0.13057657111E+03  0.79817656234E+02 -0.80618764374E+02  0.17297538651E+03  0.00000000000E+00 0. -1.
        -13    1    4    4    0    0  0.91145744213E+02  0.45610331858E+01 -0.27327784240E+03  0.28811304875E+03  0.00000000000E+00 0. -1.
         13    1    4    4    0    0  0.80524187731E+01 -0.25897369857E+02 -0.14739930168E+02  0.30867146855E+02  0.00000000000E+00 0.  1.
         21    1    1    2  503  502 -0.12412791506E+03  0.80967698371E+01 -0.66288035084E+02  0.14095176684E+03  0.00000000000E+00 0. -1.
          1    1    1    2  501    0 -0.14943734981E+03 -0.49229112940E+02 -0.39901317278E+03  0.42891320699E+03  0.00000000000E+00 0. -1.
<scales pt_clust_5="13000.00000" pt_clust_6="13000.00000" pt_clust_7="13000.00000" pt_clust_8="13000.00000" pt_clust_9="124.39171" pt_clust_10="13000.00000"></scales>
<clustering>
<clus scale="   79.975">  5  6 -1 -1</clus>
<clus scale="   92.188">  7  8 -1 -1</clus>
<clus scale="  124.392">  1  9  2 -1</clus>
<clus scale="  140.504">  2  5  1 -1</clus>
<clus scale="  108.908">  7 10 -1 -1</clus>
<clus scale="  124.392">  1  5  2 -1</clus>
</clustering>
</event>
<event>
10    4  0.2759992E-005  0.2647659E+03  0.7546771E-02  0.1148455E+00
         21   -1    0    0  503  502  0.00000000000E+00  0.00000000000E+00  0.15186480985E+03  0.15186480985E+03  0.00000000000E+00 0.  1.
         -1   -1    0    0    0  501 -0.00000000000E+00 -0.00000000000E+00 -0.31849178299E+03  0.31849178299E+03  0.00000000000E+00 0.  1.
         24    2    1    2    0    0 -0.42776434642E+02 -0.37810412315E+02 -0.40509541906E+02  0.10573892074E+03  0.79248001451E+02 0.  0.
         23    2    1    2    0    0 -0.20995738957E+02  0.10605157664E+03  0.77359219761E+01  0.14309390533E+03  0.93425174829E+02 0.  0.
        -11    1    3    3    0    0  0.23181409964E+02 -0.62135272442E+01 -0.14902196264E+02  0.28249975968E+02  0.00000000000E+00 0.  1.
         12    1    3    3    0    0 -0.65957844605E+02 -0.31596885071E+02 -0.25607345641E+02  0.77488944773E+02  0.00000000000E+00 0. -1.
        -11    1    4    4    0    0 -0.48627561059E+02  0.20361628652E+02 -0.10113778093E+00  0.52718553136E+02  0.00000000000E+00 0.  1.
         11    1    4    4    0    0  0.27631822102E+02  0.85689947985E+02  0.78370597570E+01  0.90375352192E+02  0.00000000000E+00 0. -1.
         21    1    1    2  503  501  0.62246109830E+02  0.36047177911E+02 -0.60813551975E+02  0.94192703157E+02  0.00000000000E+00 0.  1.
         -2    1    1    2    0  502  0.15260637693E+01 -0.10428834223E+03 -0.73039801230E+02  0.12733106361E+03  0.00000000000E+00 0.  1.
<scales pt_clust_5="13000.00000" pt_clust_6="13000.00000" pt_clust_7="13000.00000" pt_clust_8="13000.00000" pt_clust_9="71.93040" pt_clust_10="13000.00000"></scales>
<clustering>
<clus scale="   71.930">  1  9  2 -1</clus>
<clus scale="   79.248">  5  6 -1 -1</clus>
<clus scale="   88.872">  2  5  1 -1</clus>
<clus scale="   93.425">  7  8 -1 -1</clus>
<clus scale="  110.619">  7 10 -1 -1</clus>
<clus scale="   71.930">  1  5  2 -1</clus>
</clustering>
</event>
<event>
10    4  0.2759992E-005  0.2275573E+03  0.7546771E-02  0.1134648E+00
          2   -1    0    0  503    0 -0.00000000000E+00  0.00000000000E+00  0.20453627365E+04  0.20453627365E+04  0.00000000000E+00 0. -1.
         21   -1    0    0  501  502  0.00000000000E+00 -0.00000000000E+00 -0.36660593201E+02  0.36660593201E+02  0.00000000000E+00 0. -1.
         24    2    1    2    0    0 -0.38567544132E+02 -0.15987659081E+03  0.11831707940E+04  0.11974248898E+04  0.82977461649E+02 0.  0.
         23    2    1    2    0    0 -0.43687577149E+01  0.84991044790E+02  0.35148905943E+03  0.37324513021E+03  0.92329868322E+02 0.  0.
        -11    1    3    3    0    0  0.24995304392E+02 -0.58648625226E+02  0.35618029292E+03  0.36184088706E+03  0.00000000000E+00 0.  1.
         12    1    3    3    0    0 -0.63562848524E+02 -0.10122796559E+03  0.82699050106E+03  0.83558400270E+03  0.00000000000E+00 0. -1.
        -11    1    4    4    0    0  0.33863352913E+02  0.21114345926E+02  0.57596627249E+02  0.70070776682E+02  0.00000000000E+00 0. -1.
         11    1    4    4    0    0 -0.38232110628E+02  0.63876698864E+02  0.29389243218E+03  0.30317435353E+03  0.00000000000E+00 0.  1.
         21    1    1    2  503  502  0.95958682249E+01 -0.55806882850E+02  0.12871437174E+03  0.14061962293E+03  0.00000000000E+00 0. -1.
          1    1    1    2  501    0  0.33340433622E+02  0.13069242887E+03  0.34532791812E+03  0.37073368678E+03  0.00000000000E+00 0. -1.
<scales pt_clust_5="13000.00000" pt_clust_6="13000.00000" pt_clust_7="13000.00000" pt_clust_8="13000.00000" pt_clust_9="56.62587" pt_clust_10="13000.00000"></scales>
<clustering>
<clus scale="   56.626">  2  9  1 -1</clus>
<clus scale="   82.977">  5  6 -1 -1</clus>
<clus scale="   92.330">  7  8 -1 -1</clus>
<clus scale="  113.892">  7 10 -1 -1</clus>
<clus scale="  195.130">  1  5  2 -1</clus>
<clus scale="   56.626">  2  5  1 -1</clus>
</clustering>
</event>
<event>
10    4  0.2759992E-005  0.1976569E+03  0.7546771E-02  0.1176410E+00
         21   -1    0    0  501  502  0.00000000000E+00  0.00000000000E+00  0.81056922769E+03  0.81056922769E+03  0.00000000000E+00 0.  1.
         -3   -1    0    0    0  501 -0.00000000000E+00 -0.00000000000E+00 -0.56913001782E+02  0.56913001782E+02  0.00000000000E+00 0.  1.
         24    2    1    2    0    0  0.66247322945E+02  0.60733655218E+02  0.81837472894E+02  0.14542172796E+03  0.79829958791E+02 0.  0.
         23    2    1    2    0    0  0.40633894547E+02 -0.14239981675E+02  0.24640716727E+03  0.26705475586E+03  0.93529995605E+02 0.  0.
        -11    1    3    3    0    0  0.59225283208E+02  0.70911976931E+02  0.38046502832E+02  0.99918361781E+02  0.00000000000E+00 0.  1.
         12    1    3    3    0    0  0.70220397366E+01 -0.10178321712E+02  0.43790970062E+02  0.45503366182E+02  0.00000000000E+00 0. -1.
        -11    1    4    4    0    0 -0.97625974364E+01  0.32246222498E+02  0.67028222471E+02  0.75019396037E+02  0.00000000000E+00 0.  1.
         11    1    4    4    0    0  0.50396491983E+02 -0.46486204173E+02  0.17937894480E+03  0.19203535982E+03  0.00000000000E+00 0. -1.
         21    1    1    2  503  502 -0.28958316059E+02 -0.43504578854E+02  0.31803683786E+03  0.32230212951E+03  0.00000000000E+00 0.  1.
         -4    1    1    2    0  503 -0.77922901433E+02 -0.29890946894E+01  0.10737474788E+03  0.13270361614E+03  0.00000000000E+00 0.  1.
<scales pt_clust_5="13000.00000" pt_clust_6="13000.00000" pt_clust_7="13000.00000" pt_clust_8="13000.00000" pt_clust_9="52.26119" pt_clust_10="13000.00000"></scales>
<clustering>
<clus scale="   52.261">  1  9  2 -1</clus>
<clus scale="   79.830">  5  6 -1 -1</clus>
<clus scale="   93.530">  7  8 -1 -1</clus>
<clus scale="   86.098">  7 10 -1 -1</clus>
<clus scale="  111.729">  2  5  1 -1</clus>
<clus scale="   52.261">  1  5  2 -1</clus>
</clustering>
</event>
<event>
10    4  0.2759992E-005  0.2459489E+03  0.7546771E-02  0.1159858E+00
         21   -1    0    0  503  502  0.00000000000E+00  0.00000000000E+00  0.51383554930E+02  0.51383554930E+02  0.00000000000E+00 0. -1.
          2   -1    0    0  502    0 -0.00000000000E+00 -0.00000000000E+00 -0.13724308453E+04  0.13724308453E+04  0.00000000000E+00 0. -1.
         24    2    1    2    0    0  0.42798195131E+01  0.14084932422E+02 -0.12609413396E+02  0.83240210443E+02  0.80952042297E+02 0.  0.
         23    2    1    2    0    0  0.77512121465E+02 -0.39101857852E+02 -0.59758153154E+03  0.61070045494E+03  0.91182644039E+02 0.  0.
        -11    1    3    3    0    0 -0.14241335557E+02 -0.19478466534E+02 -0.32161997110E+02  0.40207217699E+02  0.00000000000E+00 0.  1.
         12    1    3    3    0    0  0.18521155071E+02  0.33563398956E+02  0.19552583714E+02  0.43032992744E+02  0.00000000000E+00 0. -1.
        -11    1    4    4    0    0  0.62036178246E+01 -0.50445268271E+02 -0.18530546680E+03  0.19214922844E+03  0.00000000000E+00 0.  1.
         11    1    4    4    0    0  0.71308503640E+02  0.11343410419E+02 -0.41227606474E+03  0.41855122650E+03  0.00000000000E+00 0. -1.
         21    1    1    2  503  501  0.27336028818E+02 -0.27341619057E+02 -0.10153889268E+03  0.10865067570E+03  0.00000000000E+00 0. -1.
          1    1    1    2  501    0 -0.10912796980E+03  0.52358544487E+02 -0.60931745279E+03  0.62122305917E+03  0.00000000000E+00 0. -1.
<scales pt_clust_5="13000.00000" pt_clust_6="13000.00000" pt_clust_7="13000.00000" pt_clust_8="13000.00000" pt_clust_9="38.66296" pt_clust_10="13000.00000"></scales>
<clustering>
<clus scale="   38.663">  1  9  2 -1</clus>
<clus scale="   80.952">  5  6 -1 -1</clus>
<clus scale="   84.788">  2  5  1 -1</clus>
<clus scale="   91.183">  7  8 -1 -1</clus>
<clus scale="  104.899">  7 10 -1 -1</clus>
<clus scale="   38.663">  1  5  2 -1</clus>
</clustering>
</event>
<event>
10    4  0.2759992E-005  0.3610343E+03  0.7546771E-02  0.1110880E+00
         21   -1    0    0  503  502  0.00000000000E+00  0.00000000000E+00  0.39549918020E+03  0.39549918020E+03  0.00000000000E+00 0. -1.
          2   -1    0    0  502    0 -0.00000000000E+00 -0.00000000000E+00 -0.14211411371E+03  0.14211411371E+03  0.00000000000E+00 0. -1.
         24    2    1    2    0    0  0.14550024599E+02 -0.33569462628E+02  0.28527657400E+02  0.93656023501E+02  0.81357307381E+02 0.  0.
         23    2    1    2    0    0 -0.16743954858E+03  0.60164871253E+02  0.15619277565E+03  0.25598311305E+03  0.97341444626E+02 0.  0.
        -11    1    3    3    0    0 -0.24760013291E+02  0.11367873765E+02 -0.54245482078E+00  0.27250340720E+02  0.00000000000E+00 0.  1.
         12    1    3    3    0    0  0.39310037890E+02 -0.44937336393E+02  0.29070112221E+02  0.66405682781E+02  0.00000000000E+00 0. -1.
        -11    1    4    4    0    0 -0.31405307939E+02  0.55076668616E+02  0.29150243983E+02  0.69781584368E+02  0.00000000000E+00 0.  1.
         11    1    4    4    0    0 -0.13603424064E+03  0.50882026374E+01  0.12704253167E+03  0.18620152869E+03  0.00000000000E+00 0. -1.
         21    1    1    2  503  501  0.89321569365E+01  0.20052545281E+02  0.18010171908E+02  0.28394617306E+02  0.00000000000E+00 0.  1.
          1    1    1    2  501    0  0.14395736704E+03 -0.46647953907E+02  0.50654461533E+02  0.15957954005E+03  0.00000000000E+00 0. -1.
<scales pt_clust_5="13000.00000" pt_clust_6="13000.00000" pt_clust_7="13000.00000" pt_clust_8="13000.00000" pt_clust_9="21.95195" pt_clust_10="13000.00000"></scales>
<clustering>
<clus scale="   21.952">  1  9  2 -1</clus>
<clus scale="   81.357">  5  6 -1 -1</clus>
<clus scale="   88.274">  2  5  1 -1</clus>
<clus scale="   97.341">  7  8 -1 -1</clus>
<clus scale="  164.880">  7 10 -1 -1</clus>
<clus scale="   21.952">  1  5  2 -1</clus>
</clustering>
</event>
<event>
10    4  0.2759992E-005  0.4429264E+03  0.7546771E-02  0.1076844E+00
         21   -1    0    0  501  502  0.00000000000E+00  0.00000000000E+00  0.76707298135E+03  0.76707298135E+03  0.00000000000E+00 0. -1.
          2   -1    0    0  503    0 -0.00000000000E+00 -0.00000000000E+00 -0.12653819152E+03  0.12653819152E+03  0.00000000000E+00 0. -1.
         24    2    1    2    0    0  0.29105041419E+02 -0.68916418223E+02  0.27189008460E+03  0.29735664558E+03  0.94340767593E+02 0.  0.
         23    2    1    2    0    0 -0.10493383773E+03  0.10826051254E+02  0.40087045771E+03  0.42211174645E+03  0.79705011992E+02 0.  0.
        -11    1    3    3    0    0 -0.91098844339E+01  0.19899290887E+02  0.72997685423E+02  0.76207833254E+02  0.00000000000E+00 0.  1.
         12    1    3    3    0    0  0.38214925853E+02 -0.88815709110E+02  0.19889239918E+03  0.22114881233E+03  0.00000000000E+00 0. -1.
        -13    1    4    4    0    0 -0.22858676930E+02  0.12387394376E+02  0.20852710960E+02  0.33328699417E+02  0.00000000000E+00 0.  1.
         13    1    4    4    0    0 -0.82075160800E+02 -0.15613431219E+01  0.38001774675E+03  0.38878304703E+03  0.00000000000E+00 0. -1.
         21    1    1    2  503  502 -0.21789135027E+02  0.80529348044E+01  0.37536955884E+02  0.44143393857E+02  0.00000000000E+00 0.  1.
          1    1    1    2  501    0  0.97617931339E+02  0.50037432164E+02 -0.69762708364E+02  0.12999938698E+03  0.00000000000E+00 0. -1.
<scales pt_clust_5="13000.00000" pt_clust_6="13000.00000" pt_clust_7="13000.00000" pt_clust_8="13000.00000" pt_clust_9="23.22964" pt_clust_10="13000.00000"></scales>
<clustering>
<clus scale="   23.230">  1  9  2 -1</clus>
<clus scale="   79.705">  7  8 -1 -1</clus>
<clus scale="   94.341">  5  6 -1 -1</clus>
<clus scale="  109.046">  7 10 -1 -1</clus>
<clus scale="  116.823">  2  5  1 -1</clus>
<clus scale="   23.230">  1  5  2 -1</clus>
</clustering>
</event>
<event>
10    4  0.2759992E-005  0.1556054E+03  0.7546771E-02  0.1200966E+00
          2   -1    0    0  503    0 -0.00000000000E+00  0.00000000000E+00  0.36055564783E+03  0.36055564783E+03  0.00000000000E+00 0. -1.
         21   -1    0    0  501  502  0.00000000000E+00 -0.00000000000E+00 -0.35078485176E+03  0.35078485176E+03  0.00000000000E+00 0.  1.
         24    2    1    2    0    0 -0.11062361915E+02 -0.13834107291E+03 -0.15103559928E+03  0.22023861485E+03  0.80203908368E+02 0.  0.
         23    2    1    2    0    0 -0.13007435403E+02  0.79537490139E+02  0.22255424677E+03  0.25344236949E+03  0.90593797716E+02 0.  0.
        -11    1    3    3    0    0  0.26972054253E+02 -0.10144444826E+03 -0.81945745558E+02  0.13316746228E+03  0.00000000000E+00 0.  1.
         12    1    3    3    0    0 -0.38034416168E+02 -0.36896624644E+02 -0.69089853724E+02  0.87071152577E+02  0.00000000000E+00 0. -1.
        -11    1    4    4    0    0 -0.52132024455E+02  0.41454355324E+02  0.12592898916E+03  0.14245814073E+03  0.00000000000E+00 0.  1.
         11    1    4    4    0    0  0.39124589051E+02  0.38083134815E+02  0.96625257612E+02  0.11098422876E+03  0.00000000000E+00 0. -1.
         21    1    1    2  503  502  0.38546251807E+01  0.35786619184E+02 -0.14476400750E+03  0.14917157275E+03  0.00000000000E+00 0.  1.
          1    1    1    2  501    0  0.20215172137E+02  0.23016963584E+02  0.83016156079E+02  0.88487942497E+02  0.00000000000E+00 0. -1.
<scales pt_clust_5="13000.00000" pt_clust_6="13000.00000" pt_clust_7="13000.00000" pt_clust_8="13000.00000" pt_clust_9="35.99361" pt_clust_10="13000.00000"></scales>
<clustering>
<clus scale="   35.994">  2  9  1 -1</clus>
<clus scale="   80.204">  5  6 -1 -1</clus>
<clus scale="   90.594">  7  8 -1 -1</clus>
<clus scale="   31.030">  7 10 -1 -1</clus>
<clus scale="  132.936">  1  5  2 -1</clus>
<clus scale="   35.994">  2  5  1 -1</clus>
</clustering>
</event>
<event>
10    4  0.2759992E-005  0.1845561E+03  0.7546771E-02  0.1198879E+00
         21   -1    0    0  503  502  0.00000000000E+00  0.00000000000E+00  0.15088360742E+03  0.15088360742E+03  0.00000000000E+00 0. -1.
          2   -1    0    0  502    0 -0.00000000000E+00 -0.00000000000E+00 -0.70238655821E+03  0.70238655821E+03  0.00000000000E+00 0. -1.
         24    2    1    2    0    0 -0.79088583895E+00 -0.59302128859E+02 -0.37800648144E+02  0.10767153646E+03  0.81528539646E+02 0.  0.
         23    2    1    2    0    0 -0.55951866467E+02 -0.42595841261E+02 -0.34526712952E+03  0.36374579586E+03  0.90313876148E+02 0.  0.
        -11    1    3    3    0    0 -0.20066295208E+02  0.96762524168E+01 -0.27377560829E+02  0.35296131533E+02  0.00000000000E+00 0.  1.
         12    1    3    3    0    0  0.19275409369E+02 -0.68978381276E+02 -0.10423087315E+02  0.72375404931E+02  0.00000000000E+00 0. -1.
        -11    1    4    4    0    0 -0.68074315286E+02 -0.60769436489E+02 -0.25380644734E+03  0.26971234589E+03  0.00000000000E+00 0. -1.
         11    1    4    4    0    0  0.12122448819E+02  0.18173595228E+02 -0.91460682175E+02  0.94033449967E+02  0.00000000000E+00 0.  1.
         21    1    1    2  503  501  0.43370033330E+01  0.58364977068E+02  0.93993428709E+02  0.11072508653E+03  0.00000000000E+00 0. -1.
          1    1    1    2  501    0  0.52405748973E+02  0.43532993051E+02 -0.26242860183E+03  0.27112774677E+03  0.00000000000E+00 0. -1.
<scales pt_clust_5="13000.00000" pt_clust_6="13000.00000" pt_clust_7="13000.00000" pt_clust_8="13000.00000" pt_clust_9="58.52589" pt_clust_10="13000.00000"></scales>
<clustering>
<clus scale="   58.526">  1  9  2 -1</clus>
<clus scale="   81.529">  5  6 -1 -1</clus>
<clus scale="   83.373">  2  5  1 -1</clus>
<clus scale="   90.314">  7  8 -1 -1</clus>
<clus scale="   67.484">  7 10 -1 -1</clus>
<clus scale="   58.526">  1  5  2 -1</clus>
</clustering>
</event>
<event>
10    4  0.2759992E-005  0.2321160E+03  0.7546771E-02  0.1151575E+00
         21   -1    0    0  503  502  0.00000000000E+00  0.00000000000E+00  0.56945613368E+03  0.56945613368E+03  0.00000000000E+00 0. -1.
          2   -1    0    0  502    0 -0.00000000000E+00 -0.00000000000E+00 -0.23165495809E+03  0.23165495809E+03  0.00000000000E+00 0. -1.
         24    2    1    2    0    0  0.45837702880E+02 -0.82762696635E+02 -0.11440733227E+03  0.16859926899E+03  0.79911931950E+02 0.  0.
         23    2    1    2    0    0 -0.21242474226E+02 -0.54763028913E+02  0.69910185266E+02  0.12625622909E+03  0.87195007501E+02 0.  0.
        -13    1    3    3    0    0 -0.82181382175E+01 -0.24106167583E+02  0.40505286020E+01  0.25788600064E+02  0.00000000000E+00 0.  1.
         14    1    3    3    0    0  0.54055841098E+02 -0.58656529052E+02 -0.11845786087E+03  0.14281066893E+03  0.00000000000E+00 0. -1.
        -11    1    4    4    0    0 -0.21438682148E+02 -0.22595221695E+02 -0.15643188584E+02  0.34854992250E+02  0.00000000000E+00 0.  1.
         11    1    4    4    0    0  0.19620792187E+00 -0.32167807219E+02  0.85553373850E+02  0.91401236840E+02  0.00000000000E+00 0. -1.
         21    1    1    2  503  501  0.43950874229E+02  0.41110995356E+02  0.38325767008E+03  0.38795390829E+03  0.00000000000E+00 0. -1.
          1    1    1    2  501    0 -0.68546102884E+02  0.96414730193E+02 -0.95934748163E+00  0.11830168539E+03  0.00000000000E+00 0. -1.
<scales pt_clust_5="13000.00000" pt_clust_6="13000.00000" pt_clust_7="13000.00000" pt_clust_8="13000.00000" pt_clust_9="60.18134" pt_clust_10="13000.00000"></scales>
<clustering>
<clus scale="   60.181">  1  9  2 -1</clus>
<clus scale="   79.912">  5  6 -1 -1</clus>
<clus scale="   87.195">  7  8 -1 -1</clus>
<clus scale="  122.353">  7 10 -1 -1</clus>
<clus scale="  122.500">  2  5  1 -1</clus>
<clus scale="   60.181">  1  5  2 -1</clus>
</clustering>
</event>
<event>
10    4  0.2759992E-005  0.4478179E+03  0.7546771E-02  0.1070293E+00
         21   -1    0    0  501  502  0.00000000000E+00  0.00000000000E+00  0.29935191100E+03  0.29935191100E+03  0.00000000000E+00 0. -1.
          2   -1    0    0  503    0 -0.00000000000E+00 -0.00000000000E+00 -0.37151957855E+03  0.37151957855E+03  0.00000000000E+00 0. -1.
         24    2    1    2    0    0  0.92375304975E+02 -0.90266051462E+02  0.43378369474E+02  0.15767021944E+03  0.79354005226E+02 0.  0.
         23    2    1    2    0    0  0.12921053479E+03  0.16206291511E+03 -0.65837535832E+01  0.22699301037E+03  0.92318634058E+02 0.  0.
        -11    1    3    3    0    0  0.35253370648E+02 -0.58859780071E+01  0.42814488224E+02  0.55772083349E+02  0.00000000000E+00 0.  1.
         12    1    3    3    0    0  0.57121934327E+02 -0.84380073455E+02  0.56388124965E+00  0.10189813609E+03  0.00000000000E+00 0. -1.
        -11    1    4    4    0    0  0.13636759151E+03  0.11719973154E+03 -0.16256891575E+02  0.18054413203E+03  0.00000000000E+00 0. -1.
         11    1    4    4    0    0 -0.71570567219E+01  0.44863183567E+02  0.96731379918E+01  0.46448878342E+02  0.00000000000E+00 0.  1.
         21    1    1    2  503  502 -0.48033558441E+02  0.26798063434E+02  0.68694389376E+01  0.55430570370E+02  0.00000000000E+00 0. -1.
          1    1    1    2  501    0 -0.17355228132E+03 -0.98594927079E+02 -0.11583172237E+03  0.23077768936E+03  0.00000000000E+00 0. -1.
<scales pt_clust_5="13000.00000" pt_clust_6="13000.00000" pt_clust_7="13000.00000" pt_clust_8="13000.00000" pt_clust_9="55.00326" pt_clust_10="13000.00000"></scales>
<clustering>
<clus scale="   55.003">  1  9  2 -1</clus>
<clus scale="   79.354">  5  6 -1 -1</clus>
<clus scale="   92.319">  7  8 -1 -1</clus>
<clus scale="  135.144">  2  5  1 -1</clus>
<clus scale="  198.155">  7 10 -1 -1</clus>
<clus scale="   55.003">  1  5  2 -1</clus>
</clustering>
</event>
<event>
10    4  0.2759992E-005  0.3031779E+03  0.7546771E-02  0.1106189E+00
          2   -1    0    0  503    0 -0.00000000000E+00  0.00000000000E+00  0.21433971150E+04  0.21433971150E+04  0.00000000000E+00 0. -1.
         21   -1    0    0  501  502  0.00000000000E+00 -0.00000000000E+00 -0.77992528251E+02  0.77992528251E+02  0.00000000000E+00 0.  1.
         24    2    1    2    0    0  0.27011716670E+02 -0.13787047605E+03  0.66792663928E+03  0.68725928280E+03  0.80382991509E+02 0.  0.
         23    2    1    2    0    0  0.48837384022E+01 -0.33397550444E+02  0.26884895079E+03  0.28604468562E+03  0.91665459963E+02 0.  0.
        -13    1    3    3    0    0 -0.25086831274E+02 -0.19294492027E+02  0.15828009464E+03  0.16141318064E+03  0.00000000000E+00 0.  1.
         14    1    3    3    0    0  0.52098547944E+02 -0.11857598402E+03  0.50964654464E+03  0.52584610215E+03  0.00000000000E+00 0. -1.
        -11    1    4    4    0    0  0.27501674543E+02 -0.41431109070E+02  0.25165058578E+03  0.25651685368E+03  0.00000000000E+00 0.  1.
         11    1    4    4    0    0 -0.22617936140E+02  0.80335586259E+01  0.17198365015E+02  0.29527831933E+02  0.00000000000E+00 0. -1.
         21    1    1    2  503  502  0.90098115735E+02  0.71805426145E+01 -0.10281530179E+02  0.90966700029E+02  0.00000000000E+00 0.  1.
          1    1    1    2  501    0 -0.12199357081E+03  0.16408748388E+03  0.11389105268E+04  0.11571189748E+04  0.00000000000E+00 0. -1.
<scales pt_clust_5="13000.00000" pt_clust_6="13000.00000" pt_clust_7="13000.00000" pt_clust_8="13000.00000" pt_clust_9="90.38380" pt_clust_10="13000.00000"></scales>
<clustering>
<clus scale="   80.383">  5  6 -1 -1</clus>
<clus scale="   90.384">  2  9  1 -1</clus>
<clus scale="   91.665">  7  8 -1 -1</clus>
<clus scale="  168.042">  1  5  2 -1</clus>
<clus scale="   82.392">  7 10 -1 -1</clus>
<clus scale="   90.384">  2  5  1 -1</clus>
</clustering>
</event>
<event>
10    4  0.2759992E-005  0.5304168E+03  0.7546771E-02  0.1015653E+00
          2   -1    0    0  503    0 -0.00000000000E+00  0.00000000000E+00  0.19818147789E+04  0.19818147789E+04  0.00000000000E+00 0. -1.
         21   -1    0    0  501  502  0.00000000000E+00 -0.00000000000E+00 -0.28136430734E+03  0.28136430734E+03  0.00000000000E+00 0. -1.
         24    2    1    2    0    0  0.35778728753E+03 -0.11832146293E+03  0.85515270330E+03  0.93879888978E+03  0.89696698894E+02 0.  0.
         23    2    1    2    0    0 -0.31517983997E+02  0.80573742331E+02  0.57841403280E+03  0.59221059744E+03  0.93086449632E+02 0.  0.
        -11    1    3    3    0    0  0.30372691040E+02  0.22585321215E+01  0.13737602592E+03  0.14071166912E+03  0.00000000000E+00 0.  1.
         12    1    3    3    0    0  0.32741459649E+03 -0.12057999505E+03  0.71777667738E+03  0.79808722066E+03  0.00000000000E+00 0. -1.
        -13    1    4    4    0    0  0.24732256576E+02  0.61668418757E+02  0.34737529219E+03  0.35367254914E+03  0.00000000000E+00 0.  1.
         13    1    4    4    0    0 -0.56250240572E+02  0.18905323574E+02  0.23103874061E+03  0.23853804830E+03  0.00000000000E+00 0. -1.
         21    1    1    2  503  502  0.16003122164E+02 -0.20536922083E+02 -0.17120879901E+03  0.17317712882E+03  0.00000000000E+00 0. -1.
          1    1    1    2  501    0 -0.34227242570E+03  0.58284642682E+02  0.43809253446E+03  0.55899247018E+03  0.00000000000E+00 0. -1.
<scales pt_clust_5="13000.00000" pt_clust_6="13000.00000" pt_clust_7="13000.00000" pt_clust_8="13000.00000" pt_clust_9="26.03584" pt_clust_10="13000.00000"></scales>
<clustering>
<clus scale="   26.036">  2  9  1 -1</clus>
<clus scale="   89.697">  5  6 -1 -1</clus>
<clus scale="   93.086">  7  8 -1 -1</clus>
<clus scale="  336.696">  7 10 -1 -1</clus>
<clus scale="  395.481">  1  5  2 -1</clus>
<clus scale="   26.036">  2  5  1 -1</clus>
</clustering>
</event>
<event>
10    4  0.2759992E-005  0.4804158E+03  0.7546771E-02  0.1060713E+00
         21   -1    0    0  501  502  0.00000000000E+00  0.00000000000E+00  0.30642122862E+03  0.30642122862E+03  0.00000000000E+00 0. -1.
          2   -1    0    0  503    0 -0.00000000000E+00 -0.00000000000E+00 -0.79374907066E+03  0.79374907066E+03  0.00000000000E+00 0. -1.
         24    2    1    2    0    0  0.66805970674E+02  0.97666114165E+02 -0.31911992800E+03  0.34957774640E+03  0.79783236045E+02 0.  0.
         23    2    1    2    0    0 -0.57139698171E+02  0.87491047394E+02 -0.67140491326E+02  0.15297459827E+03  0.89295877056E+02 0.  0.
        -11    1    3    3    0    0  0.57255245533E+02  0.16692661797E+02 -0.11004233640E+03  0.12516438750E+03  0.00000000000E+00 0.  1.
         12    1    3    3    0    0  0.95507251411E+01  0.80973452368E+02 -0.20907759161E+03  0.22441335890E+03  0.00000000000E+00 0. -1.
        -13    1    4    4    0    0 -0.64210778650E+02  0.67103695167E+02 -0.11857945536E+02  0.93629807605E+02  0.00000000000E+00 0. -1.
         13    1    4    4    0    0  0.70710804789E+01  0.20387352227E+02 -0.55282545790E+02  0.59344790664E+02  0.00000000000E+00 0.  1.
         21    1    1    2  503  502 -0.25056553361E+03  0.42379719758E+02 -0.76267215397E+02  0.26532209751E+03  0.00000000000E+00 0. -1.
          1    1    1    2  501    0  0.24089926111E+03 -0.22753688132E+03 -0.24800207316E+02  0.33229585710E+03  0.00000000000E+00 0. -1.
<scales pt_clust_5="13000.00000" pt_clust_6="13000.00000" pt_clust_7="13000.00000" pt_clust_8="13000.00000" pt_clust_9="239.05131" pt_clust_10="13000.00000"></scales>
<clustering>
<clus scale="   79.783">  5  6 -1 -1</clus>
<clus scale="   89.296">  7  8 -1 -1</clus>
<clus scale="  142.713">  2  5  1 -1</clus>
<clus scale="  239.051">  1  9  2 -1</clus>
<clus scale="  168.375">  7 10 -1 -1</clus>
<clus scale="  239.051">  1  5  2 -1</clus>
</clustering>
</event>
<event>
10    4  0.2759992E-005  0.3196156E+03  0.7546771E-02  0.1102631E+00
          2   -1    0    0  502    0 -0.00000000000E+00  0.00000000000E+00  0.26392961976E+04  0.26392961976E+04  0.00000000000E+00 0. -1.
         21   -1    0    0  503  502  0.00000000000E+00 -0.00000000000E+00 -0.33084162679E+03  0.33084162679E+03  0.00000000000E+00 0.  1.
         24    2    1    2    0    0 -0.21895150027E+03 -0.13847437849E+03  0.98111562119E+03  0.10179680311E+04  0.80969977526E+02 0.  0.
         23    2    1    2    0    0  0.74456104569E+02 -0.59367027745E+02  0.47200324548E+03  0.48922791387E+03  0.86537462863E+02 0.  0.
        -13    1    3    3    0    0 -0.41997415118E+02 -0.30120542282E+02  0.97873061976E+02  0.11068046894E+03  0.00000000000E+00 0.  1.
         14    1    3    3    0    0 -0.17695408516E+03 -0.10835383621E+03  0.88324255921E+03  0.90728756217E+03  0.00000000000E+00 0. -1.
        -13    1    4    4    0    0  0.11705086889E+02  0.21154496437E+02  0.13329979806E+03  0.13547456566E+03  0.00000000000E+00 0.  1.
         13    1    4    4    0    0  0.62751017680E+02 -0.80521524182E+02  0.33870344742E+03  0.35375334821E+03  0.00000000000E+00 0. -1.
         21    1    1    2  503  501  0.22719811710E+03  0.67007128490E+02 -0.25141225793E+03  0.34542302054E+03  0.00000000000E+00 0.  1.
          1    1    1    2  501    0 -0.82702721400E+02  0.13083427774E+03  0.11067479621E+04  0.11175188589E+04  0.00000000000E+00 0. -1.
<scales pt_clust_5="13000.00000" pt_clust_6="13000.00000" pt_clust_7="13000.00000" pt_clust_8="13000.00000" pt_clust_9="236.87326" pt_clust_10="13000.00000"></scales>
<clustering>
<clus scale="   80.970">  5  6 -1 -1</clus>
<clus scale="   86.537">  7  8 -1 -1</clus>
<clus scale="  154.782">  7 10 -1 -1</clus>
<clus scale="  236.873">  2  9  1 -1</clus>
<clus scale="  157.182">  1  5  2 -1</clus>
<clus scale="  236.873">  2  5  1 -1</clus>
</clustering>
</event>
<event>
10    4  0.2759992E-005  0.3331348E+03  0.7546771E-02  0.1113200E+00
          2   -1    0    0  503    0 -0.00000000000E+00  0.00000000000E+00  0.68844458417E+03  0.68844458417E+03  0.00000000000E+00 0. -1.
         21   -1    0    0  501  502  0.00000000000E+00 -0.00000000000E+00 -0.17418407142E+03  0.17418407142E+03  0.00000000000E+00 0. -1.
         24    2    1    2    0    0  0.65234697268E+02 -0.30386829848E+02  0.38769455795E+03  0.40235284967E+03  0.80011375576E+02 0.  0.
         23    2    1    2    0    0 -0.26304191035E+01 -0.89929225425E+02 -0.26505338961E+02  0.12979725443E+03  0.89725189183E+02 0.  0.
        -13    1    3    3    0    0  0.51932072288E+02  0.90535814098E+01  0.11508321532E+03  0.12658220221E+03  0.00000000000E+00 0.  1.
         14    1    3    3    0    0  0.13302624980E+02 -0.39440411258E+02  0.27261134263E+03  0.27577064746E+03  0.00000000000E+00 0. -1.
        -11    1    4    4    0    0  0.24771994833E+02 -0.19767845531E+02 -0.42280886272E+02  0.52840257275E+02  0.00000000000E+00 0. -1.
         11    1    4    4    0    0 -0.27402413936E+02 -0.70161379894E+02  0.15775547311E+02  0.76956997155E+02  0.00000000000E+00 0.  1.
         21    1    1    2  503  502 -0.36696042072E+02  0.35960155877E+01 -0.69019052750E+02  0.78250626032E+02  0.00000000000E+00 0.  1.
          1    1    1    2  501    0 -0.25908236093E+02  0.11672003969E+03  0.22209034652E+03  0.25222792546E+03  0.00000000000E+00 0. -1.
<scales pt_clust_5="13000.00000" pt_clust_6="13000.00000" pt_clust_7="13000.00000" pt_clust_8="13000.00000" pt_clust_9="36.87182" pt_clust_10="13000.00000"></scales>
<clustering>
<clus scale="   36.872">  2  9  1 -1</clus>
<clus scale="   80.011">  5  6 -1 -1</clus>
<clus scale="   89.725">  7  8 -1 -1</clus>
<clus scale="  105.939">  1  5  2 -1</clus>
<clus scale="   94.925">  7 10 -1 -1</clus>
<clus scale="   36.872">  2  5  1 -1</clus>
</clustering>
</event>
<event>
10    4  0.2759992E-005  0.2455177E+03  0.7546771E-02  0.1137980E+00
         21   -1    0    0  503  502  0.00000000000E+00  0.00000000000E+00  0.41359859948E+03  0.41359859948E+03  0.00000000000E+00 0. -1.
          4   -1    0    0  502    0 -0.00000000000E+00 -0.00000000000E+00 -0.25565501993E+03  0.25565501993E+03  0.00000000000E+00 0. -1.
         24    2    1    2    0    0  0.14561307273E+03 -0.61394789761E+02  0.49491551859E+02  0.18436451871E+03  0.81045511245E+02 0.  0.
         23    2    1    2    0    0  0.13110892960E+02 -0.36658369845E+02  0.23132292230E+02  0.10127525073E+03  0.90586101981E+02 0.  0.
        -11    1    3    3    0    0  0.15252331232E+03 -0.50654876568E+02  0.55792556105E+02  0.17012373920E+03  0.00000000000E+00 0.  1.
         12    1    3    3    0    0 -0.69102395901E+01 -0.10739913192E+02 -0.63010042453E+01  0.14240779511E+02  0.00000000000E+00 0. -1.
        -11    1    4    4    0    0  0.46958546866E+02 -0.83575701615E+01 -0.64859377177E+01  0.48135449420E+02  0.00000000000E+00 0. -1.
         11    1    4    4    0    0 -0.33847653906E+02 -0.28300799684E+02  0.29618229948E+02  0.53139801307E+02  0.00000000000E+00 0.  1.
         21    1    1    2  503  501 -0.47793348340E+02  0.11376371667E+03  0.19244220340E+03  0.22860531276E+03  0.00000000000E+00 0. -1.
          3    1    1    2  501    0 -0.11093061735E+03 -0.15710557066E+02 -0.10712246794E+03  0.15500853721E+03  0.00000000000E+00 0. -1.
<scales pt_clust_5="13000.00000" pt_clust_6="13000.00000" pt_clust_7="13000.00000" pt_clust_8="13000.00000" pt_clust_9="123.39525" pt_clust_10="13000.00000"></scales>
<clustering>
<clus scale="   81.046">  5  6 -1 -1</clus>
<clus scale="   90.586">  7  8 -1 -1</clus>
<clus scale="  112.038">  7 10 -1 -1</clus>
<clus scale="  123.395">  1  9  2 -1</clus>
<clus scale="  143.288">  2  5  1 -1</clus>
<clus scale="  123.395">  1  5  2 -1</clus>
</clustering>
</event>
<event>
10    4  0.2759992E-005  0.4949997E+03  0.7546771E-02  0.1077455E+00
          2   -1    0    0  503    0 -0.00000000000E+00  0.00000000000E+00  0.13636181217E+04  0.13636181217E+04  0.00000000000E+00 0. -1.
         21   -1    0    0  501  502  0.00000000000E+00 -0.00000000000E+00 -0.19912623550E+03  0.19912623550E+03  0.00000000000E+00 0.  1.
         24    2    1    2    0    0  0.10406338615E+02 -0.33402920556E+01  0.19299769439E+03  0.20965294961E+03  0.81159101820E+02 0.  0.
         23    2    1    2    0    0  0.53407171115E+02 -0.13586869919E+03  0.11580777445E+03  0.20652260981E+03  0.89036612656E+02 0.  0.
        -11    1    3    3    0    0  0.38252732210E+02 -0.25471185318E+02  0.98878342111E+02  0.10903659634E+03  0.00000000000E+00 0.  1.
         12    1    3    3    0    0 -0.27846393595E+02  0.22130893262E+02  0.94119352275E+02  0.10061635327E+03  0.00000000000E+00 0. -1.
        -13    1    4    4    0    0 -0.13765280335E+02 -0.85685020469E+02  0.52148629907E+02  0.10124665563E+03  0.00000000000E+00 0. -1.
         13    1    4    4    0    0  0.67172451450E+02 -0.50183678717E+02  0.63659144542E+02  0.10527595417E+03  0.00000000000E+00 0.  1.
         21    1    1    2  503  502  0.16901340917E+02 -0.15105870639E+02 -0.13692886841E+03  0.13879249856E+03  0.00000000000E+00 0.  1.
          1    1    1    2  501    0 -0.80714850647E+02  0.15431486188E+03  0.99261528581E+03  0.10077762993E+04  0.00000000000E+00 0. -1.
<scales pt_clust_5="13000.00000" pt_clust_6="13000.00000" pt_clust_7="13000.00000" pt_clust_8="13000.00000" pt_clust_9="22.66810" pt_clust_10="13000.00000"></scales>
<clustering>
<clus scale="   22.668">  2  9  1 -1</clus>
<clus scale="   81.159">  5  6 -1 -1</clus>
<clus scale="   82.324">  1  5  2 -1</clus>
<clus scale="   89.037">  7  8 -1 -1</clus>
<clus scale="  162.809">  7 10 -1 -1</clus>
<clus scale="   22.668">  2  5  1 -1</clus>
</clustering>
</event>
<event>
10    4  0.2759992E-005  0.2097210E+03  0.7546771E-02  0.1175398E+00
         -3   -1    0    0    0  501 -0.00000000000E+00  0.00000000000E+00  0.17718323071E+03  0.17718323071E+03  0.00000000000E+00 0.  1.
         21   -1    0    0  501  502  0.00000000000E+00 -0.00000000000E+00 -0.28284559636E+03  0.28284559636E+03  0.00000000000E+00 0. -1.
         24    2    1    2    0    0  0.47510557034E+02 -0.43468731049E+02 -0.56598997830E+02  0.11748885101E+03  0.80333056378E+02 0.  0.
         23    2    1    2    0    0  0.73297544822E+02  0.83906518334E+02  0.36806604187E+02  0.14749926837E+03  0.89378264486E+02 0.  0.
        -11    1    3    3    0    0  0.44928568440E+02 -0.22299841926E+02  0.67834069405E+01  0.50614956502E+02  0.00000000000E+00 0.  1.
         12    1    3    3    0    0  0.25819885941E+01 -0.21168889123E+02 -0.63382404771E+02  0.66873894506E+02  0.00000000000E+00 0. -1.
        -13    1    4    4    0    0  0.23007861618E+02  0.20158327989E+02 -0.29629524086E+02  0.42586718365E+02  0.00000000000E+00 0.  1.
         13    1    4    4    0    0  0.50289683204E+02  0.63748190346E+02  0.66436128273E+02  0.10491255001E+03  0.00000000000E+00 0. -1.
         21    1    1    2  503  502 -0.59571765770E+02 -0.11265008238E+02 -0.10786301209E+03  0.12373409014E+03  0.00000000000E+00 0.  1.
         -4    1    1    2    0  503 -0.61236336086E+02 -0.29172779047E+02  0.21993040072E+02  0.71306617549E+02  0.00000000000E+00 0.  1.
<scales pt_clust_5="13000.00000" pt_clust_6="13000.00000" pt_clust_7="13000.00000" pt_clust_8="13000.00000" pt_clust_9="60.62752" pt_clust_10="13000.00000"></scales>
<clustering>
<clus scale="   60.628">  2  9  1 -1</clus>
<clus scale="   80.333">  5  6 -1 -1</clus>
<clus scale="   89.378">  7  8 -1 -1</clus>
<clus scale="   76.518">  7 10 -1 -1</clus>
<clus scale="   95.702">  1  5  2 -1</clus>
<clus scale="   60.628">  2  5  1 -1</clus>
</clustering>
</event>
<event>
10    4  0.2759992E-005  0.4273311E+03  0.7546771E-02  0.1052192E+00
          2   -1    0    0  502    0 -0.00000000000E+00  0.00000000000E+00  0.18384149311E+04  0.18384149311E+04  0.00000000000E+00 0. -1.
         21   -1    0    0  503  502  0.00000000000E+00 -0.00000000000E+00 -0.18437965817E+03  0.18437965817E+03  0.00000000000E+00 0. -1.
         24    2    1    2    0    0  0.11356697448E+03 -0.21567771166E+03  0.26923399605E+03  0.37276496087E+03  0.83978797472E+02 0.  0.
         23    2    1    2    0    0 -0.34123382148E+03 -0.14724049249E+03  0.80958926961E+03  0.89553432710E+03  0.91796851766E+02 0.  0.
        -11    1    3    3    0    0 -0.10129100738E+02 -0.33889130229E+02  0.20932797963E+02  0.41100533573E+02  0.00000000000E+00 0.  1.
         12    1    3    3    0    0  0.12369607522E+03 -0.18178858143E+03  0.24830119809E+03  0.33166442730E+03  0.00000000000E+00 0. -1.
        -13    1    4    4    0    0 -0.32149000402E+03 -0.11321177866E+03  0.68911713500E+03  0.76880111554E+03  0.00000000000E+00 0. -1.
         13    1    4    4    0    0 -0.19743817453E+02 -0.34028713829E+02  0.12047213462E+03  0.12673321156E+03  0.00000000000E+00 0.  1.
         21    1    1    2  503  501  0.24907443727E+03  0.36660050398E+03  0.46586580599E+03  0.64301240580E+03  0.00000000000E+00 0. -1.
          1    1    1    2  501    0 -0.21407590276E+02 -0.36822998333E+01  0.10934620125E+03  0.11148289546E+03  0.00000000000E+00 0. -1.
<scales pt_clust_5="13000.00000" pt_clust_6="13000.00000" pt_clust_7="13000.00000" pt_clust_8="13000.00000" pt_clust_9="408.97075" pt_clust_10="13000.00000"></scales>
<clustering>
<clus scale="   83.979">  5  6 -1 -1</clus>
<clus scale="   91.797">  7  8 -1 -1</clus>
<clus scale="   21.722">  7 10 -1 -1</clus>
<clus scale="  257.812">  1  5  2 -1</clus>
<clus scale="  408.971">  2  9  1 -1</clus>
<clus scale="  408.971">  2  5  1 -1</clus>
</clustering>
</event>
<event>
10    4  0.2759992E-005  0.3737195E+03  0.7546771E-02  0.1104622E+00
         21   -1    0    0  503  502  0.00000000000E+00  0.00000000000E+00  0.27031831380E+03  0.27031831380E+03  0.00000000000E+00 0. -1.
          4   -1    0    0  502    0 -0.00000000000E+00 -0.00000000000E+00 -0.32279708805E+03  0.32279708805E+03  0.00000000000E+00 0. -1.
         24    2    1    2    0    0 -0.48403470171E+02  0.67726475486E+01 -0.11164528553E+03  0.14558607524E+03  0.79635864049E+02 0.  0.
         23    2    1    2    0    0 -0.46546559641E+02 -0.17616415636E+03 -0.57106586600E+02  0.21152725665E+03  0.91006735305E+02 0.  0.
        -11    1    3    3    0    0  0.14687027724E+02  0.23179501447E+02 -0.24726991434E+02  0.36938085712E+02  0.00000000000E+00 0.  1.
         12    1    3    3    0    0 -0.63090497895E+02 -0.16406853899E+02 -0.86918294092E+02  0.10864798952E+03  0.00000000000E+00 0. -1.
        -11    1    4    4    0    0 -0.59432448482E+02 -0.14843437049E+03 -0.16563630322E+02  0.16074617297E+03  0.00000000000E+00 0. -1.
         11    1    4    4    0    0  0.12885888841E+02 -0.27729785873E+02 -0.40542956278E+02  0.50781083679E+02  0.00000000000E+00 0.  1.
         21    1    1    2  503  501  0.84388119028E+01  0.42887027936E+02  0.56658748078E+02  0.71559237316E+02  0.00000000000E+00 0. -1.
          3    1    1    2  501    0  0.86511217910E+02  0.12650448088E+03  0.59614349799E+02  0.16444283265E+03  0.00000000000E+00 0. -1.
<scales pt_clust_5="13000.00000" pt_clust_6="13000.00000" pt_clust_7="13000.00000" pt_clust_8="13000.00000" pt_clust_9="43.70939" pt_clust_10="13000.00000"></scales>
<clustering>
<clus scale="   43.709">  1  9  2 -1</clus>
<clus scale="   79.636">  5  6 -1 -1</clus>
<clus scale="   91.007">  7  8 -1 -1</clus>
<clus scale="   93.403">  2  5  1 -1</clus>
<clus scale="  170.149">  7 10 -1 -1</clus>
<clus scale="   43.709">  1  5  2 -1</clus>
</clustering>
</event>
<event>
10    4  0.2759992E-005  0.2023186E+03  0.7546771E-02  0.1169540E+00
          2   -1    0    0  503    0 -0.00000000000E+00  0.00000000000E+00  0.14534778397E+03  0.14534778397E+03  0.00000000000E+00 0. -1.
         21   -1    0    0  501  502  0.00000000000E+00 -0.00000000000E+00 -0.23561254100E+03  0.23561254100E+03  0.00000000000E+00 0. -1.
         24    2    1    2    0    0 -0.31071136188E+02  0.93849994595E+02 -0.27263291044E+01  0.12935944566E+03  0.83385828063E+02 0.  0.
         23    2    1    2    0    0  0.78837725247E+02 -0.10583360649E+02 -0.54633666668E+02  0.13264559372E+03  0.91008909202E+02 0.  0.
        -11    1    3    3    0    0 -0.38035159068E+02  0.34922000849E+01 -0.60574188283E+01  0.38672485175E+02  0.00000000000E+00 0.  1.
         12    1    3    3    0    0  0.69640228794E+01  0.90357794510E+02  0.33310897240E+01  0.90686960485E+02  0.00000000000E+00 0. -1.
        -11    1    4    4    0    0  0.60389608360E+01 -0.33120686943E+02  0.72950776846E+01  0.34448034922E+02  0.00000000000E+00 0.  1.
         11    1    4    4    0    0  0.72798764410E+02  0.22537326294E+02 -0.61928744353E+02  0.98197558795E+02  0.00000000000E+00 0. -1.
         21    1    1    2  503  502 -0.30801004873E+01 -0.31976539284E+02 -0.39150134187E+02  0.50643055698E+02  0.00000000000E+00 0. -1.
          1    1    1    2  501    0 -0.44686488571E+02 -0.51290094662E+02  0.62453729279E+01  0.68312229902E+02  0.00000000000E+00 0. -1.
<scales pt_clust_5="13000.00000" pt_clust_6="13000.00000" pt_clust_7="13000.00000" pt_clust_8="13000.00000" pt_clust_9="32.12454" pt_clust_10="13000.00000"></scales>
<clustering>
<clus scale="   32.125">  2  9  1 -1</clus>
<clus scale="   83.386">  5  6 -1 -1</clus>
<clus scale="   91.009">  7  8 -1 -1</clus>
<clus scale="   72.342">  7 10 -1 -1</clus>
<clus scale="  121.811">  1  5  2 -1</clus>
<clus scale="   32.125">  2  5  1 -1</clus>
</clustering>
</event>
<event>
10    4  0.2759992E-005  0.3795059E+03  0.7546771E-02  0.1062810E+00
         21   -1    0    0  501  502  0.00000000000E+00  0.00000000000E+00  0.97449858150E+02  0.97449858150E+02  0.00000000000E+00 0. -1.
          2   -1    0    0  503    0 -0.00000000000E+00 -0.00000000000E+00 -0.27577702822E+04  0.27577702822E+04  0.00000000000E+00 0. -1.
         24    2    1    2    0    0  0.11879649574E+03  0.28773924685E+03 -0.11861990531E+04  0.12293300316E+04  0.85309153175E+02 0.  0.
         23    2    1    2    0    0  0.25478230102E+02  0.18636731406E+02 -0.19836008013E+03  0.21970138472E+03  0.89025328371E+02 0.  0.
        -13    1    3    3    0    0  0.73492453032E+02  0.19150268641E+03 -0.92161920937E+03  0.94416968106E+03  0.00000000000E+00 0.  1.
         14    1    3    3    0    0  0.45304042710E+02  0.96236560441E+02 -0.26457984370E+03  0.28516035058E+03  0.00000000000E+00 0. -1.
        -13    1    4    4    0    0  0.10702265357E+02  0.54562467054E+02 -0.11821110491E+03  0.13063485989E+03  0.00000000000E+00 0.  1.
         13    1    4    4    0    0  0.14775964745E+02 -0.35925735648E+02 -0.80148975220E+02  0.89066524827E+02  0.00000000000E+00 0. -1.
         21    1    1    2  503  502  0.13057251432E+03 -0.27034482885E+03 -0.81416055043E+03  0.86775164066E+03  0.00000000000E+00 0. -1.
          1    1    1    2  501    0 -0.27484724016E+03 -0.36031149404E+02 -0.46160074040E+03  0.53843708332E+03  0.00000000000E+00 0. -1.
<scales pt_clust_5="13000.00000" pt_clust_6="13000.00000" pt_clust_7="13000.00000" pt_clust_8="13000.00000" pt_clust_9="300.22591" pt_clust_10="13000.00000"></scales>
<clustering>
<clus scale="   85.309">  5  6 -1 -1</clus>
<clus scale="   89.025">  7  8 -1 -1</clus>
<clus scale="  277.199">  7 10 -1 -1</clus>
<clus scale="  300.226">  1  9  2 -1</clus>
<clus scale="  273.064">  2  5  1 -1</clus>
<clus scale="  300.226">  1  5  2 -1</clus>
</clustering>
</event>
<event>
10    4  0.2759992E-005  0.3474640E+03  0.7546771E-02  0.1091165E+00
          2   -1    0    0  502    0 -0.00000000000E+00  0.00000000000E+00  0.61780624157E+03  0.61780624157E+03  0.00000000000E+00 0. -1.
         21   -1    0    0  503  502  0.00000000000E+00 -0.00000000000E+00 -0.19907266583E+03  0.19907266583E+03  0.00000000000E+00 0.  1.
         24    2    1    2    0    0  0.50262878980E+02  0.14250480094E+03  0.20899054269E+03  0.27016559145E+03  0.80488661150E+02 0.  0.
         23    2    1    2    0    0 -0.11807951224E+03 -0.12401674096E+03  0.40595484993E+02  0.19829006472E+03  0.91367571472E+02 0.  0.
        -11    1    3    3    0    0  0.60055711046E+02  0.12485077730E+03  0.20804626487E+03  0.24995530270E+03  0.00000000000E+00 0.  1.
         12    1    3    3    0    0 -0.97928320664E+01  0.17654023641E+02  0.94427781811E+00  0.20210288746E+02  0.00000000000E+00 0. -1.
        -11    1    4    4    0    0 -0.23824458359E+02  0.12169662228E+02  0.15090950528E+02  0.30715505574E+02  0.00000000000E+00 0. -1.
         11    1    4    4    0    0 -0.94255053883E+02 -0.13618640319E+03  0.25504534465E+02  0.16757455915E+03  0.00000000000E+00 0.  1.
         21    1    1    2  503  501  0.41696211458E+02 -0.44825616781E+02 -0.77634654744E+02  0.98868850438E+02  0.00000000000E+00 0.  1.
          1    1    1    2  501    0  0.26120421805E+02  0.26337556797E+02  0.24678220281E+03  0.24955440080E+03  0.00000000000E+00 0. -1.
<scales pt_clust_5="13000.00000" pt_clust_6="13000.00000" pt_clust_7="13000.00000" pt_clust_8="13000.00000" pt_clust_9="61.22018" pt_clust_10="13000.00000"></scales>
<clustering>
<clus scale="   61.220">  2  9  1 -1</clus>
<clus scale="   80.489">  5  6 -1 -1</clus>
<clus scale="   91.368">  7  8 -1 -1</clus>
<clus scale="   37.071">  7 10 -1 -1</clus>
<clus scale="  165.011">  1  5  2 -1</clus>
<clus scale="   61.220">  2  5  1 -1</clus>
</clustering>
</event>
<event>
10    4  0.2759992E-005  0.5809274E+03  0.7546771E-02  0.1026578E+00
         21   -1    0    0  503  502  0.00000000000E+00  0.00000000000E+00  0.69756521982E+03  0.69756521982E+03  0.00000000000E+00 0. -1.
          2   -1    0    0  502    0 -0.00000000000E+00 -0.00000000000E+00 -0.84202919985E+03  0.84202919985E+03  0.00000000000E+00 0. -1.
         24    2    1    2    0    0  0.86070897637E+02 -0.18219021468E+03 -0.23172869645E+03  0.31707706749E+03  0.78982303209E+02 0.  0.
         23    2    1    2    0    0  0.36145397866E+02 -0.16861226652E+03  0.11730471141E+02  0.19468444984E+03  0.89598241333E+02 0.  0.
        -11    1    3    3    0    0  0.78946183907E+02 -0.80625582728E+02 -0.14192740086E+03  0.18131842614E+03  0.00000000000E+00 0.  1.
         12    1    3    3    0    0  0.71247137302E+01 -0.10156463195E+03 -0.89801295595E+02  0.13575864135E+03  0.00000000000E+00 0. -1.
        -11    1    4    4    0    0 -0.17477151818E+02 -0.12207614504E+03  0.64960458463E+01  0.12349184036E+03  0.00000000000E+00 0. -1.
         11    1    4    4    0    0  0.53622549684E+02 -0.46536121477E+02  0.52344252947E+01  0.71192609482E+02  0.00000000000E+00 0.  1.
         21    1    1    2  503  501 -0.29553648141E+03  0.32308540104E+03  0.44158801423E+03  0.62187294725E+03  0.00000000000E+00 0. -1.
          1    1    1    2  501    0  0.17332018590E+03  0.27717080164E+02 -0.36605376895E+03  0.40595995509E+03  0.00000000000E+00 0. -1.
<scales pt_clust_5="13000.00000" pt_clust_6="13000.00000" pt_clust_7="13000.00000" pt_clust_8="13000.00000" pt_clust_9="407.40055" pt_clust_10="13000.00000"></scales>
<clustering>
<clus scale="   78.982">  5  6 -1 -1</clus>
<clus scale="   89.598">  7  8 -1 -1</clus>
<clus scale="  175.523">  7 10 -1 -1</clus>
<clus scale="  216.425">  2  5  1 -1</clus>
<clus scale="  407.401">  1  9  2 -1</clus>
<clus scale="  407.401">  1  5  2 -1</clus>
</clustering>
</event>
<event>
10    4  0.2759992E-005  0.1952674E+03  0.7546771E-02  0.1192516E+00
          2   -1    0    0  503    0 -0.00000000000E+00  0.00000000000E+00  0.87011355251E+03  0.87011355251E+03  0.00000000000E+00 0. -1.
         21   -1    0    0  501  502  0.00000000000E+00 -0.00000000000E+00 -0.44968825157E+02  0.44968825157E+02  0.00000000000E+00 0. -1.
         24    2    1    2    0    0 -0.10895051085E+02  0.21917147630E+02  0.13932349006E+03  0.16220650365E+03  0.79377902745E+02 0.  0.
         23    2    1    2    0    0 -0.24870799882E+02 -0.62349586112E+02  0.32923765804E+03  0.34850388164E+03  0.92474280082E+02 0.  0.
        -11    1    3    3    0    0 -0.12230425961E+02 -0.22117836753E+02  0.10003131877E+03  0.10317483587E+03  0.00000000000E+00 0.  1.
         12    1    3    3    0    0  0.13353748758E+01  0.44034984383E+02  0.39292171287E+02  0.59031667774E+02  0.00000000000E+00 0. -1.
        -13    1    4    4    0    0 -0.57524626192E+02 -0.20273657180E+02  0.17279476934E+03  0.18324337943E+03  0.00000000000E+00 0. -1.
         13    1    4    4    0    0  0.32653826310E+02 -0.42075928932E+02  0.15644288869E+03  0.16526050221E+03  0.00000000000E+00 0.  1.
         21    1    1    2  503  502 -0.11416203677E+01 -0.24319727747E+02 -0.12826218120E+02  0.27518436112E+02  0.00000000000E+00 0. -1.
          1    1    1    2  501    0  0.36907471335E+02  0.64752166229E+02  0.36940979737E+03  0.37685355626E+03  0.00000000000E+00 0. -1.
<scales pt_clust_5="13000.00000" pt_clust_6="13000.00000" pt_clust_7="13000.00000" pt_clust_8="13000.00000" pt_clust_9="24.34651" pt_clust_10="13000.00000"></scales>
<clustering>
<clus scale="   24.347">  2  9  1 -1</clus>
<clus scale="   79.378">  5  6 -1 -1</clus>
<clus scale="   80.906">  1  5  2 -1</clus>
<clus scale="   92.474">  7  8 -1 -1</clus>
<clus scale="   73.223">  7 10 -1 -1</clus>
<clus scale="   24.347">  2  5  1 -1</clus>
</clustering>
</event>
<event>
10    4  0.2759992E-005  0.2045240E+03  0.7546771E-02  0.1179172E+00
         21   -1    0    0  503  502  0.00000000000E+00  0.00000000000E+00  0.30109783747E+02  0.30109783747E+02  0.00000000000E+00 0.  1.
          2   -1    0    0  502    0 -0.00000000000E+00 -0.00000000000E+00 -0.99850301408E+03  0.99850301408E+03  0.00000000000E+00 0. -1.
         24    2    1    2    0    0 -0.33209901069E+02 -0.35689541089E+02 -0.30117000797E+03  0.31579510179E+03  0.81526264107E+02 0.  0.
         23    2    1    2    0    0  0.26866264101E+02 -0.52003426401E+02 -0.22248614114E+03  0.24808439845E+03  0.92841980008E+02 0.  0.
        -13    1    3    3    0    0 -0.49240365482E+02 -0.32547784572E+02 -0.29014339249E+03  0.29608640644E+03  0.00000000000E+00 0.  1.
         14    1    3    3    0    0  0.16030464413E+02 -0.31417565175E+01 -0.11026615482E+02  0.19708695348E+02  0.00000000000E+00 0. -1.
        -13    1    4    4    0    0 -0.32641074355E+02 -0.16657385867E+02 -0.11067954290E+03  0.11658846193E+03  0.00000000000E+00 0. -1.
         13    1    4    4    0    0  0.59507338456E+02 -0.35346040534E+02 -0.11180659824E+03  0.13149593652E+03  0.00000000000E+00 0.  1.
         21    1    1    2  503  501 -0.15696484200E+02  0.19342948700E+02 -0.15087781561E+02  0.29123365758E+02  0.00000000000E+00 0. -1.
          1    1    1    2  501    0  0.22040121167E+02  0.68350018790E+02 -0.42964929966E+03  0.43560993183E+03  0.00000000000E+00 0. -1.
<scales pt_clust_5="13000.00000" pt_clust_6="13000.00000" pt_clust_7="13000.00000" pt_clust_8="13000.00000" pt_clust_9="24.91043" pt_clust_10="13000.00000"></scales>
<clustering>
<clus scale="   24.910">  1  9  2 -1</clus>
<clus scale="   81.526">  5  6 -1 -1</clus>
<clus scale="   92.842">  7  8 -1 -1</clus>
<clus scale="   73.619">  7 10 -1 -1</clus>
<clus scale="   94.754">  2  5  1 -1</clus>
<clus scale="   24.910">  1  5  2 -1</clus>
</clustering>
</event>
<event>
10    4  0.2759992E-005  0.2342283E+03  0.7546771E-02  0.1166637E+00
          2   -1    0    0  502    0 -0.00000000000E+00  0.00000000000E+00  0.50978789470E+03  0.50978789470E+03  0.00000000000E+00 0. -1.
         21   -1    0    0  503  502  0.00000000000E+00 -0.00000000000E+00 -0.10538205548E+03  0.10538205548E+03  0.00000000000E+00 0.  1.
         24    2    1    2    0    0  0.20999303845E+01 -0.21808524249E+02  0.20360111129E+03  0.22002544027E+03  0.80484535237E+02 0.  0.
         23    2    1    2    0    0 -0.22876963694E+02 -0.97082334219E+01  0.21455950878E+01  0.95263789813E+02  0.91940093579E+02 0.  0.
        -11    1    3    3    0    0  0.39164704263E+02 -0.13803738750E+02  0.13948858854E+03  0.14553859830E+03  0.00000000000E+00 0.  1.
         12    1    3    3    0    0 -0.37064773878E+02 -0.80047854995E+01  0.64112522753E+02  0.74486841974E+02  0.00000000000E+00 0. -1.
        -11    1    4    4    0    0 -0.17416501059E+02  0.40793878016E+02  0.30304345196E+01  0.44459628048E+02  0.00000000000E+00 0.  1.
         11    1    4    4    0    0 -0.54604626344E+01 -0.50502111438E+02 -0.88483943184E+00  0.50804161766E+02  0.00000000000E+00 0. -1.
         21    1    1    2  503  501  0.32914835222E+02 -0.61457088432E+01 -0.43283768805E+02  0.54723310909E+02  0.00000000000E+00 0.  1.
          1    1    1    2  501    0 -0.12137801913E+02  0.37662466514E+02  0.24194290165E+03  0.24515740919E+03  0.00000000000E+00 0. -1.
<scales pt_clust_5="13000.00000" pt_clust_6="13000.00000" pt_clust_7="13000.00000" pt_clust_8="13000.00000" pt_clust_9="33.48367" pt_clust_10="13000.00000"></scales>
<clustering>
<clus scale="   33.484">  2  9  1 -1</clus>
<clus scale="   80.485">  5  6 -1 -1</clus>
<clus scale="   83.909">  1  5  2 -1</clus>
<clus scale="   91.940">  7  8 -1 -1</clus>
<clus scale="   19.890">  7 10 -1 -1</clus>
<clus scale="   33.484">  2  5  1 -1</clus>
</clustering>
</event>
<event>
10    4  0.2759992E-005  0.1591664E+03  0.7546771E-02  0.1209693E+00
         21   -1    0    0  501  502  0.00000000000E+00  0.00000000000E+00  0.82466123801E+02  0.82466123801E+02  0.00000000000E+00 0.  1.
          2   -1    0    0  503    0 -0.00000000000E+00 -0.00000000000E+00 -0.52709638817E+03  0.52709638817E+03  0.00000000000E+00 0. -1.
         24    2    1    2    0    0 -0.70979517986E+02  0.19144891378E+02 -0.41809995579E+03  0.43095063109E+03  0.74204141152E+02 0.  0.
         23    2    1    2    0    0  0.74601606875E+02 -0.23689411182E+01 -0.10381834935E+02  0.12181368468E+03  0.95706737735E+02 0.  0.
        -11    1    3    3    0    0 -0.58837295543E+01  0.36544345686E+02 -0.14137509300E+03  0.14614042697E+03  0.00000000000E+00 0.  1.
         12    1    3    3    0    0 -0.65095788432E+02 -0.17399454308E+02 -0.27672486279E+03  0.28481020412E+03  0.00000000000E+00 0. -1.
        -11    1    4    4    0    0 -0.99857451534E+01  0.20404542452E+02 -0.24131303053E+02  0.33141820197E+02  0.00000000000E+00 0. -1.
         11    1    4    4    0    0  0.84587352028E+02 -0.22773483570E+02  0.13749468118E+02  0.88671864481E+02  0.00000000000E+00 0.  1.
         21    1    1    2  503  502  0.20545521020E+02 -0.11693720300E+02  0.51404323108E+01  0.24192676016E+02  0.00000000000E+00 0. -1.
          1    1    1    2  501    0 -0.24167609909E+02 -0.50822299601E+01 -0.21288905953E+02  0.32605520188E+02  0.00000000000E+00 0. -1.
<scales pt_clust_5="13000.00000" pt_clust_6="13000.00000" pt_clust_7="13000.00000" pt_clust_8="13000.00000" pt_clust_9="23.64025" pt_clust_10="13000.00000"></scales>
<clustering>
<clus scale="   23.640">  1  9  2 -1</clus>
<clus scale="   74.204">  5  6 -1 -1</clus>
<clus scale="   95.707">  7  8 -1 -1</clus>
<clus scale="   23.256">  7 10 -1 -1</clus>
<clus scale="  102.942">  2  5  1 -1</clus>
<clus scale="   23.640">  1  5  2 -1</clus>
</clustering>
</event>
<event>
10    4  0.2759992E-005  0.2968617E+03  0.7546771E-02  0.1108927E+00
         21   -1    0    0  501  502  0.00000000000E+00  0.00000000000E+00  0.57338481825E+03  0.57338481825E+03  0.00000000000E+00 0. -1.
         -1   -1    0    0    0  501 -0.00000000000E+00 -0.00000000000E+00 -0.89140946538E+03  0.89140946538E+03  0.00000000000E+00 0.  1.
         24    2    1    2    0    0  0.16664180165E+03 -0.12897196254E+03  0.60801725291E+02  0.23377733710E+03  0.80942796854E+02 0.  0.
         23    2    1    2    0    0 -0.10498728254E+03  0.14110017231E+03 -0.54135456909E+03  0.57628927403E+03  0.90072025412E+02 0.  0.
        -13    1    3    3    0    0  0.71099572998E+02 -0.86246039193E+02  0.64503715797E+02  0.12905137701E+03  0.00000000000E+00 0.  1.
         14    1    3    3    0    0  0.95542228656E+02 -0.42725923349E+02 -0.37019905062E+01  0.10472596009E+03  0.00000000000E+00 0. -1.
        -11    1    4    4    0    0 -0.65952154853E+02  0.14151642550E+03 -0.39281847903E+03  0.42270905228E+03  0.00000000000E+00 0.  1.
         11    1    4    4    0    0 -0.39035127683E+02 -0.41625318511E+00 -0.14853609007E+03  0.15358022175E+03  0.00000000000E+00 0. -1.
         21    1    1    2  503  502 -0.40593895599E+02  0.79422370656E+02  0.39449903933E+03  0.40445675832E+03  0.00000000000E+00 0. -1.
         -2    1    1    2    0  503 -0.21060623519E+02 -0.91550580427E+02 -0.23197084266E+03  0.25027091418E+03  0.00000000000E+00 0.  1.
<scales pt_clust_5="13000.00000" pt_clust_6="13000.00000" pt_clust_7="13000.00000" pt_clust_8="13000.00000" pt_clust_9="89.19516" pt_clust_10="13000.00000"></scales>
<clustering>
<clus scale="   80.943">  5  6 -1 -1</clus>
<clus scale="   89.195">  1  9  2 -1</clus>
<clus scale="   90.072">  7  8 -1 -1</clus>
<clus scale="   90.399">  7 10 -1 -1</clus>
<clus scale="  166.890">  2  5  1 -1</clus>
<clus scale="   89.195">  1  5  2 -1</clus>
</clustering>
</event>
<event>
10    4  0.2759992E-005  0.2240617E+03  0.7546771E-02  0.1167329E+00
          2   -1    0    0  503    0 -0.00000000000E+00  0.00000000000E+00  0.93714187526E+03  0.93714187526E+03  0.00000000000E+00 0. -1.
         21   -1    0    0  501  502  0.00000000000E+00 -0.00000000000E+00 -0.54127429158E+02  0.54127429158E+02  0.00000000000E+00 0.  1.
         24    2    1    2    0    0 -0.45687365844E+02 -0.33740118261E+01  0.19866167725E+03  0.21882073966E+03  0.79481662937E+02 0.  0.
         23    2    1    2    0    0  0.99381729523E+02  0.60156642513E+02  0.34399709354E+03  0.37586525404E+03  0.97186105100E+02 0.  0.
        -11    1    3    3    0    0 -0.50700139124E+02 -0.15148055706E+02  0.19910491611E+03  0.20601634721E+03  0.00000000000E+00 0.  1.
         12    1    3    3    0    0  0.50127732804E+01  0.11774043880E+02 -0.44323886000E+00  0.12804392447E+02  0.00000000000E+00 0. -1.
        -11    1    4    4    0    0  0.24037845505E+02  0.66320476279E+02  0.21582331415E+03  0.22705930177E+03  0.00000000000E+00 0. -1.
         11    1    4    4    0    0  0.75343884018E+02 -0.61638337661E+01  0.12817377939E+03  0.14880595227E+03  0.00000000000E+00 0.  1.
         21    1    1    2  503  502 -0.94836896774E+01 -0.27084559963E+02 -0.18273427225E+02  0.34021050848E+02  0.00000000000E+00 0.  1.
          1    1    1    2  501    0 -0.44210674001E+02 -0.29698070725E+02  0.35862910253E+03  0.36256225987E+03  0.00000000000E+00 0. -1.
<scales pt_clust_5="13000.00000" pt_clust_6="13000.00000" pt_clust_7="13000.00000" pt_clust_8="13000.00000" pt_clust_9="28.69693" pt_clust_10="13000.00000"></scales>
<clustering>
<clus scale="   28.697">  2  9  1 -1</clus>
<clus scale="   79.482">  5  6 -1 -1</clus>
<clus scale="   94.345">  1  5  2 -1</clus>
<clus scale="   97.186">  7  8 -1 -1</clus>
<clus scale="   81.323">  7 10 -1 -1</clus>
<clus scale="   28.697">  2  5  1 -1</clus>
</clustering>
</event>
<event>
10    4  0.2759992E-005  0.1445298E+03  0.7546771E-02  0.1229701E+00
         -3   -1    0    0    0  501 -0.00000000000E+00  0.00000000000E+00  0.11200336753E+03  0.11200336753E+03  0.00000000000E+00 0.  1.
         21   -1    0    0  501  502  0.00000000000E+00 -0.00000000000E+00 -0.28493724541E+03  0.28493724541E+03  0.00000000000E+00 0. -1.
         24    2    1    2    0    0 -0.17696642206E+01  0.24969734258E+02 -0.45827856766E+02  0.94862625860E+02  0.79196628646E+02 0.  0.
         23    2    1    2    0    0  0.35479561438E+01 -0.47632533628E+02 -0.22192150388E+02  0.10649517204E+03  0.92559623358E+02 0.  0.
        -11    1    3    3    0    0  0.18700178731E+02 -0.15536951278E+02 -0.42990377063E+02  0.49388926488E+02  0.00000000000E+00 0.  1.
         12    1    3    3    0    0 -0.20469842952E+02  0.40506685536E+02 -0.28374797030E+01  0.45473699372E+02  0.00000000000E+00 0. -1.
        -13    1    4    4    0    0 -0.11466361938E+02 -0.61931430032E+02 -0.43670069263E+02  0.76642380125E+02  0.00000000000E+00 0. -1.
         13    1    4    4    0    0  0.15014318082E+02  0.14298896404E+02  0.21477918875E+02  0.29852791913E+02  0.00000000000E+00 0.  1.
         21    1    1    2  503  502 -0.21675655835E+02  0.32217957379E+02 -0.14484362773E+03  0.14995835198E+03  0.00000000000E+00 0. -1.
         -4    1    1    2    0  503  0.19897363911E+02 -0.95551580088E+01  0.39929757011E+02  0.45624463067E+02  0.00000000000E+00 0.  1.
<scales pt_clust_5="13000.00000" pt_clust_6="13000.00000" pt_clust_7="13000.00000" pt_clust_8="13000.00000" pt_clust_9="38.83080" pt_clust_10="13000.00000"></scales>
<clustering>
<clus scale="   38.831">  2  9  1 -1</clus>
<clus scale="   79.197">  5  6 -1 -1</clus>
<clus scale="   90.307">  1  5  2 -1</clus>
<clus scale="   92.560">  7  8 -1 -1</clus>
<clus scale="   17.638">  7 10 -1 -1</clus>
<clus scale="   38.831">  2  5  1 -1</clus>
</clustering>
</event>
<event>
10    4  0.2759992E-005  0.2665072E+03  0.7546771E-02  0.1140007E+00
          2   -1    0    0  502    0 -0.00000000000E+00  0.00000000000E+00  0.59400887891E+03  0.59400887891E+03  0.00000000000E+00 0. -1.
         21   -1    0    0  503  502  0.00000000000E+00 -0.00000000000E+00 -0.14390707107E+03  0.14390707107E+03  0.00000000000E+00 0.  1.
         24    2    1    2    0    0  0.24117689533E+02 -0.64963342268E+02  0.60033086402E+02  0.12240703389E+03  0.81102476516E+02 0.  0.
         23    2    1    2    0    0 -0.11585482911E+03 -0.12338129125E+02  0.85514731362E+02  0.16780403953E+03  0.85269311862E+02 0.  0.
        -11    1    3    3    0    0  0.18017145893E+02 -0.20493448226E+02  0.71117045130E+02  0.76172390499E+02  0.00000000000E+00 0.  1.
         12    1    3    3    0    0  0.61005436397E+01 -0.44469894042E+02 -0.11083958729E+02  0.46234643395E+02  0.00000000000E+00 0. -1.
        -11    1    4    4    0    0 -0.10973785525E+03 -0.39216384836E+02  0.73162387706E+02  0.13759744434E+03  0.00000000000E+00 0. -1.
         11    1    4    4    0    0 -0.61169738584E+01  0.26878255711E+02  0.12352343656E+02  0.30206595191E+02  0.00000000000E+00 0.  1.
         21    1    1    2  503  501  0.13532569899E+03  0.12338556940E+03  0.56470496892E+02  0.19164018514E+03  0.00000000000E+00 0.  1.
          1    1    1    2  501    0 -0.43588559417E+02 -0.46084098003E+02  0.24808349318E+03  0.25606469142E+03  0.00000000000E+00 0. -1.
<scales pt_clust_5="13000.00000" pt_clust_6="13000.00000" pt_clust_7="13000.00000" pt_clust_8="13000.00000" pt_clust_9="177.43875" pt_clust_10="13000.00000"></scales>
<clustering>
<clus scale="   81.102">  5  6 -1 -1</clus>
<clus scale="   85.269">  7  8 -1 -1</clus>
<clus scale="   63.433">  7 10 -1 -1</clus>
<clus scale="  106.675">  1  5  2 -1</clus>
<clus scale="  177.439">  2  9  1 -1</clus>
<clus scale="  177.439">  2  5  1 -1</clus>
</clustering>
</event>
<event>
10    4  0.2759992E-005  0.5892856E+03  0.7546771E-02  0.1029095E+00
         21   -1    0    0  503  502  0.00000000000E+00  0.00000000000E+00  0.39798010543E+03  0.39798010543E+03  0.00000000000E+00 0.  1.
          2   -1    0    0  502    0 -0.00000000000E+00 -0.00000000000E+00 -0.24271080681E+04  0.24271080681E+04  0.00000000000E+00 0. -1.
         24    2    1    2    0    0  0.17142804195E+03 -0.14679555257E+03 -0.66427281226E+03  0.70612566082E+03  0.80115990489E+02 0.  0.
         23    2    1    2    0    0 -0.94877535997E+02 -0.23973770679E+03 -0.84398978605E+03  0.88735732067E+03  0.92781144035E+02 0.  0.
        -11    1    3    3    0    0  0.11327497359E+03 -0.88368347030E+02 -0.52483068022E+03  0.54413916170E+03  0.00000000000E+00 0.  1.
         12    1    3    3    0    0  0.58153068357E+02 -0.58427205542E+02 -0.13944213205E+03  0.16198649912E+03  0.00000000000E+00 0. -1.
        -11    1    4    4    0    0 -0.66468380551E+02 -0.17247265595E+03 -0.72108829689E+03  0.74440123225E+03  0.00000000000E+00 0.  1.
         11    1    4    4    0    0 -0.28409155446E+02 -0.67265050838E+02 -0.12290148916E+03  0.14295608842E+03  0.00000000000E+00 0. -1.
         21    1    1    2  503  501 -0.13035170967E+03  0.99750016315E+02  0.31012087376E+03  0.35087973768E+03  0.00000000000E+00 0.  1.
          1    1    1    2  501    0  0.53801203721E+02  0.28678324305E+03 -0.83098623811E+03  0.88072545435E+03  0.00000000000E+00 0. -1.
<scales pt_clust_5="13000.00000" pt_clust_6="13000.00000" pt_clust_7="13000.00000" pt_clust_8="13000.00000" pt_clust_9="164.13907" pt_clust_10="13000.00000"></scales>
<clustering>
<clus scale="   80.116">  5  6 -1 -1</clus>
<clus scale="   92.781">  7  8 -1 -1</clus>
<clus scale="  164.139">  1  9  2 -1</clus>
<clus scale="  192.366">  2  5  1 -1</clus>
<clus scale="  270.599">  7 10 -1 -1</clus>
<clus scale="  164.139">  1  5  2 -1</clus>
</clustering>
</event>
<event>
10    4  0.2759992E-005  0.3015028E+03  0.7546771E-02  0.1102158E+00
         21   -1    0    0  501  502  0.00000000000E+00  0.00000000000E+00  0.72720197116E+03  0.72720197116E+03  0.00000000000E+00 0. -1.
          2   -1    0    0  503    0 -0.00000000000E+00 -0.00000000000E+00 -0.97492093200E+02  0.97492093200E+02  0.00000000000E+00 0. -1.
         24    2    1    2    0    0 -0.14374985034E+03 -0.86852048482E+02  0.15257301507E+03  0.24041873240E+03  0.79469139694E+02 0.  0.
         23    2    1    2    0    0  0.57047971847E+02 -0.51162585708E+02  0.11746490794E+03  0.16840384135E+03  0.93218924670E+02 0.  0.
        -13    1    3    3    0    0 -0.39265953065E+00 -0.21967794290E+02  0.10931275311E+01  0.21998479385E+02  0.00000000000E+00 0.  1.
         14    1    3    3    0    0 -0.14335719081E+03 -0.64884254192E+02  0.15147988754E+03  0.21842025302E+03  0.00000000000E+00 0. -1.
        -11    1    4    4    0    0  0.78173255809E+02 -0.44724869684E+02  0.11516542746E+03  0.14620002590E+03  0.00000000000E+00 0. -1.
         11    1    4    4    0    0 -0.21125283962E+02 -0.64377160242E+01  0.22994804822E+01  0.22203815451E+02  0.00000000000E+00 0.  1.
         21    1    1    2  503  502 -0.36832061278E+01 -0.19849431126E+02  0.77968575568E+02  0.80539832999E+02  0.00000000000E+00 0. -1.
          1    1    1    2  501    0  0.90385084620E+02  0.15786406532E+03  0.28170337938E+03  0.33533165761E+03  0.00000000000E+00 0. -1.
<scales pt_clust_5="13000.00000" pt_clust_6="13000.00000" pt_clust_7="13000.00000" pt_clust_8="13000.00000" pt_clust_9="20.18826" pt_clust_10="13000.00000"></scales>
<clustering>
<clus scale="   20.188">  1  9  2 -1</clus>
<clus scale="   79.469">  5  6 -1 -1</clus>
<clus scale="   93.219">  7  8 -1 -1</clus>
<clus scale="  172.864">  7 10 -1 -1</clus>
<clus scale="  189.544">  2  5  1 -1</clus>
<clus scale="   20.188">  1  5  2 -1</clus>
</clustering>
</event>
<event>
10    4  0.2759992E-005  0.1788614E+03  0.7546771E-02  0.1188350E+00
          2   -1    0    0  502    0 -0.00000000000E+00  0.00000000000E+00  0.13876440742E+03  0.13876440742E+03  0.00000000000E+00 0. -1.
         21   -1    0    0  503  502  0.00000000000E+00 -0.00000000000E+00 -0.23546584458E+03  0.23546584458E+03  0.00000000000E+00 0. -1.
         24    2    1    2    0    0  0.59231080560E+02 -0.28581181616E+02 -0.89202248346E+02  0.13691598410E+03  0.80397392646E+02 0.  0.
         23    2    1    2    0    0 -0.51806727551E+02 -0.20595843031E+02 -0.19762220638E+02  0.10819939217E+03  0.90600426778E+02 0.  0.
        -11    1    3    3    0    0 -0.12684237138E+02 -0.22317404155E+02 -0.46305086721E+02  0.52944475219E+02  0.00000000000E+00 0.  1.
         12    1    3    3    0    0  0.71915317698E+02 -0.62637774608E+01 -0.42897161625E+02  0.83971508877E+02  0.00000000000E+00 0. -1.
        -11    1    4    4    0    0 -0.13621606593E+02  0.26052742438E+02 -0.35305923772E+02  0.45943463171E+02  0.00000000000E+00 0.  1.
         11    1    4    4    0    0 -0.38185120958E+02 -0.46648585469E+02  0.15543703134E+02  0.62255929003E+02  0.00000000000E+00 0. -1.
         21    1    1    2  503  501  0.32258897158E+02  0.26546786250E+01 -0.38031105925E+02  0.49940452364E+02  0.00000000000E+00 0. -1.
          1    1    1    2  501    0 -0.39683250167E+02  0.46522346021E+02  0.50294137755E+02  0.79174423368E+02  0.00000000000E+00 0. -1.
<scales pt_clust_5="13000.00000" pt_clust_6="13000.00000" pt_clust_7="13000.00000" pt_clust_8="13000.00000" pt_clust_9="32.36794" pt_clust_10="13000.00000"></scales>
<clustering>
<clus scale="   32.368">  2  9  1 -1</clus>
<clus scale="   80.397">  5  6 -1 -1</clus>
<clus scale="   90.600">  7  8 -1 -1</clus>
<clus scale="   59.754">  7 10 -1 -1</clus>
<clus scale="  115.417">  1  5  2 -1</clus>
<clus scale="   32.368">  2  5  1 -1</clus>
</clustering>
</event>
<event>
10    4  0.2759992E-005  0.3498459E+03  0.7546771E-02  0.1096131E+00
         21   -1    0    0  501  502  0.00000000000E+00  0.00000000000E+00  0.14904388935E+03  0.14904388935E+03  0.00000000000E+00 0. -1.
          2   -1    0    0  503    0 -0.00000000000E+00 -0.00000000000E+00 -0.58719932292E+03  0.58719932292E+03  0.00000000000E+00 0. -1.
         24    2    1    2    0    0  0.11796086351E+03  0.18028792135E+02 -0.18362374678E+03  0.23202796303E+03  0.76677849342E+02 0.  0.
         23    2    1    2    0    0  0.60475497662E+02 -0.67807823792E+02 -0.63012931656E+02  0.14495072482E+03  0.93727777549E+02 0.  0.
        -13    1    3    3    0    0  0.10282563363E+03  0.42930461931E+02 -0.13195814191E+03  0.17271099186E+03  0.00000000000E+00 0.  1.
         14    1    3    3    0    0  0.15135229884E+02 -0.24901669795E+02 -0.51665604872E+02  0.59316971172E+02  0.00000000000E+00 0. -1.
        -13    1    4    4    0    0  0.29880736997E+02  0.20783511252E+02 -0.12530855467E+02  0.38494611599E+02  0.00000000000E+00 0. -1.
         13    1    4    4    0    0  0.30594760665E+02 -0.88591335045E+02 -0.50482076189E+02  0.10645611322E+03  0.00000000000E+00 0.  1.
         21    1    1    2  503  502  0.69790606516E+01 -0.75076158102E+02 -0.21457863867E+02  0.78393728861E+02  0.00000000000E+00 0. -1.
          1    1    1    2  501    0 -0.18541542183E+03  0.12485518976E+03 -0.17006089127E+03  0.28087079556E+03  0.00000000000E+00 0. -1.
<scales pt_clust_5="13000.00000" pt_clust_6="13000.00000" pt_clust_7="13000.00000" pt_clust_8="13000.00000" pt_clust_9="75.39985" pt_clust_10="13000.00000"></scales>
<clustering>
<clus scale="   75.400">  1  9  2 -1</clus>
<clus scale="   76.678">  5  6 -1 -1</clus>
<clus scale="   93.728">  7  8 -1 -1</clus>
<clus scale="  141.899">  2  5  1 -1</clus>
<clus scale="  147.558">  7 10 -1 -1</clus>
<clus scale="   75.400">  1  5  2 -1</clus>
</clustering>
</event>
<event>
10    4  0.2759992E-005  0.4255512E+03  0.7546771E-02  0.1077742E+00
         21   -1    0    0  501  502  0.00000000000E+00  0.00000000000E+00  0.25602318322E+03  0.25602318322E+03  0.00000000000E+00 0. -1.
          2   -1    0    0  503    0 -0.00000000000E+00 -0.00000000000E+00 -0.46488857906E+03  0.46488857906E+03  0.00000000000E+00 0. -1.
         24    2    1    2    0    0 -0.97414062647E+02 -0.47191959319E+02 -0.52718026867E+02  0.14504285971E+03  0.80880530225E+02 0.  0.
         23    2    1    2    0    0  0.19270057727E+03 -0.84292418375E+02 -0.18635721562E+03  0.29554228680E+03  0.91528723349E+02 0.  0.
        -11    1    3    3    0    0 -0.21986249467E+02 -0.21338647799E+02 -0.57511212053E+02  0.65163429677E+02  0.00000000000E+00 0.  1.
         12    1    3    3    0    0 -0.75427813180E+02 -0.25853311520E+02  0.47931851860E+01  0.79879430030E+02  0.00000000000E+00 0. -1.
        -13    1    4    4    0    0  0.95812822971E+02 -0.91079714500E+02 -0.11080852541E+03  0.17249388610E+03  0.00000000000E+00 0. -1.
         13    1    4    4    0    0  0.96887754303E+02  0.67872961251E+01 -0.75548690205E+02  0.12304840070E+03  0.00000000000E+00 0.  1.
         21    1    1    2  503  502  0.32595007925E+02  0.26399289903E+01  0.84697791101E+02  0.90791627279E+02  0.00000000000E+00 0. -1.
          1    1    1    2  501    0 -0.12788152255E+03  0.12884444870E+03 -0.54487944456E+02  0.18953498849E+03  0.00000000000E+00 0. -1.
<scales pt_clust_5="13000.00000" pt_clust_6="13000.00000" pt_clust_7="13000.00000" pt_clust_8="13000.00000" pt_clust_9="32.70174" pt_clust_10="13000.00000"></scales>
<clustering>
<clus scale="   32.702">  1  9  2 -1</clus>
<clus scale="   80.881">  5  6 -1 -1</clus>
<clus scale="   91.529">  7  8 -1 -1</clus>
<clus scale="  128.563">  2  5  1 -1</clus>
<clus scale="  182.949">  7 10 -1 -1</clus>
<clus scale="   32.702">  1  5  2 -1</clus>
</clustering>
</event>
<event>
10    4  0.2759992E-005  0.2301761E+03  0.7546771E-02  0.1171467E+00
          2   -1    0    0  503    0 -0.00000000000E+00  0.00000000000E+00  0.32277617064E+03  0.32277617064E+03  0.00000000000E+00 0. -1.
         21   -1    0    0  501  502  0.00000000000E+00 -0.00000000000E+00 -0.21693680474E+03  0.21693680474E+03  0.00000000000E+00 0.  1.
         24    2    1    2    0    0 -0.69093693892E+01  0.17558768540E+02  0.39790976152E+02  0.88595168746E+02  0.76874783928E+02 0.  0.
         23    2    1    2    0    0  0.16050801266E+02  0.22364344480E+02  0.43829495790E+02  0.10501779697E+03  0.91377901344E+02 0.  0.
        -13    1    3    3    0    0  0.24955373541E+02  0.33316525696E+02  0.31206898454E+02  0.52025302153E+02  0.00000000000E+00 0.  1.
         14    1    3    3    0    0 -0.31864742930E+02 -0.15757757157E+02  0.85840776984E+01  0.36569866592E+02  0.00000000000E+00 0. -1.
        -11    1    4    4    0    0  0.20175433215E+02 -0.22798655902E+02 -0.12319060791E+02  0.32841834224E+02  0.00000000000E+00 0.  1.
         11    1    4    4    0    0 -0.41246319490E+01  0.45163000383E+02  0.56148556582E+02  0.72175962747E+02  0.00000000000E+00 0. -1.
         21    1    1    2  503  502  0.11192743947E+03 -0.94515878754E+01 -0.11488445067E+03  0.16067209224E+03  0.00000000000E+00 0.  1.
          1    1    1    2  501    0 -0.12106887134E+03 -0.30471525145E+02  0.13710334463E+03  0.18542791743E+03  0.00000000000E+00 0. -1.
<scales pt_clust_5="13000.00000" pt_clust_6="13000.00000" pt_clust_7="13000.00000" pt_clust_8="13000.00000" pt_clust_9="111.59548" pt_clust_10="13000.00000"></scales>
<clustering>
<clus scale="   76.875">  5  6 -1 -1</clus>
<clus scale="   79.157">  1  5  2 -1</clus>
<clus scale="   91.378">  7  8 -1 -1</clus>
<clus scale="  111.595">  2  9  1 -1</clus>
<clus scale="   79.173">  7 10 -1 -1</clus>
<clus scale="  111.595">  2  5  1 -1</clus>
</clustering>
</event>
<event>
10    4  0.2759992E-005  0.2101810E+03  0.7546771E-02  0.1163550E+00
         21   -1    0    0  501  502  0.00000000000E+00  0.00000000000E+00  0.80034124984E+02  0.80034124984E+02  0.00000000000E+00 0.  1.
          4   -1    0    0  503    0 -0.00000000000E+00 -0.00000000000E+00 -0.50542278359E+03  0.50542278359E+03  0.00000000000E+00 0. -1.
         24    2    1    2    0    0  0.67625292309E+02  0.51610682734E+02 -0.17578273657E+03  0.21132973786E+03  0.80770321878E+02 0.  0.
         23    2    1    2    0    0 -0.64873769951E+02 -0.70051406362E+02 -0.61738535741E+02  0.14549042663E+03  0.90774511203E+02 0.  0.
        -13    1    3    3    0    0 -0.56999914020E+01  0.34305867404E+02 -0.93539903132E+02  0.99795270019E+02  0.00000000000E+00 0.  1.
         14    1    3    3    0    0  0.73325283711E+02  0.17304815331E+02 -0.82242833441E+02  0.11153446784E+03  0.00000000000E+00 0. -1.
        -13    1    4    4    0    0 -0.76707732769E+02 -0.24497445698E+02 -0.55985060943E+02  0.98074095260E+02  0.00000000000E+00 0. -1.
         13    1    4    4    0    0  0.11833962819E+02 -0.45553960664E+02 -0.57534747984E+01  0.47416331369E+02  0.00000000000E+00 0.  1.
         21    1    1    2  503  502  0.11594592330E+02  0.39115309480E+02 -0.17597432066E+01  0.40835507872E+02  0.00000000000E+00 0.  1.
          3    1    1    2  501    0 -0.14346114688E+02 -0.20674585852E+02 -0.18610764308E+03  0.18780123621E+03  0.00000000000E+00 0. -1.
<scales pt_clust_5="13000.00000" pt_clust_6="13000.00000" pt_clust_7="13000.00000" pt_clust_8="13000.00000" pt_clust_9="40.79757" pt_clust_10="13000.00000"></scales>
<clustering>
<clus scale="   40.798">  1  9  2 -1</clus>
<clus scale="   80.770">  5  6 -1 -1</clus>
<clus scale="   90.775">  7  8 -1 -1</clus>
<clus scale="   24.623">  7 10 -1 -1</clus>
<clus scale="  124.705">  2  5  1 -1</clus>
<clus scale="   40.798">  1  5  2 -1</clus>
</clustering>
</event>
<event>
10    4  0.2759992E-005  0.5964058E+03  0.7546771E-02  0.1037427E+00
         -1   -1    0    0    0  501 -0.00000000000E+00  0.00000000000E+00  0.53488039209E+03  0.53488039209E+03  0.00000000000E+00 0.  1.
         21   -1    0    0  501  502  0.00000000000E+00 -0.00000000000E+00 -0.42660325604E+03  0.42660325604E+03  0.00000000000E+00 0.  1.
         24    2    1    2    0    0  0.12491041961E+03  0.61982195168E+01 -0.19374136498E+03  0.24442948031E+03  0.81049512568E+02 0.  0.
         23    2    1    2    0    0 -0.94746614444E+02  0.27153998851E+03  0.43436977504E+02  0.30439377018E+03  0.89765862124E+02 0.  0.
        -13    1    3    3    0    0  0.10646980278E+03  0.36938491321E+02 -0.15512369112E+03  0.19173844318E+03  0.00000000000E+00 0.  1.
         14    1    3    3    0    0  0.18440616826E+02 -0.30740271804E+02 -0.38617673859E+02  0.52691037130E+02  0.00000000000E+00 0. -1.
        -11    1    4    4    0    0  0.73258125751E+01  0.10850478382E+03  0.20676804682E+02  0.11069998145E+03  0.00000000000E+00 0. -1.
         11    1    4    4    0    0 -0.10207242702E+03  0.16303520469E+03  0.22760172823E+02  0.19369378873E+03  0.00000000000E+00 0.  1.
         21    1    1    2  503  502 -0.90659411208E+01 -0.31127101764E+02 -0.21487453805E+02  0.38894709456E+02  0.00000000000E+00 0.  1.
         -2    1    1    2    0  503 -0.21097864042E+02 -0.24661110626E+03  0.28006897733E+03  0.37376568818E+03  0.00000000000E+00 0.  1.
<scales pt_clust_5="13000.00000" pt_clust_6="13000.00000" pt_clust_7="13000.00000" pt_clust_8="13000.00000" pt_clust_9="32.42048" pt_clust_10="13000.00000"></scales>
<clustering>
<clus scale="   32.420">  2  9  1 -1</clus>
<clus scale="   81.050">  5  6 -1 -1</clus>
<clus scale="   89.766">  7  8 -1 -1</clus>
<clus scale="  145.142">  1  5  2 -1</clus>
<clus scale="  264.107">  7 10 -1 -1</clus>
<clus scale="   32.420">  2  5  1 -1</clus>
</clustering>
</event>
<event>
10    4  0.2759992E-005  0.3461518E+03  0.7546771E-02  0.1109135E+00
         21   -1    0    0  503  502  0.00000000000E+00  0.00000000000E+00  0.67625897487E+03  0.67625897487E+03  0.00000000000E+00 0. -1.
          2   -1    0    0  502    0 -0.00000000000E+00 -0.00000000000E+00 -0.13046502171E+04  0.13046502171E+04  0.00000000000E+00 0. -1.
         24    2    1    2    0    0  0.20397785569E+02  0.62865637811E+02 -0.90288668765E+03  0.90893806909E+03  0.81215051803E+02 0.  0.
         23    2    1    2    0    0  0.29639385874E+02 -0.17439324566E+03 -0.80930122671E+02  0.21531805825E+03  0.92307551855E+02 0.  0.
        -13    1    3    3    0    0 -0.48044196943E+01  0.27694778271E+02 -0.77874285798E+02  0.82791832814E+02  0.00000000000E+00 0.  1.
         14    1    3    3    0    0  0.25202205263E+02  0.35170859540E+02 -0.82501240185E+03  0.82614623628E+03  0.00000000000E+00 0. -1.
        -11    1    4    4    0    0 -0.16057846616E+02 -0.12912604154E+03 -0.30665237187E+02  0.13368524905E+03  0.00000000000E+00 0. -1.
         11    1    4    4    0    0  0.45697232490E+02 -0.45267204113E+02 -0.50264885484E+02  0.81632809201E+02  0.00000000000E+00 0.  1.
         21    1    1    2  503  501 -0.18824047798E+03  0.16245066578E+03  0.55526873415E+03  0.60839794829E+03  0.00000000000E+00 0. -1.
          1    1    1    2  501    0  0.13820330653E+03 -0.50923057939E+02 -0.19984316609E+03  0.24825511637E+03  0.00000000000E+00 0. -1.
<scales pt_clust_5="13000.00000" pt_clust_6="13000.00000" pt_clust_7="13000.00000" pt_clust_8="13000.00000" pt_clust_9="250.38616" pt_clust_10="13000.00000"></scales>
<clustering>
<clus scale="   81.215">  5  6 -1 -1</clus>
<clus scale="   92.308">  7  8 -1 -1</clus>
<clus scale="  104.709">  2  5  1 -1</clus>
<clus scale="  150.476">  7 10 -1 -1</clus>
<clus scale="  250.386">  1  9  2 -1</clus>
<clus scale="  250.386">  1  5  2 -1</clus>
</clustering>
</event>
<event>
10    4  0.2759992E-005  0.4652637E+03  0.7546771E-02  0.1038716E+00
          2   -1    0    0  502    0 -0.00000000000E+00  0.00000000000E+00  0.18487147552E+04  0.18487147552E+04  0.00000000000E+00 0. -1.
         21   -1    0    0  503  502  0.00000000000E+00 -0.00000000000E+00 -0.12095719828E+03  0.12095719828E+03  0.00000000000E+00 0. -1.
         24    2    1    2    0    0  0.68409688307E+02 -0.28485468766E+03  0.10562045051E+04  0.10990256999E+04  0.80420481728E+02 0.  0.
         23    2    1    2    0    0 -0.66623532863E+02 -0.70594820040E+02  0.29048503794E+03  0.31969421069E+03  0.91654281610E+02 0.  0.
        -13    1    3    3    0    0  0.65905196975E+02 -0.11528298431E+03  0.51692147235E+03  0.53370541504E+03  0.00000000000E+00 0.  1.
         14    1    3    3    0    0  0.25044913326E+01 -0.16957170335E+03  0.53928303272E+03  0.56532028483E+03  0.00000000000E+00 0. -1.
        -13    1    4    4    0    0  0.16601012193E+02 -0.42053127176E+02  0.10910055358E+03  0.11809737466E+03  0.00000000000E+00 0. -1.
         13    1    4    4    0    0 -0.83224545056E+02 -0.28541692864E+02  0.18138448436E+03  0.20159683603E+03  0.00000000000E+00 0.  1.
         21    1    1    2  503  501  0.73570451733E+02  0.66724998113E+02  0.87784378092E+02  0.13255539890E+03  0.00000000000E+00 0. -1.
          1    1    1    2  501    0 -0.75356607177E+02  0.28872450958E+03  0.29328363577E+03  0.41839664398E+03  0.00000000000E+00 0. -1.
<scales pt_clust_5="13000.00000" pt_clust_6="13000.00000" pt_clust_7="13000.00000" pt_clust_8="13000.00000" pt_clust_9="99.32188" pt_clust_10="13000.00000"></scales>
<clustering>
<clus scale="   80.420">  5  6 -1 -1</clus>
<clus scale="   91.654">  7  8 -1 -1</clus>
<clus scale="   99.322">  2  9  1 -1</clus>
<clus scale="  294.422">  1  5  2 -1</clus>
<clus scale="  168.923">  7 10 -1 -1</clus>
<clus scale="   99.322">  2  5  1 -1</clus>
</clustering>
</event>
<event>
10    4  0.2759992E-005  0.2721930E+03  0.7546771E-02  0.1108842E+00
          2   -1    0    0  503    0 -0.00000000000E+00  0.00000000000E+00  0.78327219844E+03  0.78327219844E+03  0.00000000000E+00 0. -1.
         21   -1    0    0  501  502  0.00000000000E+00 -0.00000000000E+00 -0.12023879208E+03  0.12023879208E+03  0.00000000000E+00 0. -1.
         24    2    1    2    0    0  0.19916411257E+03 -0.77095497011E+02  0.49849929616E+03  0.54822855519E+03  0.80267932957E+02 0.  0.
         23    2    1    2    0    0 -0.14150440152E+02  0.36103936672E+01  0.78675625658E+02  0.12105359351E+03  0.90834181501E+02 0.  0.
        -13    1    3    3    0    0  0.98243839097E+01 -0.28658919932E+02  0.43285368277E+02  0.52834414142E+02  0.00000000000E+00 0.  1.
         14    1    3    3    0    0  0.18933972866E+03 -0.48436577079E+02  0.45521392788E+03  0.49539414105E+03  0.00000000000E+00 0. -1.
        -13    1    4    4    0    0 -0.36507086936E+02 -0.26526024257E+02  0.68753766829E+02  0.82240366078E+02  0.00000000000E+00 0.  1.
         13    1    4    4    0    0  0.22356646784E+02  0.30136417924E+02  0.99218588296E+01  0.38813227428E+02  0.00000000000E+00 0. -1.
         21    1    1    2  503  502 -0.50660264004E+02 -0.81166844357E+01 -0.68060348111E+01  0.51755821171E+02  0.00000000000E+00 0. -1.
          1    1    1    2  501    0 -0.13435340842E+03  0.81601787780E+02  0.92664519355E+02  0.18247302066E+03  0.00000000000E+00 0. -1.
<scales pt_clust_5="13000.00000" pt_clust_6="13000.00000" pt_clust_7="13000.00000" pt_clust_8="13000.00000" pt_clust_9="51.30636" pt_clust_10="13000.00000"></scales>
<clustering>
<clus scale="   51.306">  2  9  1 -1</clus>
<clus scale="   80.268">  5  6 -1 -1</clus>
<clus scale="   90.834">  7  8 -1 -1</clus>
<clus scale="  177.250">  7 10 -1 -1</clus>
<clus scale="  216.969">  1  5  2 -1</clus>
<clus scale="   51.306">  2  5  1 -1</clus>
</clustering>
</event>
<event>
10    4  0.2759992E-005  0.3737641E+03  0.7546771E-02  0.1084928E+00
         21   -1    0    0  501  502  0.00000000000E+00  0.00000000000E+00  0.47667526496E+03  0.47667526496E+03  0.00000000000E+00 0. -1.
          2   -1    0    0  503    0 -0.00000000000E+00 -0.00000000000E+00 -0.50471727699E+03  0.50471727699E+03  0.00000000000E+00 0. -1.
         24    2    1    2    0    0 -0.13695388836E+03  0.22763184594E+01 -0.48194207417E+02  0.16563488803E+03  0.79691187363E+02 0.  0.
         23    2    1    2    0    0 -0.39294237999E+02  0.51353620487E+02 -0.20595187985E+03  0.23386891336E+03  0.89984778417E+02 0.  0.
        -11    1    3    3    0    0 -0.16100392335E+02 -0.28510573582E+02 -0.25892486054E+01  0.32844781133E+02  0.00000000000E+00 0.  1.
         12    1    3    3    0    0 -0.12085349602E+03  0.30786892042E+02 -0.45604958811E+02  0.13279010690E+03  0.00000000000E+00 0. -1.
        -11    1    4    4    0    0 -0.32244685232E+02  0.87548064749E+01 -0.18087869773E+03  0.18393876604E+03  0.00000000000E+00 0. -1.
         11    1    4    4    0    0 -0.70495527664E+01  0.42598814013E+02 -0.25073182121E+02  0.49930147317E+02  0.00000000000E+00 0.  1.
         21    1    1    2  503  502  0.34183732770E+02  0.13283867277E+03  0.30510050250E+03  0.33451600439E+03  0.00000000000E+00 0. -1.
          1    1    1    2  501    0  0.14206439358E+03 -0.18646861171E+03 -0.78996427262E+02  0.24737273617E+03  0.00000000000E+00 0. -1.
<scales pt_clust_5="13000.00000" pt_clust_6="13000.00000" pt_clust_7="13000.00000" pt_clust_8="13000.00000" pt_clust_9="137.16647" pt_clust_10="13000.00000"></scales>
<clustering>
<clus scale="   79.691">  5  6 -1 -1</clus>
<clus scale="   89.985">  7  8 -1 -1</clus>
<clus scale="  137.166">  1  9  2 -1</clus>
<clus scale="  156.429">  2  5  1 -1</clus>
<clus scale="  152.569">  7 10 -1 -1</clus>
<clus scale="  137.166">  1  5  2 -1</clus>
</clustering>
</event>
<event>
10    4  0.2759992E-005  0.3414726E+03  0.7546771E-02  0.1102287E+00
         -1   -1    0    0    0  501 -0.00000000000E+00  0.00000000000E+00  0.45218398135E+03  0.45218398135E+03  0.00000000000E+00 0.  1.
         21   -1    0    0  503  502  0.00000000000E+00 -0.00000000000E+00 -0.21582857154E+03  0.21582857154E+03  0.00000000000E+00 0. -1.
         24    2    1    2    0    0 -0.29325366907E+02  0.94268520101E+02  0.18905712011E+03  0.22802878641E+03  0.80672186911E+02 0.  0.
         23    2    1    2    0    0  0.84315593516E+02 -0.18609870666E+03 -0.39170951308E+01  0.22385252167E+03  0.91393434618E+02 0.  0.
        -13    1    3    3    0    0 -0.23345203521E+02  0.10887501650E+03  0.15951604276E+03  0.19453569246E+03  0.00000000000E+00 0.  1.
         14    1    3    3    0    0 -0.59801633857E+01 -0.14606496395E+02  0.29541077350E+02  0.33493093946E+02  0.00000000000E+00 0. -1.
        -11    1    4    4    0    0  0.96276907039E+01 -0.10658167279E+03  0.27181568624E+02  0.11041369062E+03  0.00000000000E+00 0.  1.
         11    1    4    4    0    0  0.74687902812E+02 -0.79517033869E+02 -0.31098663755E+02  0.11343883105E+03  0.00000000000E+00 0. -1.
         21    1    1    2  503  501 -0.21623945492E+02  0.18693360826E+02 -0.67188898037E+02  0.73016332262E+02  0.00000000000E+00 0. -1.
         -2    1    1    2    0  502 -0.33366281117E+02  0.73136825736E+02  0.11840428287E+03  0.14311491255E+03  0.00000000000E+00 0.  1.
<scales pt_clust_5="13000.00000" pt_clust_6="13000.00000" pt_clust_7="13000.00000" pt_clust_8="13000.00000" pt_clust_9="28.58385" pt_clust_10="13000.00000"></scales>
<clustering>
<clus scale="   28.584">  2  9  1 -1</clus>
<clus scale="   80.672">  5  6 -1 -1</clus>
<clus scale="   91.393">  7  8 -1 -1</clus>
<clus scale="   82.598">  7 10 -1 -1</clus>
<clus scale="  130.038">  1  5  2 -1</clus>
<clus scale="   28.584">  2  5  1 -1</clus>
</clustering>
</event>
<event>
10    4  0.2759992E-005  0.1407678E+03  0.7546771E-02  0.1238192E+00
         21   -1    0    0  503  502  0.00000000000E+00  0.00000000000E+00  0.63244508364E+02  0.63244508364E+02  0.00000000000E+00 0. -1.
          2   -1    0    0  502    0 -0.00000000000E+00 -0.00000000000E+00 -0.87312678057E+03  0.87312678057E+03  0.00000000000E+00 0. -1.
         24    2    1    2    0    0  0.16083040138E+02 -0.11600955555E+02 -0.57448646712E+03  0.58025915282E+03  0.79200613529E+02 0.  0.
         23    2    1    2    0    0  0.37519073874E+02  0.40263343961E+02 -0.21367611227E+03  0.23854241449E+03  0.90643172845E+02 0.  0.
        -13    1    3    3    0    0 -0.29164169844E+02 -0.15504509957E+02 -0.16586643536E+03  0.16912307061E+03  0.00000000000E+00 0.  1.
         14    1    3    3    0    0  0.45247209982E+02  0.39035544024E+01 -0.40862003176E+03  0.41113608222E+03  0.00000000000E+00 0. -1.
        -11    1    4    4    0    0  0.11886917935E+02  0.60302774350E+02 -0.79559761298E+02  0.10053595889E+03  0.00000000000E+00 0.  1.
         11    1    4    4    0    0  0.25632155939E+02 -0.20039430388E+02 -0.13411635097E+03  0.13800645560E+03  0.00000000000E+00 0. -1.
         21    1    1    2  503  501 -0.14877082755E+02 -0.36809085470E+02  0.31898996289E+02  0.50929189358E+02  0.00000000000E+00 0. -1.
          1    1    1    2  501    0 -0.38725031257E+02  0.81466970629E+01 -0.53618689103E+02  0.66640532261E+02  0.00000000000E+00 0. -1.
<scales pt_clust_5="13000.00000" pt_clust_6="13000.00000" pt_clust_7="13000.00000" pt_clust_8="13000.00000" pt_clust_9="39.70184" pt_clust_10="13000.00000"></scales>
<clustering>
<clus scale="   39.702">  1  9  2 -1</clus>
<clus scale="   79.201">  5  6 -1 -1</clus>
<clus scale="   82.117">  2  5  1 -1</clus>
<clus scale="   90.643">  7  8 -1 -1</clus>
<clus scale="   39.941">  7 10 -1 -1</clus>
<clus scale="   39.702">  1  5  2 -1</clus>
</clustering>
</event>
<event>
10    4  0.2759992E-005  0.2701956E+03  0.7546771E-02  0.1142336E+00
          2   -1    0    0  503    0 -0.00000000000E+00  0.00000000000E+00  0.17660103499E+04  0.17660103499E+04  0.00000000000E+00 0. -1.
         21   -1    0    0  501  502  0.00000000000E+00 -0.00000000000E+00 -0.35007069234E+02  0.35007069234E+02  0.00000000000E+00 0. -1.
         24    2    1    2    0    0  0.33435315134E+02  0.43055427286E+02  0.31402848662E+03  0.32860487846E+03  0.79972405368E+02 0.  0.
         23    2    1    2    0    0  0.77647583516E+01 -0.10568858704E+03  0.36999630016E+03  0.39781547222E+03  0.10064551110E+03 0.  0.
        -13    1    3    3    0    0  0.40894723667E+02 -0.89100955823E+01  0.17656206166E+03  0.18145503533E+03  0.00000000000E+00 0.  1.
         14    1    3    3    0    0 -0.74594085338E+01  0.51965522869E+02  0.13746642496E+03  0.14714984313E+03  0.00000000000E+00 0. -1.
        -11    1    4    4    0    0 -0.24064318636E+02 -0.46407932714E+02  0.28324657045E+03  0.28803021946E+03  0.00000000000E+00 0.  1.
         11    1    4    4    0    0  0.31829076988E+02 -0.59280654325E+02  0.86749729711E+02  0.10978525276E+03  0.00000000000E+00 0. -1.
         21    1    1    2  503  502  0.92878684666E+02  0.44710748695E+02  0.54784708967E+03  0.55746025399E+03  0.00000000000E+00 0. -1.
          1    1    1    2  501    0 -0.13407875815E+03  0.17922411056E+02  0.49913140419E+03  0.51713681445E+03  0.00000000000E+00 0. -1.
<scales pt_clust_5="13000.00000" pt_clust_6="13000.00000" pt_clust_7="13000.00000" pt_clust_8="13000.00000" pt_clust_9="122.10282" pt_clust_10="13000.00000"></scales>
<clustering>
<clus scale="   79.972">  5  6 -1 -1</clus>
<clus scale="   96.785">  1  5  2 -1</clus>
<clus scale="  100.646">  7  8 -1 -1</clus>
<clus scale="  122.103">  2  9  1 -1</clus>
<clus scale="   98.612">  7 10 -1 -1</clus>
<clus scale="  122.103">  2  5  1 -1</clus>
</clustering>
</event>
<event>
10    4  0.2759992E-005  0.2554678E+03  0.7546771E-02  0.1127308E+00
         21   -1    0    0  501  502  0.00000000000E+00  0.00000000000E+00  0.91477093171E+02  0.91477093171E+02  0.00000000000E+00 0. -1.
          4   -1    0    0  503    0 -0.00000000000E+00 -0.00000000000E+00 -0.57022458918E+03  0.57022458918E+03  0.00000000000E+00 0. -1.
         24    2    1    2    0    0 -0.62890745285E+01  0.13065339704E+03 -0.11980518896E+03  0.19881399371E+03  0.89798987615E+02 0.  0.
         23    2    1    2    0    0  0.28628567072E+02 -0.38693732047E+02 -0.56828961207E+02  0.12084837474E+03  0.95173520965E+02 0.  0.
        -11    1    3    3    0    0  0.23490919036E+02  0.38279848696E+02 -0.84207922870E+02  0.95436598679E+02  0.00000000000E+00 0.  1.
         12    1    3    3    0    0 -0.29779993564E+02  0.92373548344E+02 -0.35597266090E+02  0.10337739503E+03  0.00000000000E+00 0. -1.
        -13    1    4    4    0    0 -0.17429277129E+02 -0.46916130214E+02 -0.38928094000E+01  0.50200168730E+02  0.00000000000E+00 0. -1.
         13    1    4    4    0    0  0.46057844202E+02  0.82223981669E+01 -0.52936151807E+02  0.70648206009E+02  0.00000000000E+00 0.  1.
         21    1    1    2  503  502  0.16649016353E+02  0.16403387087E+02 -0.57247342476E+01  0.24063113590E+02  0.00000000000E+00 0.  1.
          3    1    1    2  501    0 -0.38988508896E+02 -0.10836305208E+03 -0.29638861160E+03  0.31797620031E+03  0.00000000000E+00 0. -1.
<scales pt_clust_5="13000.00000" pt_clust_6="13000.00000" pt_clust_7="13000.00000" pt_clust_8="13000.00000" pt_clust_9="23.37222" pt_clust_10="13000.00000"></scales>
<clustering>
<clus scale="   23.372">  1  9  2 -1</clus>
<clus scale="   89.799">  5  6 -1 -1</clus>
<clus scale="   95.174">  7  8 -1 -1</clus>
<clus scale="  112.408">  7 10 -1 -1</clus>
<clus scale="  165.095">  2  5  1 -1</clus>
<clus scale="   23.372">  1  5  2 -1</clus>
</clustering>
</event>
<event>
10    4  0.2759992E-005  0.3495992E+03  0.7546771E-02  0.1111794E+00
         -1   -1    0    0    0  501 -0.00000000000E+00  0.00000000000E+00  0.12551438696E+04  0.12551438696E+04  0.00000000000E+00 0.  1.
         21   -1    0    0  501  502  0.00000000000E+00 -0.00000000000E+00 -0.56598382803E+02  0.56598382803E+02  0.00000000000E+00 0.  1.
         24    2    1    2    0    0 -0.39002128351E+02 -0.15120399846E+02  0.19506133477E+03  0.21465644195E+03  0.79238066883E+02 0.  0.
         23    2    1    2    0    0  0.42990142438E+02  0.18308997653E+03  0.50402209595E+03  0.54499968231E+03  0.87271350758E+02 0.  0.
        -11    1    3    3    0    0 -0.53499939579E+02  0.30101309829E+01  0.17787991218E+03  0.18577558392E+03  0.00000000000E+00 0.  1.
         12    1    3    3    0    0  0.14497811228E+02 -0.18130530829E+02  0.17181422583E+02  0.28880858030E+02  0.00000000000E+00 0. -1.
        -11    1    4    4    0    0  0.52345253839E+02  0.45428750402E+02  0.17382224198E+03  0.18713088674E+03  0.00000000000E+00 0.  1.
         11    1    4    4    0    0 -0.93551114004E+01  0.13766122612E+03  0.33019985396E+03  0.35786879557E+03  0.00000000000E+00 0. -1.
         21    1    1    2  503  502 -0.36826450305E+02 -0.26439864971E+02  0.17323294529E+02  0.48531952723E+02  0.00000000000E+00 0.  1.
         -2    1    1    2    0  503  0.32838436218E+02 -0.14152971171E+03  0.48213876157E+03  0.50355417544E+03  0.00000000000E+00 0.  1.
<scales pt_clust_5="13000.00000" pt_clust_6="13000.00000" pt_clust_7="13000.00000" pt_clust_8="13000.00000" pt_clust_9="45.33491" pt_clust_10="13000.00000"></scales>
<clustering>
<clus scale="   45.335">  2  9  1 -1</clus>
<clus scale="   79.238">  5  6 -1 -1</clus>
<clus scale="   87.271">  7  8 -1 -1</clus>
<clus scale="   94.992">  1  5  2 -1</clus>
<clus scale="  159.887">  7 10 -1 -1</clus>
<clus scale="   45.335">  2  5  1 -1</clus>
</clustering>
</event>
<event>
10    4  0.2759992E-005  0.2562012E+03  0.7546771E-02  0.1138808E+00
         21   -1    0    0  501  502  0.00000000000E+00  0.00000000000E+00  0.16206856996E+03  0.16206856996E+03  0.00000000000E+00 0. -1.
          2   -1    0    0  503    0 -0.00000000000E+00 -0.00000000000E+00 -0.46929122002E+03  0.46929122002E+03  0.00000000000E+00 0. -1.
         24    2    1    2    0    0  0.67506566407E+02 -0.85349941938E+02 -0.21405581708E+03  0.25508093399E+03  0.86050223495E+02 0.  0.
         23    2    1    2    0    0 -0.17213025719E+02  0.55193019543E+02  0.27102071356E+02  0.11035873239E+03  0.90010943125E+02 0.  0.
        -13    1    3    3    0    0  0.77531024119E+01 -0.63685283920E+02 -0.57644086715E+02  0.86248285306E+02  0.00000000000E+00 0.  1.
         14    1    3    3    0    0  0.59753463995E+02 -0.21664658018E+02 -0.15641173037E+03  0.16883264869E+03  0.00000000000E+00 0. -1.
        -13    1    4    4    0    0  0.29819713626E+02  0.50901129236E+02  0.85124711047E+01  0.59603711651E+02  0.00000000000E+00 0.  1.
         13    1    4    4    0    0 -0.47032739345E+02  0.42918903077E+01  0.18589600252E+02  0.50755020739E+02  0.00000000000E+00 0. -1.
         21    1    1    2  503  502 -0.64214218343E+02  0.63324985060E+02  0.42161407224E+02  0.99554526916E+02  0.00000000000E+00 0. -1.
          1    1    1    2  501    0  0.13920677655E+02 -0.33168062665E+02 -0.16243031156E+03  0.16636559668E+03  0.00000000000E+00 0. -1.
<scales pt_clust_5="13000.00000" pt_clust_6="13000.00000" pt_clust_7="13000.00000" pt_clust_8="13000.00000" pt_clust_9="90.18603" pt_clust_10="13000.00000"></scales>
<clustering>
<clus scale="   86.050">  5  6 -1 -1</clus>
<clus scale="   90.011">  7  8 -1 -1</clus>
<clus scale="   35.971">  7 10 -1 -1</clus>
<clus scale="   90.186">  1  9  2 -1</clus>
<clus scale="  123.600">  2  5  1 -1</clus>
<clus scale="   90.186">  1  5  2 -1</clus>
</clustering>
</event>
<event>
10    4  0.2759992E-005  0.3563161E+03  0.7546771E-02  0.1087879E+00
         21   -1    0    0  503  502  0.00000000000E+00  0.00000000000E+00  0.48701097647E+03  0.48701097647E+03  0.00000000000E+00 0. -1.
          2   -1    0    0  502    0 -0.00000000000E+00 -0.00000000000E+00 -0.24229293122E+03  0.24229293122E+03  0.00000000000E+00 0. -1.
         24    2    1    2    0    0  0.11640845890E+03  0.44695635512E+02  0.16201334187E+03  0.21881314115E+03  0.77988708530E+02 0.  0.
         23    2    1    2    0    0  0.63187404057E+02 -0.10343126338E+03 -0.63153655835E+02  0.16363194218E+03  0.89979742068E+02 0.  0.
        -13    1    3    3    0    0  0.43810625998E+02 -0.20719336787E+02  0.42719037099E+02  0.64603235197E+02  0.00000000000E+00 0.  1.
         14    1    3    3    0    0  0.72597832907E+02  0.65414972299E+02  0.11929430477E+03  0.15420990595E+03  0.00000000000E+00 0. -1.
        -13    1    4    4    0    0 -0.54501669385E+00 -0.46435987549E+02  0.13961788197E+02  0.48492571725E+02  0.00000000000E+00 0.  1.
         13    1    4    4    0    0  0.63732420751E+02 -0.56995275827E+02 -0.77115444033E+02  0.11513937046E+03  0.00000000000E+00 0. -1.
         21    1    1    2  503  501  0.24545072592E+02  0.47116336306E+02  0.13156742622E+03  0.14188867952E+03  0.00000000000E+00 0. -1.
          1    1    1    2  501    0 -0.20414093555E+03  0.11619291557E+02  0.14290933003E+02  0.20497014483E+03  0.00000000000E+00 0. -1.
<scales pt_clust_5="13000.00000" pt_clust_6="13000.00000" pt_clust_7="13000.00000" pt_clust_8="13000.00000" pt_clust_9="53.12636" pt_clust_10="13000.00000"></scales>
<clustering>
<clus scale="   53.126">  1  9  2 -1</clus>
<clus scale="   77.989">  5  6 -1 -1</clus>
<clus scale="   89.980">  7  8 -1 -1</clus>
<clus scale="  166.916">  2  5  1 -1</clus>
<clus scale="  149.611">  7 10 -1 -1</clus>
<clus scale="   53.126">  1  5  2 -1</clus>
</clustering>
</event>
<event>
10    4  0.2759992E-005  0.2047836E+03  0.7546771E-02  0.1160028E+00
         21   -1    0    0  501  502  0.00000000000E+00  0.00000000000E+00  0.62101950245E+03  0.62101950245E+03  0.00000000000E+00 0.  1.
          4   -1    0    0  503    0 -0.00000000000E+00 -0.00000000000E+00 -0.63919362885E+02  0.63919362885E+02  0.00000000000E+00 0. -1.
         24    2    1    2    0    0  0.54076816984E+01 -0.11489984156E+03  0.18606707857E+03  0.23375179635E+03  0.82387668730E+02 0.  0.
         23    2    1    2    0    0 -0.25627715925E+01  0.42003022042E+02  0.20185742624E+03  0.22644593595E+03  0.93597648051E+02 0.  0.
        -13    1    3    3    0    0  0.37144706191E+02 -0.52914334799E+02  0.12670690379E+03  0.14224730399E+03  0.00000000000E+00 0.  1.
         14    1    3    3    0    0 -0.31737024493E+02 -0.61985506759E+02  0.59360174775E+02  0.91504492355E+02  0.00000000000E+00 0. -1.
        -11    1    4    4    0    0  0.20628869910E+02  0.60971111565E+02  0.17404541901E+03  0.18556625393E+03  0.00000000000E+00 0. -1.
         11    1    4    4    0    0 -0.23191641503E+02 -0.18968089523E+02  0.27812007225E+02  0.40879682015E+02  0.00000000000E+00 0.  1.
         21    1    1    2  503  502  0.30713009663E+02 -0.11122594994E+02  0.11441408219E+03  0.11898564319E+03  0.00000000000E+00 0. -1.
          3    1    1    2  501    0 -0.33557919769E+02  0.84019414509E+02  0.54761552576E+02  0.10575548985E+03  0.00000000000E+00 0. -1.
<scales pt_clust_5="13000.00000" pt_clust_6="13000.00000" pt_clust_7="13000.00000" pt_clust_8="13000.00000" pt_clust_9="32.66498" pt_clust_10="13000.00000"></scales>
<clustering>
<clus scale="   32.665">  1  9  2 -1</clus>
<clus scale="   82.388">  5  6 -1 -1</clus>
<clus scale="   93.598">  7  8 -1 -1</clus>
<clus scale="   87.103">  7 10 -1 -1</clus>
<clus scale="  146.308">  2  5  1 -1</clus>
<clus scale="   32.665">  1  5  2 -1</clus>
</clustering>
</event>
<event>
10    4  0.2759992E-005  0.4872892E+03  0.7546771E-02  0.1043971E+00
          2   -1    0    0  502    0 -0.00000000000E+00  0.00000000000E+00  0.81844501479E+03  0.81844501479E+03  0.00000000000E+00 0. -1.
         21   -1    0    0  503  502  0.00000000000E+00 -0.00000000000E+00 -0.25271199698E+03  0.25271199698E+03  0.00000000000E+00 0. -1.
         24    2    1    2    0    0  0.19992495322E+03 -0.35890438136E+02  0.34297084252E+03  0.40637392050E+03  0.79073724946E+02 0.  0.
         23    2    1    2    0    0  0.11028845070E+03 -0.12241355090E+02  0.17647170565E+03  0.22787501209E+03  0.92040019059E+02 0.  0.
        -13    1    3    3    0    0  0.57656458190E+02 -0.25587165419E+02  0.17493052258E+03  0.18595606453E+03  0.00000000000E+00 0.  1.
         14    1    3    3    0    0  0.14226849503E+03 -0.10303272716E+02  0.16804031994E+03  0.22041785597E+03  0.00000000000E+00 0. -1.
        -13    1    4    4    0    0  0.71321813176E+02  0.33705629416E+02  0.69637294596E+02  0.10522463251E+03  0.00000000000E+00 0.  1.
         13    1    4    4    0    0  0.38966637523E+02 -0.45946984506E+02  0.10683441105E+03  0.12265037958E+03  0.00000000000E+00 0. -1.
         21    1    1    2  503  501  0.14640915553E+02  0.16136405143E+02 -0.82998113893E+02  0.85810412474E+02  0.00000000000E+00 0. -1.
          1    1    1    2  501    0 -0.32485431947E+03  0.31995388082E+02  0.12928858353E+03  0.35109766671E+03  0.00000000000E+00 0. -1.
<scales pt_clust_5="13000.00000" pt_clust_6="13000.00000" pt_clust_7="13000.00000" pt_clust_8="13000.00000" pt_clust_9="21.78853" pt_clust_10="13000.00000"></scales>
<clustering>
<clus scale="   21.789">  2  9  1 -1</clus>
<clus scale="   79.074">  5  6 -1 -1</clus>
<clus scale="   92.040">  7  8 -1 -1</clus>
<clus scale="  220.027">  1  5  2 -1</clus>
<clus scale="  210.433">  7 10 -1 -1</clus>
<clus scale="   21.789">  2  5  1 -1</clus>
</clustering>
</event>
<event>
10    4  0.2886837E-005  0.8646787E+03  0.7546771E-02  0.9991280E-01
         21   -1    0    0  503  502  0.00000000000E+00  0.00000000000E+00  0.51503958635E+03  0.51503958635E+03  0.00000000000E+00 0. -1.
          2   -1    0    0  502    0 -0.00000000000E+00 -0.00000000000E+00 -0.58961926470E+03  0.58961926470E+03  0.00000000000E+00 0. -1.
         24    2    1    2    0    0  0.12375330105E+03 -0.57581026745E+02  0.77955456400E+02  0.17687639589E+03  0.81103341977E+02 0.  0.
         23    2    1    2    0    0  0.21289074347E+03 -0.17636681612E+03  0.19529791317E+03  0.35026311060E+03  0.90084678389E+02 0.  0.
        -11    1    3    3    0    0  0.77875801616E+02 -0.53071761309E+02  0.10012441789E+02  0.94770783031E+02  0.00000000000E+00 0.  1.
         12    1    3    3    0    0  0.45877499437E+02 -0.45092654359E+01  0.67943014611E+02  0.82105612864E+02  0.00000000000E+00 0. -1.
        -11    1    4    4    0    0  0.18782105518E+03 -0.13711131272E+03  0.19531654960E+03  0.30368538883E+03  0.00000000000E+00 0. -1.
         11    1    4    4    0    0  0.25069688289E+02 -0.39255503399E+02 -0.18636430943E-01  0.46577721771E+02  0.00000000000E+00 0.  1.
         21    1    1    2  503  501 -0.13423924413E+02  0.38873698642E+02  0.24009116815E+02  0.47621464520E+02  0.00000000000E+00 0.  1.
          1    1    1    2  501    0 -0.32322012011E+03  0.19507414422E+03 -0.37184216473E+03  0.52989788003E+03  0.00000000000E+00 0. -1.
<scales pt_clust_5="13000.00000" pt_clust_6="13000.00000" pt_clust_7="13000.00000" pt_clust_8="13000.00000" pt_clust_9="41.12622" pt_clust_10="13000.00000"></scales>
<clustering>
<clus scale="   41.126">  1  9  2 -1</clus>
<clus scale="   81.103">  5  6 -1 -1</clus>
<clus scale="   90.085">  7  8 -1 -1</clus>
<clus scale="  152.493">  2  5  1 -1</clus>
<clus scale="  274.263">  7 10 -1 -1</clus>
<clus scale="   41.126">  1  5  2 -1</clus>
</clustering>
</event>
<event>
10    4  0.2759992E-005  0.5022953E+03  0.7546771E-02  0.1046678E+00
          2   -1    0    0  502    0 -0.00000000000E+00  0.00000000000E+00  0.69053129348E+03  0.69053129348E+03  0.00000000000E+00 0. -1.
         21   -1    0    0  503  502  0.00000000000E+00 -0.00000000000E+00 -0.24809089820E+03  0.24809089820E+03  0.00000000000E+00 0. -1.
         24    2    1    2    0    0 -0.91590008733E+02  0.15395886956E+03 -0.39229931481E+02  0.20007910813E+03  0.80003742216E+02 0.  0.
         23    2    1    2    0    0  0.20782107561E+03  0.80568570585E+02  0.26747858120E+03  0.35992439636E+03  0.91213407237E+02 0.  0.
        -13    1    3    3    0    0 -0.27644551057E+02  0.17459326295E+02  0.19769653826E+02  0.38208487149E+02  0.00000000000E+00 0.  1.
         14    1    3    3    0    0 -0.63945457676E+02  0.13649954327E+03 -0.58999585307E+02  0.16187062098E+03  0.00000000000E+00 0. -1.
        -13    1    4    4    0    0  0.51964839107E+02 -0.15884575875E+02  0.38361863452E+02  0.66515387856E+02  0.00000000000E+00 0.  1.
         13    1    4    4    0    0  0.15585623650E+03  0.96453146460E+02  0.22911671775E+03  0.29340900850E+03  0.00000000000E+00 0. -1.
         21    1    1    2  503  501  0.17039065029E+02 -0.14672879479E+02 -0.20563334314E+02  0.30470868832E+02  0.00000000000E+00 0.  1.
          1    1    1    2  501    0 -0.13327013191E+03 -0.21985456067E+03  0.23475507987E+03  0.34814781836E+03  0.00000000000E+00 0. -1.
<scales pt_clust_5="13000.00000" pt_clust_6="13000.00000" pt_clust_7="13000.00000" pt_clust_8="13000.00000" pt_clust_9="22.48607" pt_clust_10="13000.00000"></scales>
<clustering>
<clus scale="   22.486">  2  9  1 -1</clus>
<clus scale="   80.004">  5  6 -1 -1</clus>
<clus scale="   91.213">  7  8 -1 -1</clus>
<clus scale="  185.828">  1  5  2 -1</clus>
<clus scale="  227.944">  7 10 -1 -1</clus>
<clus scale="   22.486">  2  5  1 -1</clus>
</clustering>
</event>
<event>
10    4  0.2759992E-005  0.1551188E+03  0.7546771E-02  0.1223303E+00
          2   -1    0    0  502    0 -0.00000000000E+00  0.00000000000E+00  0.11712472464E+03  0.11712472464E+03  0.00000000000E+00 0. -1.
         21   -1    0    0  503  502  0.00000000000E+00 -0.00000000000E+00 -0.19565916703E+03  0.19565916703E+03  0.00000000000E+00 0. -1.
         24    2    1    2    0    0  0.53076198858E+01  0.15138356095E+02  0.16641675244E+02  0.83564367240E+02  0.80303906899E+02 0.  0.
         23    2    1    2    0    0 -0.16249311731E+02 -0.66254613803E+02 -0.11803191840E+03  0.16378260019E+03  0.90771649661E+02 0.  0.
        -11    1    3    3    0    0 -0.25311582272E+02 -0.20829865470E+02  0.15633371376E+02  0.36317513588E+02  0.00000000000E+00 0.  1.
         12    1    3    3    0    0  0.30619202157E+02  0.35968221565E+02  0.10083038674E+01  0.47246853652E+02  0.00000000000E+00 0. -1.
        -13    1    4    4    0    0  0.21756788022E+02  0.52397002383E+01 -0.60358850468E+02  0.64373931941E+02  0.00000000000E+00 0.  1.
         13    1    4    4    0    0 -0.38006099753E+02 -0.71494314041E+02 -0.57673067931E+02  0.99408668250E+02  0.00000000000E+00 0. -1.
         21    1    1    2  503  501  0.21129509558E+02  0.29793329583E+02  0.75968885755E+01  0.37306988325E+02  0.00000000000E+00 0. -1.
          1    1    1    2  501    0 -0.10187817713E+02  0.21322928125E+02  0.15258912189E+02  0.28129935918E+02  0.00000000000E+00 0. -1.
<scales pt_clust_5="13000.00000" pt_clust_6="13000.00000" pt_clust_7="13000.00000" pt_clust_8="13000.00000" pt_clust_9="36.52533" pt_clust_10="13000.00000"></scales>
<clustering>
<clus scale="   36.525">  2  9  1 -1</clus>
<clus scale="   80.304">  5  6 -1 -1</clus>
<clus scale="   83.428">  1  5  2 -1</clus>
<clus scale="   90.772">  7  8 -1 -1</clus>
<clus scale="   31.235">  7 10 -1 -1</clus>
<clus scale="   36.525">  2  5  1 -1</clus>
</clustering>
</event>
<event>
10    4  0.2759992E-005  0.1457618E+03  0.7546771E-02  0.1230903E+00
         21   -1    0    0  501  502  0.00000000000E+00  0.00000000000E+00  0.56505176458E+02  0.56505176458E+02  0.00000000000E+00 0.  1.
          2   -1    0    0  503    0 -0.00000000000E+00 -0.00000000000E+00 -0.48964755888E+03  0.48964755888E+03  0.00000000000E+00 0. -1.
         24    2    1    2    0    0 -0.15334682775E+02  0.58443033783E+02 -0.10797559696E+03  0.14591173361E+03  0.77335397931E+02 0.  0.
         23    2    1    2    0    0 -0.13627702487E+02 -0.21053717824E+02 -0.17348544244E+03  0.19853210004E+03  0.93213854657E+02 0.  0.
        -11    1    3    3    0    0 -0.49577975871E-01  0.25896137856E+02  0.58440259129E+01  0.26547411412E+02  0.00000000000E+00 0.  1.
         12    1    3    3    0    0 -0.15285104799E+02  0.32546895927E+02 -0.11381962287E+03  0.11936432220E+03  0.00000000000E+00 0. -1.
        -13    1    4    4    0    0  0.97258007360E+01  0.21184691935E+02 -0.57755427119E+01  0.24015396435E+02  0.00000000000E+00 0.  1.
         13    1    4    4    0    0 -0.23353503223E+02 -0.42238409758E+02 -0.16770989973E+03  0.17451670361E+03  0.00000000000E+00 0. -1.
         21    1    1    2  503  502 -0.10571652652E+02 -0.50234741024E+02 -0.77767258132E+01  0.51920771469E+02  0.00000000000E+00 0.  1.
          1    1    1    2  501    0  0.39534037913E+02  0.12845425066E+02 -0.14390461721E+03  0.14978813021E+03  0.00000000000E+00 0. -1.
<scales pt_clust_5="13000.00000" pt_clust_6="13000.00000" pt_clust_7="13000.00000" pt_clust_8="13000.00000" pt_clust_9="51.33507" pt_clust_10="13000.00000"></scales>
<clustering>
<clus scale="   51.335">  1  9  2 -1</clus>
<clus scale="   77.335">  5  6 -1 -1</clus>
<clus scale="   85.879">  2  5  1 -1</clus>
<clus scale="   93.214">  7  8 -1 -1</clus>
<clus scale="   36.687">  7 10 -1 -1</clus>
<clus scale="   51.335">  1  5  2 -1</clus>
</clustering>
</event>
<event>
10    4  0.2759992E-005  0.2039174E+03  0.7546771E-02  0.1159307E+00
         -1   -1    0    0    0  501 -0.00000000000E+00  0.00000000000E+00  0.35160592844E+03  0.35160592844E+03  0.00000000000E+00 0.  1.
         21   -1    0    0  503  502  0.00000000000E+00 -0.00000000000E+00 -0.25399427708E+03  0.25399427708E+03  0.00000000000E+00 0. -1.
         24    2    1    2    0    0  0.10526425700E+03 -0.38892290268E+02 -0.74772010346E+02  0.15235174429E+03  0.70901526164E+02 0.  0.
         23    2    1    2    0    0 -0.56502569914E+02  0.86421458836E+01  0.82369420441E+02  0.13479705989E+03  0.90101602862E+02 0.  0.
        -13    1    3    3    0    0  0.97021329707E+01  0.17732637759E+02 -0.38908673824E+01  0.20584379395E+02  0.00000000000E+00 0.  1.
         14    1    3    3    0    0  0.95562124033E+02 -0.56624928028E+02 -0.70881142964E+02  0.13176736490E+03  0.00000000000E+00 0. -1.
        -13    1    4    4    0    0 -0.53250248158E+02  0.29628276919E+02  0.13079455646E+02  0.62325724079E+02  0.00000000000E+00 0. -1.
         13    1    4    4    0    0 -0.32523217562E+01 -0.20986131035E+02  0.69289964795E+02  0.72471335809E+02  0.00000000000E+00 0.  1.
         21    1    1    2  503  501  0.27182488536E+02 -0.44212976412E+01 -0.10381610099E+03  0.10740678927E+03  0.00000000000E+00 0. -1.
         -2    1    1    2    0  502 -0.75944175627E+02  0.34671442026E+02  0.19383034226E+03  0.21104461207E+03  0.00000000000E+00 0.  1.
<scales pt_clust_5="13000.00000" pt_clust_6="13000.00000" pt_clust_7="13000.00000" pt_clust_8="13000.00000" pt_clust_9="27.53971" pt_clust_10="13000.00000"></scales>
<clustering>
<clus scale="   27.540">  2  9  1 -1</clus>
<clus scale="   70.902">  5  6 -1 -1</clus>
<clus scale="   90.102">  7  8 -1 -1</clus>
<clus scale="   81.945">  7 10 -1 -1</clus>
<clus scale="  150.690">  1  5  2 -1</clus>
<clus scale="   27.540">  2  5  1 -1</clus>
</clustering>
</event>
<event>
10    4  0.2759992E-005  0.2499828E+03  0.7546771E-02  0.1128515E+00
         -1   -1    0    0    0  501 -0.00000000000E+00  0.00000000000E+00  0.67106131117E+03  0.67106131117E+03  0.00000000000E+00 0.  1.
         21   -1    0    0  501  502  0.00000000000E+00 -0.00000000000E+00 -0.10924915751E+03  0.10924915751E+03  0.00000000000E+00 0.  1.
         24    2    1    2    0    0 -0.16710855539E+03  0.15780539704E+02  0.34525964143E+03  0.39221459933E+03  0.80335404452E+02 0.  0.
         23    2    1    2    0    0 -0.25059845494E+02 -0.26751440363E+02  0.17965480271E+02  0.10139735291E+03  0.92817182018E+02 0.  0.
        -13    1    3    3    0    0 -0.12057301626E+03  0.18422378477E+02  0.31188548148E+03  0.33488772721E+03  0.00000000000E+00 0.  1.
         14    1    3    3    0    0 -0.46535539131E+02 -0.26418387726E+01  0.33374159946E+02  0.57326872114E+02  0.00000000000E+00 0. -1.
        -11    1    4    4    0    0 -0.55752814438E+01  0.28456886785E+02 -0.16596141578E+02  0.33411226915E+02  0.00000000000E+00 0.  1.
         11    1    4    4    0    0 -0.19484564051E+02 -0.55208327148E+02  0.34561621849E+02  0.67986125993E+02  0.00000000000E+00 0. -1.
         21    1    1    2  503  502  0.73673722146E+02  0.22076809875E+02  0.12501952982E+03  0.14678244345E+03  0.00000000000E+00 0.  1.
         -2    1    1    2    0  503  0.11849467874E+03 -0.11105909216E+02  0.73567502136E+02  0.13991607299E+03  0.00000000000E+00 0.  1.
<scales pt_clust_5="13000.00000" pt_clust_6="13000.00000" pt_clust_7="13000.00000" pt_clust_8="13000.00000" pt_clust_9="76.91039" pt_clust_10="13000.00000"></scales>
<clustering>
<clus scale="   76.910">  2  9  1 -1</clus>
<clus scale="   80.335">  5  6 -1 -1</clus>
<clus scale="   92.817">  7  8 -1 -1</clus>
<clus scale="  143.388">  7 10 -1 -1</clus>
<clus scale="  171.040">  1  5  2 -1</clus>
<clus scale="   76.910">  2  5  1 -1</clus>
</clustering>
</event>
<event>
10    4  0.2759992E-005  0.2129267E+03  0.7546771E-02  0.1166729E+00
          2   -1    0    0  503    0 -0.00000000000E+00  0.00000000000E+00  0.43010384880E+03  0.43010384880E+03  0.00000000000E+00 0. -1.
         21   -1    0    0  501  502  0.00000000000E+00 -0.00000000000E+00 -0.93252496731E+02  0.93252496731E+02  0.00000000000E+00 0.  1.
         24    2    1    2    0    0 -0.60883039243E+02  0.50392775938E+02  0.17888407079E+03  0.21140843186E+03  0.80298430538E+02 0.  0.
         23    2    1    2    0    0  0.69464705424E+02  0.36285421175E+02  0.17587320833E+03  0.21695431343E+03  0.99979055886E+02 0.  0.
        -11    1    3    3    0    0 -0.60017023961E+02  0.22801633443E+02  0.17106730994E+03  0.18271831376E+03  0.00000000000E+00 0.  1.
         12    1    3    3    0    0 -0.86601528165E+00  0.27591142494E+02  0.78167608467E+01  0.28690118103E+02  0.00000000000E+00 0. -1.
        -13    1    4    4    0    0  0.88562969823E+02  0.51599993401E+02  0.13938153008E+03  0.17301205122E+03  0.00000000000E+00 0. -1.
         13    1    4    4    0    0 -0.19098264398E+02 -0.15314572226E+02  0.36491678258E+02  0.43942262203E+02  0.00000000000E+00 0.  1.
         21    1    1    2  503  502 -0.11525280455E+02 -0.26911516671E+02 -0.19427204049E+02  0.35135140191E+02  0.00000000000E+00 0. -1.
          1    1    1    2  501    0  0.29436142730E+01 -0.59766680442E+02  0.15212770000E+01  0.59858460052E+02  0.00000000000E+00 0. -1.
<scales pt_clust_5="13000.00000" pt_clust_6="13000.00000" pt_clust_7="13000.00000" pt_clust_8="13000.00000" pt_clust_9="29.27562" pt_clust_10="13000.00000"></scales>
<clustering>
<clus scale="   29.276">  2  9  1 -1</clus>
<clus scale="   80.298">  5  6 -1 -1</clus>
<clus scale="   99.979">  7  8 -1 -1</clus>
<clus scale="   71.698">  7 10 -1 -1</clus>
<clus scale="  111.461">  1  5  2 -1</clus>
<clus scale="   29.276">  2  5  1 -1</clus>
</clustering>
</event>
<event>
10    4  0.2759992E-005  0.2858173E+03  0.7546771E-02  0.1139066E+00
          2   -1    0    0  503    0 -0.00000000000E+00  0.00000000000E+00  0.60893187707E+03  0.60893187707E+03  0.00000000000E+00 0. -1.
         21   -1    0    0  501  502  0.00000000000E+00 -0.00000000000E+00 -0.77996820530E+02  0.77996820530E+02  0.00000000000E+00 0. -1.
         24    2    1    2    0    0 -0.33564915428E+02  0.18810897812E+02  0.26490327432E+03  0.27951587816E+03  0.80466937145E+02 0.  0.
         23    2    1    2    0    0 -0.97734122079E+02 -0.47156056764E+02  0.16669578865E+03  0.22037009467E+03  0.94867488423E+02 0.  0.
        -11    1    3    3    0    0 -0.16597553076E+02  0.46261189352E+02  0.99297685882E+02  0.11079533758E+03  0.00000000000E+00 0.  1.
         12    1    3    3    0    0 -0.16967362352E+02 -0.27450291540E+02  0.16560558843E+03  0.16872054057E+03  0.00000000000E+00 0. -1.
        -11    1    4    4    0    0 -0.29085765663E+02  0.28419908869E+02  0.61882092613E+02  0.74047730354E+02  0.00000000000E+00 0.  1.
         11    1    4    4    0    0 -0.68648356416E+02 -0.75575965633E+02  0.10481369604E+03  0.14632236431E+03  0.00000000000E+00 0. -1.
         21    1    1    2  503  502  0.70964214742E+01 -0.22764823032E+02  0.19458841631E+02  0.30777311173E+02  0.00000000000E+00 0.  1.
          1    1    1    2  501    0  0.12420261603E+03  0.51109981983E+02  0.79877151940E+02  0.15626541361E+03  0.00000000000E+00 0. -1.
<scales pt_clust_5="13000.00000" pt_clust_6="13000.00000" pt_clust_7="13000.00000" pt_clust_8="13000.00000" pt_clust_9="23.84526" pt_clust_10="13000.00000"></scales>
<clustering>
<clus scale="   23.845">  2  9  1 -1</clus>
<clus scale="   80.467">  5  6 -1 -1</clus>
<clus scale="   88.468">  1  5  2 -1</clus>
<clus scale="   94.867">  7  8 -1 -1</clus>
<clus scale="  123.973">  7 10 -1 -1</clus>
<clus scale="   23.845">  2  5  1 -1</clus>
</clustering>
</event>
<event>
10    4  0.2759992E-005  0.3046112E+03  0.7546771E-02  0.1103844E+00
         21   -1    0    0  501  502  0.00000000000E+00  0.00000000000E+00  0.30282576890E+03  0.30282576890E+03  0.00000000000E+00 0. -1.
          2   -1    0    0  503    0 -0.00000000000E+00 -0.00000000000E+00 -0.26763446080E+03  0.26763446080E+03  0.00000000000E+00 0. -1.
         24    2    1    2    0    0  0.25167574227E+02  0.15556882403E+03 -0.10855747736E+01  0.17645775730E+03  0.79379442144E+02 0.  0.
         23    2    1    2    0    0  0.15864094969E+02  0.15363745210E+02  0.83577361934E+02  0.13330279218E+03  0.10147287716E+03 0.  0.
        -13    1    3    3    0    0  0.51981431770E+01  0.59152674709E+02  0.38024933555E+02  0.70512092506E+02  0.00000000000E+00 0.  1.
         14    1    3    3    0    0  0.19969431050E+02  0.96416149322E+02 -0.39110508328E+02  0.10594566479E+03  0.00000000000E+00 0. -1.
        -13    1    4    4    0    0  0.35431946346E+02  0.73727714032E+01 -0.98556232985E+01  0.37508850830E+02  0.00000000000E+00 0.  1.
         13    1    4    4    0    0 -0.19567851377E+02  0.79909738073E+01  0.93432985232E+02  0.95793941350E+02  0.00000000000E+00 0. -1.
         21    1    1    2  503  502 -0.76986872373E+02  0.46144608810E+01 -0.16744158958E+02  0.78921724679E+02  0.00000000000E+00 0. -1.
          1    1    1    2  501    0  0.35955203178E+02 -0.17554703012E+03 -0.30556320103E+02  0.18177795554E+03  0.00000000000E+00 0. -1.
<scales pt_clust_5="13000.00000" pt_clust_6="13000.00000" pt_clust_7="13000.00000" pt_clust_8="13000.00000" pt_clust_9="77.12508" pt_clust_10="13000.00000"></scales>
<clustering>
<clus scale="   77.125">  1  9  2 -1</clus>
<clus scale="   79.379">  5  6 -1 -1</clus>
<clus scale="  101.473">  7  8 -1 -1</clus>
<clus scale="  174.868">  7 10 -1 -1</clus>
<clus scale="  175.978">  2  5  1 -1</clus>
<clus scale="   77.125">  1  5  2 -1</clus>
</clustering>
</event>
<event>
10    4  0.2759992E-005  0.2392079E+03  0.7546771E-02  0.1153503E+00
         21   -1    0    0  501  502  0.00000000000E+00  0.00000000000E+00  0.21084757086E+03  0.21084757086E+03  0.00000000000E+00 0. -1.
          2   -1    0    0  503    0 -0.00000000000E+00 -0.00000000000E+00 -0.21423468646E+03  0.21423468646E+03  0.00000000000E+00 0. -1.
         24    2    1    2    0    0  0.79438139947E+02  0.67935754392E+01 -0.33494226622E+02  0.11773872023E+03  0.79899763952E+02 0.  0.
         23    2    1    2    0    0  0.28712950932E+02 -0.10270397686E+02 -0.85897158301E+02  0.13144877845E+03  0.94712960733E+02 0.  0.
        -11    1    3    3    0    0  0.59623312005E+02  0.28695412940E+02 -0.50877431876E+02  0.83467832921E+02  0.00000000000E+00 0.  1.
         12    1    3    3    0    0  0.19814827943E+02 -0.21901837500E+02  0.17383205254E+02  0.34270887313E+02  0.00000000000E+00 0. -1.
        -11    1    4    4    0    0 -0.13773964730E+02  0.34881178351E+02 -0.32554337152E+02  0.49660885765E+02  0.00000000000E+00 0.  1.
         11    1    4    4    0    0  0.42486915662E+02 -0.45151576037E+02 -0.53342821149E+02  0.81787892681E+02  0.00000000000E+00 0. -1.
         21    1    1    2  503  502 -0.38108794706E+02  0.38237046459E+02  0.45223265882E+02  0.70423687300E+02  0.00000000000E+00 0. -1.
          1    1    1    2  501    0 -0.70042296173E+02 -0.34760224212E+02  0.70781003441E+02  0.10547107134E+03  0.00000000000E+00 0. -1.
<scales pt_clust_5="13000.00000" pt_clust_6="13000.00000" pt_clust_7="13000.00000" pt_clust_8="13000.00000" pt_clust_9="53.98474" pt_clust_10="13000.00000"></scales>
<clustering>
<clus scale="   53.985">  1  9  2 -1</clus>
<clus scale="   79.900">  5  6 -1 -1</clus>
<clus scale="   94.713">  7  8 -1 -1</clus>
<clus scale="   92.867">  7 10 -1 -1</clus>
<clus scale="  106.947">  2  5  1 -1</clus>
<clus scale="   53.985">  1  5  2 -1</clus>
</clustering>
</event>
<event>
10    4  0.2759992E-005  0.2718684E+03  0.7546771E-02  0.1140655E+00
          2   -1    0    0  503    0 -0.00000000000E+00  0.00000000000E+00  0.54820433613E+03  0.54820433613E+03  0.00000000000E+00 0. -1.
         21   -1    0    0  501  502  0.00000000000E+00 -0.00000000000E+00 -0.11939125393E+03  0.11939125393E+03  0.00000000000E+00 0. -1.
         24    2    1    2    0    0  0.66343671245E+02 -0.21825438573E+02  0.11994854229E+03  0.16012818345E+03  0.79847040361E+02 0.  0.
         23    2    1    2    0    0 -0.72551007512E+02 -0.12357761565E+02  0.41853182059E+02  0.12325884662E+03  0.89580642219E+02 0.  0.
        -13    1    3    3    0    0  0.60386745030E+02 -0.59144478363E+00  0.12379708699E+03  0.13774116135E+03  0.00000000000E+00 0.  1.
         14    1    3    3    0    0  0.59569262155E+01 -0.21233993789E+02 -0.38485447027E+01  0.22387022100E+02  0.00000000000E+00 0. -1.
        -11    1    4    4    0    0 -0.26677244642E+02 -0.39751709717E+02  0.49985504392E+02  0.69212892270E+02  0.00000000000E+00 0. -1.
         11    1    4    4    0    0 -0.45873762871E+02  0.27393948152E+02 -0.81323223337E+01  0.54045954352E+02  0.00000000000E+00 0.  1.
         21    1    1    2  503  502 -0.54540935530E+02 -0.28026186571E+02 -0.34535018413E+02  0.70376475324E+02  0.00000000000E+00 0. -1.
          1    1    1    2  501    0  0.60748271797E+02  0.62209386708E+02  0.30154637627E+03  0.31383208466E+03  0.00000000000E+00 0. -1.
<scales pt_clust_5="13000.00000" pt_clust_6="13000.00000" pt_clust_7="13000.00000" pt_clust_8="13000.00000" pt_clust_9="61.32031" pt_clust_10="13000.00000"></scales>
<clustering>
<clus scale="   61.320">  2  9  1 -1</clus>
<clus scale="   79.847">  5  6 -1 -1</clus>
<clus scale="   89.581">  7  8 -1 -1</clus>
<clus scale="   81.633">  7 10 -1 -1</clus>
<clus scale="   98.930">  1  5  2 -1</clus>
<clus scale="   61.320">  2  5  1 -1</clus>
</clustering>
</event>
<event>
10    4  0.2759992E-005  0.1119784E+04  0.7546771E-02  0.9902579E-01
         21   -1    0    0  501  502  0.00000000000E+00  0.00000000000E+00  0.32325853617E+03  0.32325853617E+03  0.00000000000E+00 0.  1.
          2   -1    0    0  503    0 -0.00000000000E+00 -0.00000000000E+00 -0.12923263983E+04  0.12923263983E+04  0.00000000000E+00 0. -1.
         24    2    1    2    0    0  0.14474750615E+02  0.23407746692E+02 -0.25841870358E+02  0.94738218296E+02  0.86891235069E+02 0.  0.
         23    2    1    2    0    0  0.68041931635E+02  0.26683027188E+03  0.14360776616E+03  0.32343033872E+03  0.90309994181E+02 0.  0.
        -13    1    3    3    0    0 -0.24419156089E+02  0.55595116492E+01  0.19982568112E+02  0.32039138288E+02  0.00000000000E+00 0.  1.
         14    1    3    3    0    0  0.38893906704E+02  0.17848235043E+02 -0.45824438470E+02  0.62699080008E+02  0.00000000000E+00 0. -1.
        -11    1    4    4    0    0  0.66043308010E+02  0.14155955091E+03  0.41026360767E+02  0.16150537844E+03  0.00000000000E+00 0.  1.
         11    1    4    4    0    0  0.19986236259E+01  0.12527072098E+03  0.10258140540E+03  0.16192496028E+03  0.00000000000E+00 0. -1.
         21    1    1    2  503  502  0.37129341074E+02  0.37468163928E+02  0.32695723016E+01  0.52850178616E+02  0.00000000000E+00 0.  1.
          1    1    1    2  501    0 -0.11964602332E+03 -0.32770618250E+03 -0.10901033302E+04  0.11445661989E+04  0.00000000000E+00 0. -1.
<scales pt_clust_5="13000.00000" pt_clust_6="13000.00000" pt_clust_7="13000.00000" pt_clust_8="13000.00000" pt_clust_9="52.74895" pt_clust_10="13000.00000"></scales>
<clustering>
<clus scale="   52.749">  1  9  2 -1</clus>
<clus scale="   86.891">  5  6 -1 -1</clus>
<clus scale="   90.310">  7  8 -1 -1</clus>
<clus scale="   93.143">  2  5  1 -1</clus>
<clus scale="  315.613">  7 10 -1 -1</clus>
<clus scale="   52.749">  1  5  2 -1</clus>
</clustering>
</event>
<event>
10    4  0.6292860E-005  0.2309417E+03  0.7546771E-02  0.1165817E+00
         21   -1    0    0  501  502  0.00000000000E+00  0.00000000000E+00  0.49626818694E+03  0.49626818694E+03  0.00000000000E+00 0.  1.
          2   -1    0    0  503    0 -0.00000000000E+00 -0.00000000000E+00 -0.73173214199E+03  0.73173214199E+03  0.00000000000E+00 0. -1.
         24    2    1    2    0    0  0.18985917444E+01  0.73005918713E+02 -0.16645785399E+03  0.19838081507E+03  0.79456036992E+02 0.  0.
         23    2    1    2    0    0  0.55195784495E+02  0.32871739220E+02 -0.41740020504E+03  0.43217594724E+03  0.91793204206E+02 0.  0.
        -13    1    3    3    0    0 -0.35093618867E+02  0.14522757987E+02 -0.70413879738E+02  0.80003668944E+02  0.00000000000E+00 0.  1.
         14    1    3    3    0    0  0.36992210611E+02  0.58483160726E+02 -0.96043974255E+02  0.11837714613E+03  0.00000000000E+00 0. -1.
        -11    1    4    4    0    0 -0.25568592785E+02  0.75675123741E+01 -0.80211215445E+02  0.84527269349E+02  0.00000000000E+00 0. -1.
         11    1    4    4    0    0  0.80764377280E+02  0.25304226846E+02 -0.33718898960E+03  0.34764867789E+03  0.00000000000E+00 0.  1.
         21    1    1    2  503  502  0.31333551139E+02 -0.88511578999E+02  0.45112237825E+03  0.46079007281E+03  0.00000000000E+00 0.  1.
          1    1    1    2  501    0 -0.88427927378E+02 -0.17366078934E+02 -0.10272827426E+03  0.13665349381E+03  0.00000000000E+00 0. -1.
<scales pt_clust_5="13000.00000" pt_clust_6="13000.00000" pt_clust_7="13000.00000" pt_clust_8="13000.00000" pt_clust_9="93.89404" pt_clust_10="13000.00000"></scales>
<clustering>
<clus scale="   79.456">  5  6 -1 -1</clus>
<clus scale="   91.793">  7  8 -1 -1</clus>
<clus scale="   90.117">  7 10 -1 -1</clus>
<clus scale="   93.894">  1  9  2 -1</clus>
<clus scale="   89.212">  2  5  1 -1</clus>
<clus scale="   93.894">  1  5  2 -1</clus>
</clustering>
</event>
<event>
10    4  0.2759992E-005  0.2454395E+03  0.7546771E-02  0.1149183E+00
         21   -1    0    0  503  502  0.00000000000E+00  0.00000000000E+00  0.74327105894E+03  0.74327105894E+03  0.00000000000E+00 0.  1.
         -1   -1    0    0    0  501 -0.00000000000E+00 -0.00000000000E+00 -0.64812009183E+02  0.64812009183E+02  0.00000000000E+00 0.  1.
         24    2    1    2    0    0  0.76396869107E+02  0.32239182779E+02  0.62293561482E+02  0.12958764909E+03  0.77695717243E+02 0.  0.
         23    2    1    2    0    0  0.17188342519E+02  0.61487733589E+02  0.12443356996E+03  0.16671215528E+03  0.90736149826E+02 0.  0.
        -13    1    3    3    0    0  0.88867237412E+02  0.39844814396E+02  0.61014534695E+02  0.11492505629E+03  0.00000000000E+00 0.  1.
         14    1    3    3    0    0 -0.12470368305E+02 -0.76056316169E+01  0.12790267871E+01  0.14662592795E+02  0.00000000000E+00 0. -1.
        -11    1    4    4    0    0  0.14667712044E+02  0.40687948498E+02  0.13604720123E+03  0.14275675779E+03  0.00000000000E+00 0.  1.
         11    1    4    4    0    0  0.25206304746E+01  0.20799785091E+02 -0.11613631275E+02  0.23955397496E+02  0.00000000000E+00 0. -1.
         21    1    1    2  503  501 -0.33349462121E+02 -0.70897417376E+01  0.16313201667E+03  0.16665685082E+03  0.00000000000E+00 0. -1.
         -2    1    1    2    0  502 -0.60235749505E+02 -0.86637174630E+02  0.32859990165E+03  0.34512641294E+03  0.00000000000E+00 0.  1.
<scales pt_clust_5="13000.00000" pt_clust_6="13000.00000" pt_clust_7="13000.00000" pt_clust_8="13000.00000" pt_clust_9="34.09474" pt_clust_10="13000.00000"></scales>
<clustering>
<clus scale="   34.095">  1  9  2 -1</clus>
<clus scale="   77.696">  5  6 -1 -1</clus>
<clus scale="   90.736">  7  8 -1 -1</clus>
<clus scale="  109.651">  2  5  1 -1</clus>
<clus scale="   96.560">  7 10 -1 -1</clus>
<clus scale="   34.095">  1  5  2 -1</clus>
</clustering>
</event>
<event>
10    4  0.2759992E-005  0.3914976E+03  0.7546771E-02  0.1081645E+00
         21   -1    0    0  501  502  0.00000000000E+00  0.00000000000E+00  0.10622424601E+03  0.10622424601E+03  0.00000000000E+00 0. -1.
          2   -1    0    0  503    0 -0.00000000000E+00 -0.00000000000E+00 -0.82408565171E+03  0.82408565171E+03  0.00000000000E+00 0. -1.
         24    2    1    2    0    0  0.38335573639E+02  0.12397868854E+03 -0.30361883835E+03  0.33990096978E+03  0.80671797052E+02 0.  0.
         23    2    1    2    0    0  0.13609693883E+03  0.21276737014E+02 -0.17128612049E+03  0.23906191897E+03  0.94003136805E+02 0.  0.
        -13    1    3    3    0    0  0.66554329938E+01  0.71507384190E+02 -0.77660157465E+02  0.10577665546E+03  0.00000000000E+00 0.  1.
         14    1    3    3    0    0  0.31680140645E+02  0.52471304351E+02 -0.22595868088E+03  0.23412431432E+03  0.00000000000E+00 0. -1.
        -11    1    4    4    0    0  0.66460467604E+02  0.54934215556E+02 -0.66848152091E+02  0.10910287453E+03  0.00000000000E+00 0. -1.
         11    1    4    4    0    0  0.69636471230E+02 -0.33657478541E+02 -0.10443796840E+03  0.12995904444E+03  0.00000000000E+00 0.  1.
         21    1    1    2  503  502  0.13005598823E+02 -0.32619892364E+02 -0.34723902465E+02  0.49385750789E+02  0.00000000000E+00 0. -1.
          1    1    1    2  501    0 -0.18743811130E+03 -0.11263553319E+03 -0.20823254440E+03  0.30196125819E+03  0.00000000000E+00 0. -1.
<scales pt_clust_5="13000.00000" pt_clust_6="13000.00000" pt_clust_7="13000.00000" pt_clust_8="13000.00000" pt_clust_9="35.11699" pt_clust_10="13000.00000"></scales>
<clustering>
<clus scale="   35.117">  1  9  2 -1</clus>
<clus scale="   80.672">  5  6 -1 -1</clus>
<clus scale="   94.003">  7  8 -1 -1</clus>
<clus scale="  148.624">  2  5  1 -1</clus>
<clus scale="  171.519">  7 10 -1 -1</clus>
<clus scale="   35.117">  1  5  2 -1</clus>
</clustering>
</event>
<event>
10    4  0.2759992E-005  0.1547545E+03  0.7546771E-02  0.1205569E+00
          2   -1    0    0  503    0 -0.00000000000E+00  0.00000000000E+00  0.12091884985E+04  0.12091884985E+04  0.00000000000E+00 0. -1.
         21   -1    0    0  501  502  0.00000000000E+00 -0.00000000000E+00 -0.15043747367E+03  0.15043747367E+03  0.00000000000E+00 0. -1.
         24    2    1    2    0    0 -0.11650653446E+02 -0.90327348048E+02  0.57523572176E+03  0.58728853414E+03  0.75610311513E+02 0.  0.
         23    2    1    2    0    0 -0.14727340157E+02  0.55580933938E+02  0.35764980770E+03  0.37374445067E+03  0.92007579538E+02 0.  0.
        -13    1    3    3    0    0  0.20345721006E+02 -0.24448379012E+01  0.54594240091E+02  0.58313434530E+02  0.00000000000E+00 0.  1.
         14    1    3    3    0    0 -0.31996374452E+02 -0.87882510147E+02  0.52064148167E+03  0.52897509961E+03  0.00000000000E+00 0. -1.
        -13    1    4    4    0    0 -0.34321608715E+02  0.73285460922E+02  0.29132169440E+03  0.30235254462E+03  0.00000000000E+00 0. -1.
         13    1    4    4    0    0  0.19594268558E+02 -0.17704526983E+02  0.66328113299E+02  0.71391906053E+02  0.00000000000E+00 0.  1.
         21    1    1    2  503  502  0.32069622457E+02 -0.16161521619E+02 -0.13142994210E+03  0.13624788125E+03  0.00000000000E+00 0. -1.
          1    1    1    2  501    0 -0.56916288539E+01  0.50907935728E+02  0.25729543746E+03  0.26234510611E+03  0.00000000000E+00 0. -1.
<scales pt_clust_5="13000.00000" pt_clust_6="13000.00000" pt_clust_7="13000.00000" pt_clust_8="13000.00000" pt_clust_9="35.91177" pt_clust_10="13000.00000"></scales>
<clustering>
<clus scale="   35.912">  2  9  1 -1</clus>
<clus scale="   75.610">  5  6 -1 -1</clus>
<clus scale="   92.008">  7  8 -1 -1</clus>
<clus scale="   48.456">  7 10 -1 -1</clus>
<clus scale="  122.354">  1  5  2 -1</clus>
<clus scale="   35.912">  2  5  1 -1</clus>
</clustering>
</event>
<event>
10    4  0.2759992E-005  0.1300345E+03  0.7546771E-02  0.1249577E+00
          2   -1    0    0  502    0 -0.00000000000E+00  0.00000000000E+00  0.89045557360E+03  0.89045557360E+03  0.00000000000E+00 0. -1.
         21   -1    0    0  503  502  0.00000000000E+00 -0.00000000000E+00 -0.27849948686E+02  0.27849948686E+02  0.00000000000E+00 0.  1.
         24    2    1    2    0    0  0.43949768173E+01  0.10924184539E+02  0.47892172655E+03  0.48596367625E+03  0.81584439953E+02 0.  0.
         23    2    1    2    0    0  0.50938933612E+02 -0.30538426743E+02  0.32337496245E+03  0.34132592867E+03  0.91676893375E+02 0.  0.
        -11    1    3    3    0    0 -0.31976072812E+02 -0.14961743187E+02  0.15432651991E+03  0.15831297401E+03  0.00000000000E+00 0.  1.
         12    1    3    3    0    0  0.36371049629E+02  0.25885927726E+02  0.32459520664E+03  0.32765070224E+03  0.00000000000E+00 0. -1.
        -13    1    4    4    0    0  0.72367827603E+02 -0.17075148963E+01  0.19433363105E+03  0.20737786342E+03  0.00000000000E+00 0.  1.
         13    1    4    4    0    0 -0.21428893991E+02 -0.28830911847E+02  0.12904133140E+03  0.13394806525E+03  0.00000000000E+00 0. -1.
         21    1    1    2  503  501 -0.32592950763E+02  0.12210602358E+02  0.11488310939E+02  0.36652155975E+02  0.00000000000E+00 0.  1.
          1    1    1    2  501    0 -0.22740959666E+02  0.74036398458E+01  0.48820624979E+02  0.54363761394E+02  0.00000000000E+00 0. -1.
<scales pt_clust_5="13000.00000" pt_clust_6="13000.00000" pt_clust_7="13000.00000" pt_clust_8="13000.00000" pt_clust_9="34.80516" pt_clust_10="13000.00000"></scales>
<clustering>
<clus scale="   34.805">  2  9  1 -1</clus>
<clus scale="   81.584">  5  6 -1 -1</clus>
<clus scale="   82.792">  1  5  2 -1</clus>
<clus scale="   91.677">  7  8 -1 -1</clus>
<clus scale="   32.053">  7 10 -1 -1</clus>
<clus scale="   34.805">  2  5  1 -1</clus>
</clustering>
</event>
<event>
10    4  0.2759992E-005  0.3570886E+03  0.7546771E-02  0.1093732E+00
         21   -1    0    0  503  502  0.00000000000E+00  0.00000000000E+00  0.21973001537E+03  0.21973001537E+03  0.00000000000E+00 0.  1.
          2   -1    0    0  502    0 -0.00000000000E+00 -0.00000000000E+00 -0.34187803038E+03  0.34187803038E+03  0.00000000000E+00 0. -1.
         24    2    1    2    0    0  0.69603568050E+02  0.99819195158E+02 -0.96045140749E+01  0.14786548459E+03  0.83447147557E+02 0.  0.
         23    2    1    2    0    0 -0.41066990787E+02 -0.14968177524E+03  0.51001758602E+02  0.18677481423E+03  0.90512542108E+02 0.  0.
        -11    1    3    3    0    0  0.83084926532E+02  0.84776038151E+02  0.10751761085E+02  0.11918759175E+03  0.00000000000E+00 0.  1.
         12    1    3    3    0    0 -0.13481358482E+02  0.15043157008E+02 -0.20356275159E+02  0.28677892838E+02  0.00000000000E+00 0. -1.
        -11    1    4    4    0    0 -0.47312753048E+02 -0.11221489989E+03 -0.17220564106E+01  0.12179345564E+03  0.00000000000E+00 0.  1.
         11    1    4    4    0    0  0.62457622615E+01 -0.37466875347E+02  0.52723815012E+02  0.64981358588E+02  0.00000000000E+00 0. -1.
         21    1    1    2  503  501 -0.29321362255E+02 -0.30900892993E+01  0.20202088316E+02  0.35740947227E+02  0.00000000000E+00 0. -1.
          1    1    1    2  501    0  0.78478499246E+00  0.52952669378E+02 -0.18374734785E+03  0.19122679970E+03  0.00000000000E+00 0. -1.
<scales pt_clust_5="13000.00000" pt_clust_6="13000.00000" pt_clust_7="13000.00000" pt_clust_8="13000.00000" pt_clust_9="29.48374" pt_clust_10="13000.00000"></scales>
<clustering>
<clus scale="   29.484">  1  9  2 -1</clus>
<clus scale="   83.447">  5  6 -1 -1</clus>
<clus scale="   90.513">  7  8 -1 -1</clus>
<clus scale="   52.893">  7 10 -1 -1</clus>
<clus scale="  142.095">  2  5  1 -1</clus>
<clus scale="   29.484">  1  5  2 -1</clus>
</clustering>
</event>
<event>
10    4  0.2759992E-005  0.2294550E+03  0.7546771E-02  0.1157972E+00
          2   -1    0    0  502    0 -0.00000000000E+00  0.00000000000E+00  0.11892741885E+04  0.11892741885E+04  0.00000000000E+00 0. -1.
         21   -1    0    0  503  502  0.00000000000E+00 -0.00000000000E+00 -0.30208157199E+02  0.30208157199E+02  0.00000000000E+00 0. -1.
         24    2    1    2    0    0  0.75779856708E+02  0.70825299535E+01  0.44162566715E+03  0.45566324652E+03  0.82480394218E+02 0.  0.
         23    2    1    2    0    0  0.44790264459E+02  0.44911183557E+02  0.27930413791E+03  0.30024282198E+03  0.90065356840E+02 0.  0.
        -11    1    3    3    0    0 -0.91872167075E+01  0.23366554256E+02  0.80803923930E+02  0.84614862354E+02  0.00000000000E+00 0.  1.
         12    1    3    3    0    0  0.84967073415E+02 -0.16284024303E+02  0.36082174322E+03  0.37104838417E+03  0.00000000000E+00 0. -1.
        -13    1    4    4    0    0 -0.23502322200E+02  0.30997084871E+02  0.76966704792E+02  0.86238344522E+02  0.00000000000E+00 0. -1.
         13    1    4    4    0    0  0.68292586659E+02  0.13914098686E+02  0.20233743311E+03  0.21400447746E+03  0.00000000000E+00 0.  1.
         21    1    1    2  503  501 -0.15608626312E+02 -0.12823588061E+02  0.13227154285E+02  0.24146039770E+02  0.00000000000E+00 0.  1.
          1    1    1    2  501    0 -0.10496149486E+03 -0.39170125450E+02  0.42490907198E+03  0.43943023745E+03  0.00000000000E+00 0. -1.
<scales pt_clust_5="13000.00000" pt_clust_6="13000.00000" pt_clust_7="13000.00000" pt_clust_8="13000.00000" pt_clust_9="20.20083" pt_clust_10="13000.00000"></scales>
<clustering>
<clus scale="   20.201">  2  9  1 -1</clus>
<clus scale="   82.480">  5  6 -1 -1</clus>
<clus scale="   90.065">  7  8 -1 -1</clus>
<clus scale="  109.115">  1  5  2 -1</clus>
<clus scale="   76.175">  7 10 -1 -1</clus>
<clus scale="   20.201">  2  5  1 -1</clus>
</clustering>
</event>
<event>
10    4  0.2759992E-005  0.4866763E+03  0.7546771E-02  0.1046579E+00
         21   -1    0    0  503  502  0.00000000000E+00  0.00000000000E+00  0.38854454119E+03  0.38854454119E+03  0.00000000000E+00 0. -1.
          2   -1    0    0  502    0 -0.00000000000E+00 -0.00000000000E+00 -0.66392916072E+03  0.66392916072E+03  0.00000000000E+00 0. -1.
         24    2    1    2    0    0 -0.20715940629E+03  0.24331227366E+02  0.13595417835E+03  0.26229560099E+03  0.82513122888E+02 0.  0.
         23    2    1    2    0    0  0.26792645185E+03  0.24670053308E+02 -0.52450412796E+03  0.59678302174E+03  0.93017200944E+02 0.  0.
        -11    1    3    3    0    0 -0.18658053529E+02  0.19679714569E+02  0.45954384881E+02  0.53359344232E+02  0.00000000000E+00 0.  1.
         12    1    3    3    0    0 -0.18850135276E+03  0.46515127972E+01  0.89999793468E+02  0.20893625676E+03  0.00000000000E+00 0. -1.
        -13    1    4    4    0    0  0.48733199872E+02 -0.31201655507E+02 -0.12334864766E+03  0.13624741082E+03  0.00000000000E+00 0.  1.
         13    1    4    4    0    0  0.21919325197E+03  0.55871708816E+02 -0.40115548030E+03  0.46053561093E+03  0.00000000000E+00 0. -1.
         21    1    1    2  503  501  0.29688089974E+02 -0.20541844577E+02  0.88251585129E+02  0.95350366243E+02  0.00000000000E+00 0. -1.
          1    1    1    2  501    0 -0.90455135529E+02 -0.28459436097E+02  0.24913744949E+02  0.98044712933E+02  0.00000000000E+00 0. -1.
<scales pt_clust_5="13000.00000" pt_clust_6="13000.00000" pt_clust_7="13000.00000" pt_clust_8="13000.00000" pt_clust_9="36.10194" pt_clust_10="13000.00000"></scales>
<clustering>
<clus scale="   36.102">  1  9  2 -1</clus>
<clus scale="   82.513">  5  6 -1 -1</clus>
<clus scale="   93.017">  7  8 -1 -1</clus>
<clus scale="   90.430">  7 10 -1 -1</clus>
<clus scale="  204.884">  2  5  1 -1</clus>
<clus scale="   36.102">  1  5  2 -1</clus>
</clustering>
</event>
<event>
10    4  0.2759992E-005  0.3028251E+03  0.7546771E-02  0.1130451E+00
          2   -1    0    0  503    0 -0.00000000000E+00  0.00000000000E+00  0.64790912013E+03  0.64790912013E+03  0.00000000000E+00 0. -1.
         21   -1    0    0  501  502  0.00000000000E+00 -0.00000000000E+00 -0.22831886345E+03  0.22831886345E+03  0.00000000000E+00 0. -1.
         24    2    1    2    0    0  0.42016175970E+02  0.48463156206E+01  0.44346505025E+03  0.45300926532E+03  0.82263587659E+02 0.  0.
         23    2    1    2    0    0  0.12690122903E+03  0.43083601516E+02  0.33347932072E+02  0.16550920159E+03  0.91220022956E+02 0.  0.
        -13    1    3    3    0    0  0.39975125136E+02 -0.19004157854E+02  0.10837657988E+03  0.11706686854E+03  0.00000000000E+00 0.  1.
         14    1    3    3    0    0  0.20410508343E+01  0.23850473474E+02  0.33508847037E+03  0.33594239677E+03  0.00000000000E+00 0. -1.
        -13    1    4    4    0    0  0.13398425579E+03  0.18533806571E+02  0.35577969085E+02  0.13986091187E+03  0.00000000000E+00 0. -1.
         13    1    4    4    0    0 -0.70830267666E+01  0.24549794945E+02 -0.22300370126E+01  0.25648289711E+02  0.00000000000E+00 0.  1.
         21    1    1    2  503  502 -0.43863078914E+02  0.99010609190E+01 -0.10311134668E+03  0.11248977960E+03  0.00000000000E+00 0.  1.
          1    1    1    2  501    0 -0.12505432608E+03 -0.57830978056E+02  0.45888621050E+02  0.14521973708E+03  0.00000000000E+00 0. -1.
<scales pt_clust_5="13000.00000" pt_clust_6="13000.00000" pt_clust_7="13000.00000" pt_clust_8="13000.00000" pt_clust_9="44.96666" pt_clust_10="13000.00000"></scales>
<clustering>
<clus scale="   44.967">  2  9  1 -1</clus>
<clus scale="   82.264">  5  6 -1 -1</clus>
<clus scale="   91.220">  7  8 -1 -1</clus>
<clus scale="   91.745">  1  5  2 -1</clus>
<clus scale="  129.951">  7 10 -1 -1</clus>
<clus scale="   44.967">  2  5  1 -1</clus>
</clustering>
</event>
<event>
10    4  0.2759992E-005  0.3431991E+03  0.7546771E-02  0.1071839E+00
         21   -1    0    0  503  502  0.00000000000E+00  0.00000000000E+00  0.57675551913E+03  0.57675551913E+03  0.00000000000E+00 0. -1.
          2   -1    0    0  502    0 -0.00000000000E+00 -0.00000000000E+00 -0.25419454951E+03  0.25419454951E+03  0.00000000000E+00 0. -1.
         24    2    1    2    0    0  0.10508097980E+03 -0.24932497770E+03 -0.51773193171E+02  0.28627188259E+03  0.77885623871E+02 0.  0.
         23    2    1    2    0    0 -0.46674603291E+02  0.17406835545E+03  0.29192456478E+03  0.35639972222E+03  0.96553091713E+02 0.  0.
        -11    1    3    3    0    0  0.67001484711E+02 -0.65573705924E+02 -0.12918663638E+02  0.94636154467E+02  0.00000000000E+00 0.  1.
         12    1    3    3    0    0  0.38079495093E+02 -0.18375127178E+03 -0.38854529532E+02  0.19163572812E+03  0.00000000000E+00 0. -1.
        -13    1    4    4    0    0  0.28103609987E+02  0.24773669069E+02  0.55087450952E+02  0.66619627932E+02  0.00000000000E+00 0.  1.
         13    1    4    4    0    0 -0.74778213278E+02  0.14929468638E+03  0.23683711383E+03  0.28978009429E+03  0.00000000000E+00 0. -1.
         21    1    1    2  503  501  0.63691967492E+01 -0.28310648267E+02  0.56336846445E+02  0.63371127021E+02  0.00000000000E+00 0.  1.
          1    1    1    2  501    0 -0.64775573262E+02  0.10356727052E+03  0.26072751561E+02  0.12490733681E+03  0.00000000000E+00 0. -1.
<scales pt_clust_5="13000.00000" pt_clust_6="13000.00000" pt_clust_7="13000.00000" pt_clust_8="13000.00000" pt_clust_9="29.01826" pt_clust_10="13000.00000"></scales>
<clustering>
<clus scale="   29.018">  1  9  2 -1</clus>
<clus scale="   77.886">  5  6 -1 -1</clus>
<clus scale="   96.553">  7  8 -1 -1</clus>
<clus scale="  118.166">  7 10 -1 -1</clus>
<clus scale="  287.785">  2  5  1 -1</clus>
<clus scale="   29.018">  1  5  2 -1</clus>
</clustering>
</event>
<event>
10    4  0.2759992E-005  0.2818428E+03  0.7546771E-02  0.1121622E+00
          2   -1    0    0  503    0 -0.00000000000E+00  0.00000000000E+00  0.48299949741E+03  0.48299949741E+03  0.00000000000E+00 0. -1.
         21   -1    0    0  501  502  0.00000000000E+00 -0.00000000000E+00 -0.11528095645E+03  0.11528095645E+03  0.00000000000E+00 0. -1.
         24    2    1    2    0    0  0.11624523538E+03 -0.60146216925E+01  0.18946979916E+03  0.23649251921E+03  0.80503269668E+02 0.  0.
         23    2    1    2    0    0  0.50050292255E+02 -0.42578945307E+02  0.77903173439E+02  0.13851954690E+03  0.93812377131E+02 0.  0.
        -11    1    3    3    0    0  0.12803792741E+02 -0.31999075990E+02  0.54252658376E+02  0.64274636628E+02  0.00000000000E+00 0.  1.
         12    1    3    3    0    0  0.10344144264E+03  0.25984454297E+02  0.13521714078E+03  0.17221788258E+03  0.00000000000E+00 0. -1.
        -13    1    4    4    0    0  0.23418117864E+02 -0.70670854147E+02  0.40784295418E+02  0.84888966437E+02  0.00000000000E+00 0.  1.
         13    1    4    4    0    0  0.26632174391E+02  0.28091908840E+02  0.37118878021E+02  0.53630580461E+02  0.00000000000E+00 0. -1.
         21    1    1    2  503  502  0.93013144591E+00  0.30331504676E+02  0.80631484327E+01  0.31398721042E+02  0.00000000000E+00 0. -1.
          1    1    1    2  501    0 -0.16722565908E+03  0.18262062323E+02  0.92282419935E+02  0.19186966671E+03  0.00000000000E+00 0. -1.
<scales pt_clust_5="13000.00000" pt_clust_6="13000.00000" pt_clust_7="13000.00000" pt_clust_8="13000.00000" pt_clust_9="30.34576" pt_clust_10="13000.00000"></scales>
<clustering>
<clus scale="   30.346">  2  9  1 -1</clus>
<clus scale="   80.503">  5  6 -1 -1</clus>
<clus scale="   93.812">  7  8 -1 -1</clus>
<clus scale="  141.575">  1  5  2 -1</clus>
<clus scale="  105.824">  7 10 -1 -1</clus>
<clus scale="   30.346">  2  5  1 -1</clus>
</clustering>
</event>
<event>
10    4  0.2759992E-005  0.1739437E+03  0.7546771E-02  0.1204982E+00
          2   -1    0    0  503    0 -0.00000000000E+00  0.00000000000E+00  0.10823903010E+03  0.10823903010E+03  0.00000000000E+00 0. -1.
         21   -1    0    0  501  502  0.00000000000E+00 -0.00000000000E+00 -0.40783608062E+03  0.40783608062E+03  0.00000000000E+00 0. -1.
         24    2    1    2    0    0  0.49092610082E+02 -0.72998554359E+01 -0.20425692537E+03  0.22463675438E+03  0.79230092772E+02 0.  0.
         23    2    1    2    0    0 -0.28219449090E+02  0.60243647157E+02 -0.41377553224E+02  0.11997081004E+03  0.90858455966E+02 0.  0.
        -13    1    3    3    0    0  0.12658348149E+02 -0.32246911981E+02 -0.33237094413E+02  0.48008348807E+02  0.00000000000E+00 0.  1.
         14    1    3    3    0    0  0.36434261933E+02  0.24947056545E+02 -0.17101983096E+03  0.17662840557E+03  0.00000000000E+00 0. -1.
        -13    1    4    4    0    0 -0.54481563671E+02  0.59347927998E+02 -0.46756983769E+02  0.93148445338E+02  0.00000000000E+00 0. -1.
         13    1    4    4    0    0  0.26262114581E+02  0.89571915943E+00  0.53794305454E+01  0.26822364699E+02  0.00000000000E+00 0.  1.
         21    1    1    2  503  502 -0.45927489025E+02 -0.35578931518E+02 -0.10035375321E+03  0.11595719210E+03  0.00000000000E+00 0. -1.
          1    1    1    2  501    0  0.25054328033E+02 -0.17364860203E+02  0.46391181288E+02  0.55510354209E+02  0.00000000000E+00 0. -1.
<scales pt_clust_5="13000.00000" pt_clust_6="13000.00000" pt_clust_7="13000.00000" pt_clust_8="13000.00000" pt_clust_9="58.09643" pt_clust_10="13000.00000"></scales>
<clustering>
<clus scale="   58.096">  2  9  1 -1</clus>
<clus scale="   79.230">  5  6 -1 -1</clus>
<clus scale="   87.258">  1  5  2 -1</clus>
<clus scale="   90.858">  7  8 -1 -1</clus>
<clus scale="   49.020">  7 10 -1 -1</clus>
<clus scale="   58.096">  2  5  1 -1</clus>
</clustering>
</event>
<event>
10    4  0.2759992E-005  0.4791641E+03  0.7546771E-02  0.1049054E+00
         21   -1    0    0  503  502  0.00000000000E+00  0.00000000000E+00  0.36542273545E+03  0.36542273545E+03  0.00000000000E+00 0.  1.
          2   -1    0    0  502    0 -0.00000000000E+00 -0.00000000000E+00 -0.10768552908E+04  0.10768552908E+04  0.00000000000E+00 0. -1.
         24    2    1    2    0    0 -0.16422447693E+03 -0.38884978126E+01 -0.22343174605E+03  0.28923952999E+03  0.82176403711E+02 0.  0.
         23    2    1    2    0    0 -0.98373932137E+02  0.61010688628E+02 -0.88430965868E+02  0.17231422673E+03  0.92045762314E+02 0.  0.
        -13    1    3    3    0    0 -0.11739828867E+03 -0.17999465698E+02 -0.20510681327E+03  0.23701296125E+03  0.00000000000E+00 0.  1.
         14    1    3    3    0    0 -0.46826188254E+02  0.14110967886E+02 -0.18324932781E+02  0.52226568741E+02  0.00000000000E+00 0. -1.
        -11    1    4    4    0    0 -0.44643129700E+02  0.76222728168E+02 -0.72407760296E+02  0.11421819938E+03  0.00000000000E+00 0.  1.
         11    1    4    4    0    0 -0.53730802437E+02 -0.15212039540E+02 -0.16023205572E+02  0.58096027353E+02  0.00000000000E+00 0. -1.
         21    1    1    2  503  501 -0.49444456909E+02 -0.10813172540E+03  0.23968098699E+03  0.26755223767E+03  0.00000000000E+00 0.  1.
          1    1    1    2  501    0  0.31204286597E+03  0.51009534585E+02 -0.63925083038E+03  0.71317203182E+03  0.00000000000E+00 0. -1.
<scales pt_clust_5="13000.00000" pt_clust_6="13000.00000" pt_clust_7="13000.00000" pt_clust_8="13000.00000" pt_clust_9="118.90006" pt_clust_10="13000.00000"></scales>
<clustering>
<clus scale="   82.176">  5  6 -1 -1</clus>
<clus scale="   92.046">  7  8 -1 -1</clus>
<clus scale="  118.900">  1  9  2 -1</clus>
<clus scale="  199.972">  2  5  1 -1</clus>
<clus scale="  154.860">  7 10 -1 -1</clus>
<clus scale="  118.900">  1  5  2 -1</clus>
</clustering>
</event>
<event>
10    4  0.2759992E-005  0.3496546E+03  0.7546771E-02  0.1075596E+00
          2   -1    0    0  502    0 -0.00000000000E+00  0.00000000000E+00  0.83453300215E+03  0.83453300215E+03  0.00000000000E+00 0. -1.
         21   -1    0    0  503  502  0.00000000000E+00 -0.00000000000E+00 -0.16547594776E+03  0.16547594776E+03  0.00000000000E+00 0. -1.
         24    2    1    2    0    0 -0.19586646977E+03 -0.86670730660E+02  0.41850704413E+03  0.47879788991E+03  0.90685080679E+02 0.  0.
         23    2    1    2    0    0  0.12684790616E+02 -0.11199329724E+02  0.11309340448E+03  0.14760800187E+03  0.93336355083E+02 0.  0.
        -13    1    3    3    0    0 -0.33985917096E+02  0.18950292673E+02  0.60232454886E+02  0.71708470733E+02  0.00000000000E+00 0.  1.
         14    1    3    3    0    0 -0.16188055267E+03 -0.10562102333E+03  0.35827458925E+03  0.40708941917E+03  0.00000000000E+00 0. -1.
        -11    1    4    4    0    0  0.15308762482E+02 -0.51854782441E+02  0.62104682984E+02  0.82342384707E+02  0.00000000000E+00 0.  1.
         11    1    4    4    0    0 -0.26239718663E+01  0.40655452717E+02  0.50988721497E+02  0.65265617164E+02  0.00000000000E+00 0. -1.
         21    1    1    2  503  501 -0.65727179254E+02 -0.21280498784E+02  0.45517958428E+02  0.82733344309E+02  0.00000000000E+00 0. -1.
          1    1    1    2  501    0  0.24890885841E+03  0.11915055917E+03  0.91938647345E+02  0.29086971382E+03  0.00000000000E+00 0. -1.
<scales pt_clust_5="13000.00000" pt_clust_6="13000.00000" pt_clust_7="13000.00000" pt_clust_8="13000.00000" pt_clust_9="69.08634" pt_clust_10="13000.00000"></scales>
<clustering>
<clus scale="   69.086">  2  9  1 -1</clus>
<clus scale="   90.685">  5  6 -1 -1</clus>
<clus scale="   93.336">  7  8 -1 -1</clus>
<clus scale="  229.669">  7 10 -1 -1</clus>
<clus scale="  245.647">  1  5  2 -1</clus>
<clus scale="   69.086">  2  5  1 -1</clus>
</clustering>
</event>
<event>
10    4  0.2759992E-005  0.2863159E+03  0.7546771E-02  0.1142001E+00
         21   -1    0    0  501  502  0.00000000000E+00  0.00000000000E+00  0.86442159391E+02  0.86442159391E+02  0.00000000000E+00 0. -1.
          2   -1    0    0  503    0 -0.00000000000E+00 -0.00000000000E+00 -0.71110116491E+03  0.71110116491E+03  0.00000000000E+00 0. -1.
         24    2    1    2    0    0  0.29054196140E+02 -0.18272018117E+01  0.89026796689E+01  0.84477670675E+02  0.78801866460E+02 0.  0.
         23    2    1    2    0    0 -0.63035214934E+02 -0.80354845170E+02 -0.16979281574E+03  0.21845951076E+03  0.92003359174E+02 0.  0.
        -13    1    3    3    0    0 -0.19405463836E+02  0.22559142521E+02  0.30287047180E+01  0.29910867428E+02  0.00000000000E+00 0.  1.
         14    1    3    3    0    0  0.48459659976E+02 -0.24386344333E+02  0.58739749509E+01  0.54566803247E+02  0.00000000000E+00 0. -1.
        -11    1    4    4    0    0 -0.39380437891E+01  0.20045752173E+02 -0.18948541529E+02  0.27863732613E+02  0.00000000000E+00 0.  1.
         11    1    4    4    0    0 -0.59097171145E+02 -0.10040059734E+03 -0.15084427422E+03  0.19059577815E+03  0.00000000000E+00 0. -1.
         21    1    1    2  503  502 -0.27349115717E+02 -0.28663206916E+02 -0.64235980783E+02  0.75470622022E+02  0.00000000000E+00 0.  1.
          1    1    1    2  501    0  0.61330134511E+02  0.11084525390E+03 -0.39953288866E+03  0.41913552084E+03  0.00000000000E+00 0. -1.
<scales pt_clust_5="13000.00000" pt_clust_6="13000.00000" pt_clust_7="13000.00000" pt_clust_8="13000.00000" pt_clust_9="39.61761" pt_clust_10="13000.00000"></scales>
<clustering>
<clus scale="   39.618">  1  9  2 -1</clus>
<clus scale="   78.802">  5  6 -1 -1</clus>
<clus scale="   81.997">  2  5  1 -1</clus>
<clus scale="   92.003">  7  8 -1 -1</clus>
<clus scale="  116.649">  7 10 -1 -1</clus>
<clus scale="   39.618">  1  5  2 -1</clus>
</clustering>
</event>
<event>
10    4  0.2759992E-005  0.2863918E+03  0.7546771E-02  0.1107582E+00
         21   -1    0    0  503  502  0.00000000000E+00  0.00000000000E+00  0.11243540709E+03  0.11243540709E+03  0.00000000000E+00 0.  1.
          2   -1    0    0  502    0 -0.00000000000E+00 -0.00000000000E+00 -0.14399844319E+04  0.14399844319E+04  0.00000000000E+00 0. -1.
         24    2    1    2    0    0  0.13664761680E+03 -0.10278791834E+03 -0.94439545547E+03  0.96304193256E+03  0.79555390847E+02 0.  0.
         23    2    1    2    0    0 -0.85591936461E+02 -0.31895694074E+02 -0.11989937587E+03  0.17416153015E+03  0.87252870210E+02 0.  0.
        -13    1    3    3    0    0  0.47167742207E+02 -0.84725398491E+02 -0.45763230888E+03  0.46779324406E+03  0.00000000000E+00 0.  1.
         14    1    3    3    0    0  0.89479874595E+02 -0.18062519846E+02 -0.48676314659E+03  0.49524868850E+03  0.00000000000E+00 0. -1.
        -11    1    4    4    0    0 -0.95411921399E+01  0.25559332383E+02 -0.46294106862E+02  0.53735073736E+02  0.00000000000E+00 0.  1.
         11    1    4    4    0    0 -0.76050744321E+02 -0.57455026456E+02 -0.73605269012E+02  0.12042645641E+03  0.00000000000E+00 0. -1.
         21    1    1    2  503  501  0.25780443104E+02 -0.70363464257E+01  0.53497759828E+02  0.59800934142E+02  0.00000000000E+00 0.  1.
          1    1    1    2  501    0 -0.76836123445E+02  0.14171995884E+03 -0.31675195329E+03  0.35541544214E+03  0.00000000000E+00 0. -1.
<scales pt_clust_5="13000.00000" pt_clust_6="13000.00000" pt_clust_7="13000.00000" pt_clust_8="13000.00000" pt_clust_9="26.72342" pt_clust_10="13000.00000"></scales>
<clustering>
<clus scale="   26.723">  1  9  2 -1</clus>
<clus scale="   79.555">  5  6 -1 -1</clus>
<clus scale="   87.253">  7  8 -1 -1</clus>
<clus scale="  154.952">  7 10 -1 -1</clus>
<clus scale="  192.370">  2  5  1 -1</clus>
<clus scale="   26.723">  1  5  2 -1</clus>
</clustering>
</event>
<event>
10    4  0.2759992E-005  0.2281332E+03  0.7546771E-02  0.1155344E+00
          2   -1    0    0  502    0 -0.00000000000E+00  0.00000000000E+00  0.33711596390E+03  0.33711596390E+03  0.00000000000E+00 0. -1.
         21   -1    0    0  503  502  0.00000000000E+00 -0.00000000000E+00 -0.23793769845E+03  0.23793769845E+03  0.00000000000E+00 0. -1.
         24    2    1    2    0    0 -0.23153334458E+02  0.10262694803E+03  0.10613616318E+03  0.16837081221E+03  0.77559512077E+02 0.  0.
         23    2    1    2    0    0 -0.72103049639E+02  0.13785587531E+02  0.53951940324E+02  0.12898801417E+03  0.91313765360E+02 0.  0.
        -13    1    3    3    0    0 -0.43289960825E+02  0.24065492787E+02  0.43017077334E+02  0.65602115772E+02  0.00000000000E+00 0.  1.
         14    1    3    3    0    0  0.20136626367E+02  0.78561455239E+02  0.63119085843E+02  0.10276869644E+03  0.00000000000E+00 0. -1.
        -13    1    4    4    0    0  0.12518434305E+02  0.26081680996E+02  0.26354643106E+02  0.39134799019E+02  0.00000000000E+00 0.  1.
         13    1    4    4    0    0 -0.84621483944E+02 -0.12296093464E+02  0.27597297218E+02  0.89853215152E+02  0.00000000000E+00 0. -1.
         21    1    1    2  503  501  0.28770688744E+02 -0.43314003081E+02 -0.14113950682E+03  0.15041348270E+03  0.00000000000E+00 0. -1.
          1    1    1    2  501    0  0.66485695353E+02 -0.73098532476E+02  0.80229668774E+02  0.12728135326E+03  0.00000000000E+00 0. -1.
<scales pt_clust_5="13000.00000" pt_clust_6="13000.00000" pt_clust_7="13000.00000" pt_clust_8="13000.00000" pt_clust_9="51.99861" pt_clust_10="13000.00000"></scales>
<clustering>
<clus scale="   51.999">  2  9  1 -1</clus>
<clus scale="   77.560">  5  6 -1 -1</clus>
<clus scale="   91.314">  7  8 -1 -1</clus>
<clus scale="  111.951">  7 10 -1 -1</clus>
<clus scale="  118.070">  1  5  2 -1</clus>
<clus scale="   51.999">  2  5  1 -1</clus>
</clustering>
</event>
<event>
10    4  0.2759992E-005  0.1389908E+03  0.7546771E-02  0.1223540E+00
          2   -1    0    0  503    0 -0.00000000000E+00  0.00000000000E+00  0.12054711546E+03  0.12054711546E+03  0.00000000000E+00 0. -1.
         21   -1    0    0  501  502  0.00000000000E+00 -0.00000000000E+00 -0.37066449237E+03  0.37066449237E+03  0.00000000000E+00 0.  1.
         24    2    1    2    0    0 -0.18636727777E+02 -0.44012421130E+02 -0.13957986106E+03  0.16855675592E+03  0.81513321102E+02 0.  0.
         23    2    1    2    0    0  0.40457692155E+01  0.59137774385E+02  0.29690787254E+02  0.11296148166E+03  0.91460969186E+02 0.  0.
        -11    1    3    3    0    0  0.17278129845E+02 -0.25636964920E+02 -0.11961217445E+03  0.12354294807E+03  0.00000000000E+00 0.  1.
         12    1    3    3    0    0 -0.35914857622E+02 -0.18375456209E+02 -0.19967686617E+02  0.45013807857E+02  0.00000000000E+00 0. -1.
        -11    1    4    4    0    0  0.22103960256E+02  0.78911445194E+02  0.25719149569E+02  0.85889905670E+02  0.00000000000E+00 0. -1.
         11    1    4    4    0    0 -0.18058191040E+02 -0.19773670809E+02  0.39716376851E+01  0.27071575994E+02  0.00000000000E+00 0.  1.
         21    1    1    2  503  502 -0.23867991862E+01 -0.46912912958E+02 -0.16126379553E+03  0.16796585951E+03  0.00000000000E+00 0.  1.
          1    1    1    2  501    0  0.16977757748E+02  0.31787559703E+02  0.21035492425E+02  0.41727510729E+02  0.00000000000E+00 0. -1.
<scales pt_clust_5="13000.00000" pt_clust_6="13000.00000" pt_clust_7="13000.00000" pt_clust_8="13000.00000" pt_clust_9="46.97359" pt_clust_10="13000.00000"></scales>
<clustering>
<clus scale="   46.974">  2  9  1 -1</clus>
<clus scale="   81.513">  5  6 -1 -1</clus>
<clus scale="   91.461">  7  8 -1 -1</clus>
<clus scale="   33.918">  7 10 -1 -1</clus>
<clus scale="  115.398">  1  5  2 -1</clus>
<clus scale="   46.974">  2  5  1 -1</clus>
</clustering>
</event>
<event>
10    4  0.2759992E-005  0.3387560E+03  0.7546771E-02  0.1118864E+00
         21   -1    0    0  503  502  0.00000000000E+00  0.00000000000E+00  0.29594703890E+03  0.29594703890E+03  0.00000000000E+00 0. -1.
          2   -1    0    0  502    0 -0.00000000000E+00 -0.00000000000E+00 -0.75346827938E+03  0.75346827938E+03  0.00000000000E+00 0. -1.
         24    2    1    2    0    0  0.34869349124E+02 -0.32937819255E+01  0.58370750672E+01  0.87306158378E+02  0.79759471775E+02 0.  0.
         23    2    1    2    0    0 -0.15012161999E+03 -0.62144280009E+01 -0.56783438105E+03  0.59395297962E+03  0.88142712693E+02 0.  0.
        -13    1    3    3    0    0 -0.24855981239E+02  0.80475661998E+01 -0.89720830708E+00  0.26141692903E+02  0.00000000000E+00 0.  1.
         14    1    3    3    0    0  0.59725330363E+02 -0.11341348125E+02  0.67342833743E+01  0.61164465475E+02  0.00000000000E+00 0. -1.
        -13    1    4    4    0    0 -0.70112974892E+02 -0.30603690042E+02 -0.15646026616E+03  0.17416150545E+03  0.00000000000E+00 0.  1.
         13    1    4    4    0    0 -0.80008645101E+02  0.24389262041E+02 -0.41137411489E+03  0.41979147418E+03  0.00000000000E+00 0. -1.
         21    1    1    2  503  501 -0.28134400732E+01  0.29492880672E+02  0.20785740510E+03  0.20995820134E+03  0.00000000000E+00 0. -1.
          1    1    1    2  501    0  0.11806571094E+03 -0.19984670745E+02 -0.10338133960E+03  0.15819797894E+03  0.00000000000E+00 0. -1.
<scales pt_clust_5="13000.00000" pt_clust_6="13000.00000" pt_clust_7="13000.00000" pt_clust_8="13000.00000" pt_clust_9="29.62677" pt_clust_10="13000.00000"></scales>
<clustering>
<clus scale="   29.627">  1  9  2 -1</clus>
<clus scale="   79.759">  5  6 -1 -1</clus>
<clus scale="   87.354">  2  5  1 -1</clus>
<clus scale="   88.143">  7  8 -1 -1</clus>
<clus scale="  123.458">  7 10 -1 -1</clus>
<clus scale="   29.627">  1  5  2 -1</clus>
</clustering>
</event>
<event>
10    4  0.2759992E-005  0.2201323E+03  0.7546771E-02  0.1164799E+00
         21   -1    0    0  501  502  0.00000000000E+00  0.00000000000E+00  0.12506379864E+03  0.12506379864E+03  0.00000000000E+00 0. -1.
          2   -1    0    0  503    0 -0.00000000000E+00 -0.00000000000E+00 -0.67508500892E+03  0.67508500892E+03  0.00000000000E+00 0. -1.
         24    2    1    2    0    0  0.63908414405E+02  0.25103654933E+02 -0.49862715320E+03  0.50981660228E+03  0.81052150694E+02 0.  0.
         23    2    1    2    0    0 -0.62258240470E+02  0.61076976233E+02  0.19676429711E+02  0.12876127756E+03  0.92659695562E+02 0.  0.
        -13    1    3    3    0    0  0.53077542391E+02 -0.96985329994E+01 -0.15227210929E+03  0.16154900903E+03  0.00000000000E+00 0.  1.
         14    1    3    3    0    0  0.10830872014E+02  0.34802187932E+02 -0.34635504390E+03  0.34826759325E+03  0.00000000000E+00 0. -1.
        -13    1    4    4    0    0 -0.56340600252E+02  0.84551242677E+02  0.23413529058E+02  0.10426585835E+03  0.00000000000E+00 0. -1.
         13    1    4    4    0    0 -0.59176402179E+01 -0.23474266444E+02 -0.37370993469E+01  0.24495419212E+02  0.00000000000E+00 0.  1.
         21    1    1    2  503  502 -0.83041303293E+00 -0.49421184461E+02  0.27361371316E+02  0.56495908698E+02  0.00000000000E+00 0.  1.
          1    1    1    2  501    0 -0.81976090180E+00 -0.36759446706E+02 -0.98431858110E+02  0.10507501901E+03  0.00000000000E+00 0. -1.
<scales pt_clust_5="13000.00000" pt_clust_6="13000.00000" pt_clust_7="13000.00000" pt_clust_8="13000.00000" pt_clust_9="49.42816" pt_clust_10="13000.00000"></scales>
<clustering>
<clus scale="   49.428">  1  9  2 -1</clus>
<clus scale="   81.052">  5  6 -1 -1</clus>
<clus scale="   92.660">  7  8 -1 -1</clus>
<clus scale="   38.743">  7 10 -1 -1</clus>
<clus scale="  105.456">  2  5  1 -1</clus>
<clus scale="   49.428">  1  5  2 -1</clus>
</clustering>
</event>
<event>
10    4  0.2759992E-005  0.3165916E+03  0.7546771E-02  0.1125887E+00
          2   -1    0    0  503    0 -0.00000000000E+00  0.00000000000E+00  0.49167819354E+03  0.49167819354E+03  0.00000000000E+00 0. -1.
         21   -1    0    0  501  502  0.00000000000E+00 -0.00000000000E+00 -0.23022200218E+03  0.23022200218E+03  0.00000000000E+00 0. -1.
         24    2    1    2    0    0 -0.40952020939E+02 -0.86983374764E+01  0.11453282129E+03  0.14556737560E+03  0.79494431216E+02 0.  0.
         23    2    1    2    0    0  0.21726718514E+02  0.13259399876E+03  0.12356368139E+03  0.20485827353E+03  0.92982310521E+02 0.  0.
        -11    1    3    3    0    0 -0.44939415449E+02 -0.35385141915E+02  0.99262401762E+02  0.11456301206E+03  0.00000000000E+00 0.  1.
         12    1    3    3    0    0  0.39873945097E+01  0.26686804439E+02  0.15270419525E+02  0.31004363541E+02  0.00000000000E+00 0. -1.
        -13    1    4    4    0    0  0.33777958236E+02  0.84843283196E+01  0.10083473374E+02  0.36257560935E+02  0.00000000000E+00 0.  1.
         13    1    4    4    0    0 -0.12051239722E+02  0.12410967044E+03  0.11348020802E+03  0.16860071259E+03  0.00000000000E+00 0. -1.
         21    1    1    2  503  502 -0.63935033367E+02 -0.22110926449E+03  0.61015832072E+02  0.23811746492E+03  0.00000000000E+00 0. -1.
          1    1    1    2  501    0  0.83160335792E+02  0.97213603205E+02 -0.37656143390E+02  0.13335708167E+03  0.00000000000E+00 0. -1.
<scales pt_clust_5="13000.00000" pt_clust_6="13000.00000" pt_clust_7="13000.00000" pt_clust_8="13000.00000" pt_clust_9="238.81691" pt_clust_10="13000.00000"></scales>
<clustering>
<clus scale="   79.494">  5  6 -1 -1</clus>
<clus scale="   89.845">  1  5  2 -1</clus>
<clus scale="   92.982">  7  8 -1 -1</clus>
<clus scale="  123.579">  7 10 -1 -1</clus>
<clus scale="  238.817">  2  9  1 -1</clus>
<clus scale="  238.817">  2  5  1 -1</clus>
</clustering>
</event>
<event>
10    4  0.2759992E-005  0.5683399E+03  0.7546771E-02  0.1031748E+00
          2   -1    0    0  503    0 -0.00000000000E+00  0.00000000000E+00  0.31906173358E+03  0.31906173358E+03  0.00000000000E+00 0. -1.
         21   -1    0    0  501  502  0.00000000000E+00 -0.00000000000E+00 -0.67619394093E+03  0.67619394093E+03  0.00000000000E+00 0. -1.
         24    2    1    2    0    0  0.61715302682E+02  0.16489308791E+03 -0.27580374133E+03  0.33697714594E+03  0.80544299166E+02 0.  0.
         23    2    1    2    0    0  0.95094639415E+02  0.21357720385E+02  0.20873027593E+03  0.24971722824E+03  0.96390991906E+02 0.  0.
        -11    1    3    3    0    0  0.14724535338E+01  0.56212179110E+02 -0.35649775374E+02  0.66579904505E+02  0.00000000000E+00 0.  1.
         12    1    3    3    0    0  0.60242849148E+02  0.10868090880E+03 -0.24015396595E+03  0.27039724143E+03  0.00000000000E+00 0. -1.
        -13    1    4    4    0    0  0.44301281408E+02 -0.13833424653E+02  0.17129098168E+03  0.17746708871E+03  0.00000000000E+00 0. -1.
         13    1    4    4    0    0  0.50793358007E+02  0.35191145039E+02  0.37439294258E+02  0.72250139524E+02  0.00000000000E+00 0.  1.
         21    1    1    2  503  502 -0.14662626780E+02  0.15279146630E+02 -0.85695168869E+02  0.88272911549E+02  0.00000000000E+00 0.  1.
          1    1    1    2  501    0 -0.14214731532E+03 -0.20152995493E+03 -0.20436357308E+03  0.32028838878E+03  0.00000000000E+00 0. -1.
<scales pt_clust_5="13000.00000" pt_clust_6="13000.00000" pt_clust_7="13000.00000" pt_clust_8="13000.00000" pt_clust_9="21.17652" pt_clust_10="13000.00000"></scales>
<clustering>
<clus scale="   21.177">  2  9  1 -1</clus>
<clus scale="   80.544">  5  6 -1 -1</clus>
<clus scale="   96.391">  7  8 -1 -1</clus>
<clus scale="  198.208">  1  5  2 -1</clus>
<clus scale="  211.052">  7 10 -1 -1</clus>
<clus scale="   21.177">  2  5  1 -1</clus>
</clustering>
</event>
<event>
10    4  0.2759992E-005  0.1842209E+03  0.7546771E-02  0.1192821E+00
         21   -1    0    0  501  502  0.00000000000E+00  0.00000000000E+00  0.38379385002E+03  0.38379385002E+03  0.00000000000E+00 0.  1.
          4   -1    0    0  503    0 -0.00000000000E+00 -0.00000000000E+00 -0.10134646910E+03  0.10134646910E+03  0.00000000000E+00 0. -1.
         24    2    1    2    0    0 -0.17538157364E+02  0.51203446852E+02  0.24397681321E+03  0.26212539728E+03  0.79092721418E+02 0.  0.
         23    2    1    2    0    0  0.58997038601E+02 -0.14902311353E+02  0.57015259720E+02  0.12273725520E+03  0.90060893426E+02 0.  0.
        -11    1    3    3    0    0 -0.70079116505E+01  0.62175455613E+02  0.23748675145E+03  0.24559082886E+03  0.00000000000E+00 0.  1.
         12    1    3    3    0    0 -0.10530245714E+02 -0.10972008762E+02  0.64900617566E+01  0.16534568415E+02  0.00000000000E+00 0. -1.
        -13    1    4    4    0    0  0.34151241151E+02 -0.52142136509E+02  0.22716606669E+02  0.66341193013E+02  0.00000000000E+00 0.  1.
         13    1    4    4    0    0  0.24845797449E+02  0.37239825156E+02  0.34298653051E+02  0.56396062182E+02  0.00000000000E+00 0. -1.
         21    1    1    2  503  502 -0.18349998180E+02 -0.96772953871E+01  0.32310980112E+02  0.38397550898E+02  0.00000000000E+00 0.  1.
          3    1    1    2  501    0 -0.23108883057E+02 -0.26623840112E+02 -0.50855672114E+02  0.61880115745E+02  0.00000000000E+00 0. -1.
<scales pt_clust_5="13000.00000" pt_clust_6="13000.00000" pt_clust_7="13000.00000" pt_clust_8="13000.00000" pt_clust_9="20.74542" pt_clust_10="13000.00000"></scales>
<clustering>
<clus scale="   20.745">  1  9  2 -1</clus>
<clus scale="   79.093">  5  6 -1 -1</clus>
<clus scale="   90.061">  7  8 -1 -1</clus>
<clus scale="   35.560">  7 10 -1 -1</clus>
<clus scale="   95.707">  2  5  1 -1</clus>
<clus scale="   20.745">  1  5  2 -1</clus>
</clustering>
</event>
<event>
10    4  0.2759992E-005  0.2538093E+03  0.7546771E-02  0.1140030E+00
         21   -1    0    0  501  502  0.00000000000E+00  0.00000000000E+00  0.13012570267E+03  0.13012570267E+03  0.00000000000E+00 0.  1.
          2   -1    0    0  503    0 -0.00000000000E+00 -0.00000000000E+00 -0.10032088562E+04  0.10032088562E+04  0.00000000000E+00 0. -1.
         24    2    1    2    0    0  0.22775458482E+02  0.91600364597E+02 -0.84359107142E+03  0.85263602930E+03  0.80205700367E+02 0.  0.
         23    2    1    2    0    0 -0.33852735155E+02 -0.13626663089E+03  0.29148582549E+02  0.17131627280E+03  0.93728454004E+02 0.  0.
        -11    1    3    3    0    0  0.18624664707E+02  0.21055952604E+02 -0.64664366631E+02  0.70510365105E+02  0.00000000000E+00 0.  1.
         12    1    3    3    0    0  0.41507937745E+01  0.70544411993E+02 -0.77892670479E+03  0.78212566419E+03  0.00000000000E+00 0. -1.
        -13    1    4    4    0    0 -0.16843960344E+02 -0.14684387479E+03  0.31571089783E+02  0.15114091529E+03  0.00000000000E+00 0.  1.
         13    1    4    4    0    0 -0.17008774811E+02  0.10577243908E+02 -0.24225072339E+01  0.20175357507E+02  0.00000000000E+00 0. -1.
         21    1    1    2  503  502 -0.25098177552E+02 -0.97003397112E+01 -0.14556039952E+02  0.30592374965E+02  0.00000000000E+00 0. -1.
          1    1    1    2  501    0  0.36175454225E+02  0.54366606001E+02 -0.44084624669E+02  0.78789881766E+02  0.00000000000E+00 0. -1.
<scales pt_clust_5="13000.00000" pt_clust_6="13000.00000" pt_clust_7="13000.00000" pt_clust_8="13000.00000" pt_clust_9="26.90753" pt_clust_10="13000.00000"></scales>
<clustering>
<clus scale="   26.908">  1  9  2 -1</clus>
<clus scale="   80.206">  5  6 -1 -1</clus>
<clus scale="   93.728">  7  8 -1 -1</clus>
<clus scale="   62.218">  7 10 -1 -1</clus>
<clus scale="  123.431">  2  5  1 -1</clus>
<clus scale="   26.908">  1  5  2 -1</clus>
</clustering>
</event>
<event>
10    4  0.2759992E-005  0.1517048E+03  0.7546771E-02  0.1214514E+00
          2   -1    0    0  502    0 -0.00000000000E+00  0.00000000000E+00  0.11684344530E+03  0.11684344530E+03  0.00000000000E+00 0. -1.
         21   -1    0    0  503  502  0.00000000000E+00 -0.00000000000E+00 -0.81358271862E+03  0.81358271862E+03  0.00000000000E+00 0. -1.
         24    2    1    2    0    0 -0.32909316087E+02  0.36145241845E+02  0.16894956874E+02  0.11734341582E+03  0.10533060370E+03 0.  0.
         23    2    1    2    0    0  0.20287926467E+02  0.34423742301E+02 -0.57470310658E+02  0.11651088638E+03  0.93141591372E+02 0.  0.
        -13    1    3    3    0    0 -0.18056356450E+02  0.55196195579E+02  0.49813929588E+02  0.76511957207E+02  0.00000000000E+00 0.  1.
         14    1    3    3    0    0 -0.14852959637E+02 -0.19050953734E+02 -0.32918972713E+02  0.40831458615E+02  0.00000000000E+00 0. -1.
        -11    1    4    4    0    0 -0.12974029764E+02  0.37859687100E+02 -0.70138050529E+02  0.80752879129E+02  0.00000000000E+00 0.  1.
         11    1    4    4    0    0  0.33261956232E+02 -0.34359447988E+01  0.12667739871E+02  0.35758007250E+02  0.00000000000E+00 0. -1.
         21    1    1    2  503  501  0.71552360883E+02 -0.91372872143E+02 -0.60434606336E+03  0.61538841914E+03  0.00000000000E+00 0. -1.
          1    1    1    2  501    0 -0.58930971264E+02  0.20803887996E+02 -0.51817856178E+02  0.81183442578E+02  0.00000000000E+00 0. -1.
<scales pt_clust_5="13000.00000" pt_clust_6="13000.00000" pt_clust_7="13000.00000" pt_clust_8="13000.00000" pt_clust_9="116.05491" pt_clust_10="13000.00000"></scales>
<clustering>
<clus scale="   93.142">  7  8 -1 -1</clus>
<clus scale="   62.495">  7 10 -1 -1</clus>
<clus scale="  105.331">  5  6 -1 -1</clus>
<clus scale="  116.055">  2  9  1 -1</clus>
<clus scale="  107.299">  1  5  2 -1</clus>
<clus scale="  116.055">  2  5  1 -1</clus>
</clustering>
</event>
<event>
10    4  0.2759992E-005  0.5587992E+03  0.7546771E-02  0.1030392E+00
         21   -1    0    0  501  502  0.00000000000E+00  0.00000000000E+00  0.14668257086E+03  0.14668257086E+03  0.00000000000E+00 0.  1.
         -1   -1    0    0    0  501 -0.00000000000E+00 -0.00000000000E+00 -0.18573337276E+04  0.18573337276E+04  0.00000000000E+00 0.  1.
         24    2    1    2    0    0  0.19379411722E+03  0.52458147143E+02 -0.12203469456E+04  0.12394604680E+04  0.81899737030E+02 0.  0.
         23    2    1    2    0    0  0.32106047668E+02  0.14842051250E+03 -0.73824021048E+01  0.17757410684E+03  0.91753020285E+02 0.  0.
        -11    1    3    3    0    0  0.19343367959E+03  0.31987775305E+02 -0.11226185155E+04  0.11396105201E+04  0.00000000000E+00 0.  1.
         12    1    3    3    0    0  0.36043763011E+00  0.20470371838E+02 -0.97728430138E+02  0.99849947900E+02  0.00000000000E+00 0. -1.
        -13    1    4    4    0    0  0.25287409299E+02  0.10276542273E+03 -0.47887615137E+02  0.11616113318E+03  0.00000000000E+00 0. -1.
         13    1    4    4    0    0  0.68186383695E+01  0.45655089771E+02  0.40505213032E+02  0.61412973662E+02  0.00000000000E+00 0.  1.
         21    1    1    2  503  502  0.87706853887E+01 -0.18258649766E+02 -0.47883749964E+00  0.20261601586E+02  0.00000000000E+00 0.  1.
         -2    1    1    2    0  503 -0.23467085028E+03 -0.18262000987E+03 -0.48244297154E+03  0.56672012207E+03  0.00000000000E+00 0.  1.
<scales pt_clust_5="13000.00000" pt_clust_6="13000.00000" pt_clust_7="13000.00000" pt_clust_8="13000.00000" pt_clust_9="20.25594" pt_clust_10="13000.00000"></scales>
<clustering>
<clus scale="   20.256">  1  9  2 -1</clus>
<clus scale="   81.900">  5  6 -1 -1</clus>
<clus scale="   91.753">  7  8 -1 -1</clus>
<clus scale="  217.074">  2  5  1 -1</clus>
<clus scale="  159.118">  7 10 -1 -1</clus>
<clus scale="   20.256">  1  5  2 -1</clus>
</clustering>
</event>
<event>
10    4  0.2759992E-005  0.3170755E+03  0.7546771E-02  0.1123052E+00
          2   -1    0    0  503    0 -0.00000000000E+00  0.00000000000E+00  0.80142092766E+03  0.80142092766E+03  0.00000000000E+00 0. -1.
         21   -1    0    0  501  502  0.00000000000E+00 -0.00000000000E+00 -0.47634166972E+03  0.47634166972E+03  0.00000000000E+00 0. -1.
         24    2    1    2    0    0 -0.49044639538E+02 -0.51822846935E+01  0.21795695462E+03  0.23814229489E+03  0.82306049626E+02 0.  0.
         23    2    1    2    0    0  0.10889638748E+02 -0.11976308654E+03  0.30605039144E+03  0.34151836892E+03  0.92228916716E+02 0.  0.
        -13    1    3    3    0    0 -0.61691374733E+01  0.35985055473E+02  0.82398907589E+02  0.90125259758E+02  0.00000000000E+00 0.  1.
         14    1    3    3    0    0 -0.42875502064E+02 -0.41167340167E+02  0.13555804703E+03  0.14801703513E+03  0.00000000000E+00 0. -1.
        -13    1    4    4    0    0 -0.10910251017E+02 -0.10766069162E+03  0.29504561684E+03  0.31426386065E+03  0.00000000000E+00 0.  1.
         13    1    4    4    0    0  0.21799889765E+02 -0.12102394926E+02  0.11004774597E+02  0.27254508263E+02  0.00000000000E+00 0. -1.
         21    1    1    2  503  502  0.10290963954E+03 -0.11034533021E+02 -0.41890734552E+03  0.43150378788E+03  0.00000000000E+00 0. -1.
          1    1    1    2  501    0 -0.64754638747E+02  0.13597990426E+03  0.21997925739E+03  0.26659814569E+03  0.00000000000E+00 0. -1.
<scales pt_clust_5="13000.00000" pt_clust_6="13000.00000" pt_clust_7="13000.00000" pt_clust_8="13000.00000" pt_clust_9="102.97001" pt_clust_10="13000.00000"></scales>
<clustering>
<clus scale="   82.306">  5  6 -1 -1</clus>
<clus scale="   92.229">  7  8 -1 -1</clus>
<clus scale="   95.951">  1  5  2 -1</clus>
<clus scale="  102.970">  2  9  1 -1</clus>
<clus scale="  131.364">  7 10 -1 -1</clus>
<clus scale="  102.970">  2  5  1 -1</clus>
</clustering>
</event>
<event>
10    4  0.2759992E-005  0.4793861E+03  0.7546771E-02  0.1077316E+00
         21   -1    0    0  501  502  0.00000000000E+00  0.00000000000E+00  0.22836744664E+03  0.22836744664E+03  0.00000000000E+00 0. -1.
         -3   -1    0    0    0  501 -0.00000000000E+00 -0.00000000000E+00 -0.14224632440E+04  0.14224632440E+04  0.00000000000E+00 0.  1.
         24    2    1    2    0    0  0.14868557097E+02 -0.59178623506E+01  0.58911247609E+02  0.99789075871E+02  0.78938137066E+02 0.  0.
         23    2    1    2    0    0 -0.20333906329E+03 -0.14356546841E+03 -0.66563200961E+03  0.71634732687E+03  0.90164860799E+02 0.  0.
        -11    1    3    3    0    0 -0.26736296113E+02  0.11140624900E+02  0.46792485489E+01  0.29340048057E+02  0.00000000000E+00 0.  1.
         12    1    3    3    0    0  0.41604853210E+02 -0.17058487251E+02  0.54231999060E+02  0.70449027814E+02  0.00000000000E+00 0. -1.
        -13    1    4    4    0    0 -0.17313454053E+03 -0.13011210820E+03 -0.63629765862E+03  0.67214540108E+03  0.00000000000E+00 0.  1.
         13    1    4    4    0    0 -0.30204522756E+02 -0.13453360214E+02 -0.29334350986E+02  0.44201925792E+02  0.00000000000E+00 0. -1.
         21    1    1    2  503  502  0.44257638453E+02 -0.71874901372E+01  0.10294106811E+03  0.11228206482E+03  0.00000000000E+00 0. -1.
         -4    1    1    2    0  503  0.14421286774E+03  0.15667082090E+03 -0.69031610351E+03  0.72241222311E+03  0.00000000000E+00 0.  1.
<scales pt_clust_5="13000.00000" pt_clust_6="13000.00000" pt_clust_7="13000.00000" pt_clust_8="13000.00000" pt_clust_9="44.83747" pt_clust_10="13000.00000"></scales>
<clustering>
<clus scale="   44.837">  1  9  2 -1</clus>
<clus scale="   78.938">  5  6 -1 -1</clus>
<clus scale="   90.165">  7  8 -1 -1</clus>
<clus scale="   90.973">  2  5  1 -1</clus>
<clus scale="  229.185">  7 10 -1 -1</clus>
<clus scale="   44.837">  1  5  2 -1</clus>
</clustering>
</event>
<event>
10    4  0.3890489E-005  0.4491867E+03  0.7546771E-02  0.1062312E+00
          2   -1    0    0  503    0 -0.00000000000E+00  0.00000000000E+00  0.17423319579E+04  0.17423319579E+04  0.00000000000E+00 0. -1.
         21   -1    0    0  501  502  0.00000000000E+00 -0.00000000000E+00 -0.74680619184E+02  0.74680619184E+02  0.00000000000E+00 0. -1.
         24    2    1    2    0    0  0.16387536308E+03  0.47040779296E+02  0.23364549184E+03  0.29966372726E+03  0.78359198780E+02 0.  0.
         23    2    1    2    0    0  0.94232419229E+02 -0.46012845236E+02  0.15683112424E+03  0.20970332025E+03  0.91556268119E+02 0.  0.
        -11    1    3    3    0    0  0.23039111494E+02 -0.50369891643E+01  0.20791751777E+01  0.23674773234E+02  0.00000000000E+00 0.  1.
         12    1    3    3    0    0  0.14083625158E+03  0.52077768460E+02  0.23156631667E+03  0.27598895402E+03  0.00000000000E+00 0. -1.
        -11    1    4    4    0    0  0.34811127644E+02  0.27728731860E+02  0.49628037323E+02  0.66660627561E+02  0.00000000000E+00 0.  1.
         11    1    4    4    0    0  0.59421291584E+02 -0.73741577095E+02  0.10720308692E+03  0.14304269269E+03  0.00000000000E+00 0. -1.
         21    1    1    2  503  502 -0.41688601962E+02 -0.34680351129E+02  0.15279080548E+03  0.16212864191E+03  0.00000000000E+00 0. -1.
          1    1    1    2  501    0 -0.21641918034E+03  0.33652417069E+02  0.11243839172E+04  0.11455168877E+04  0.00000000000E+00 0. -1.
<scales pt_clust_5="13000.00000" pt_clust_6="13000.00000" pt_clust_7="13000.00000" pt_clust_8="13000.00000" pt_clust_9="54.22794" pt_clust_10="13000.00000"></scales>
<clustering>
<clus scale="   54.228">  2  9  1 -1</clus>
<clus scale="   78.359">  5  6 -1 -1</clus>
<clus scale="   91.556">  7  8 -1 -1</clus>
<clus scale="  166.977">  1  5  2 -1</clus>
<clus scale="  116.106">  7 10 -1 -1</clus>
<clus scale="   54.228">  2  5  1 -1</clus>
</clustering>
</event>
<event>
10    4  0.2759992E-005  0.2004908E+03  0.7546771E-02  0.1182238E+00
          2   -1    0    0  503    0 -0.00000000000E+00  0.00000000000E+00  0.20973238181E+03  0.20973238181E+03  0.00000000000E+00 0. -1.
         21   -1    0    0  501  502  0.00000000000E+00 -0.00000000000E+00 -0.32692179775E+03  0.32692179775E+03  0.00000000000E+00 0. -1.
         24    2    1    2    0    0 -0.52692184818E+02 -0.19082762222E+02  0.12366922514E+03  0.15365687088E+03  0.71942606055E+02 0.  0.
         23    2    1    2    0    0  0.79756618115E+02 -0.12931909037E+02 -0.18455659346E+02  0.12299812729E+03  0.90882207011E+02 0.  0.
        -13    1    3    3    0    0 -0.27259363217E+02  0.22981680033E+02  0.25391482551E+02  0.43771656197E+02  0.00000000000E+00 0.  1.
         14    1    3    3    0    0 -0.25432821601E+02 -0.42064442255E+02  0.98277742588E+02  0.10988521468E+03  0.00000000000E+00 0. -1.
        -11    1    4    4    0    0  0.99995232042E+02 -0.64935290818E+01 -0.12800911676E+02  0.10102017467E+03  0.00000000000E+00 0.  1.
         11    1    4    4    0    0 -0.20238613927E+02 -0.64383799551E+01 -0.56547476700E+01  0.21977952620E+02  0.00000000000E+00 0. -1.
         21    1    1    2  503  502 -0.62716275615E+02 -0.22053012816E+02 -0.83443767831E+02  0.10668893566E+03  0.00000000000E+00 0. -1.
          1    1    1    2  501    0  0.35651842318E+02  0.54067684075E+02 -0.13895921390E+03  0.15331024575E+03  0.00000000000E+00 0. -1.
<scales pt_clust_5="13000.00000" pt_clust_6="13000.00000" pt_clust_7="13000.00000" pt_clust_8="13000.00000" pt_clust_9="66.48057" pt_clust_10="13000.00000"></scales>
<clustering>
<clus scale="   66.481">  2  9  1 -1</clus>
<clus scale="   71.943">  5  6 -1 -1</clus>
<clus scale="   90.882">  7  8 -1 -1</clus>
<clus scale="   40.355">  7 10 -1 -1</clus>
<clus scale="   93.897">  1  5  2 -1</clus>
<clus scale="   66.481">  2  5  1 -1</clus>
</clustering>
</event>
<event>
10    4  0.2759992E-005  0.5787499E+03  0.7546771E-02  0.1050751E+00
          2   -1    0    0  503    0 -0.00000000000E+00  0.00000000000E+00  0.21040261756E+04  0.21040261756E+04  0.00000000000E+00 0. -1.
         21   -1    0    0  501  502  0.00000000000E+00 -0.00000000000E+00 -0.10547243026E+03  0.10547243026E+03  0.00000000000E+00 0. -1.
         24    2    1    2    0    0 -0.18230922333E+02  0.70094339236E+02  0.35056955733E+03  0.36686505650E+03  0.80283075609E+02 0.  0.
         23    2    1    2    0    0  0.15310188589E+03 -0.30329380884E+03  0.66162736691E+03  0.75006167767E+03  0.97027963621E+02 0.  0.
        -13    1    3    3    0    0 -0.10870991368E+02 -0.17097912817E+02  0.78373238769E+02  0.80949871100E+02  0.00000000000E+00 0.  1.
         14    1    3    3    0    0 -0.73599309652E+01  0.87192252052E+02  0.27219631856E+03  0.28591518540E+03  0.00000000000E+00 0. -1.
        -11    1    4    4    0    0  0.62043215834E+02 -0.46190542867E+02  0.19167353915E+03  0.20669221682E+03  0.00000000000E+00 0.  1.
         11    1    4    4    0    0  0.91058670057E+02 -0.25710326598E+03  0.46995382776E+03  0.54336946086E+03  0.00000000000E+00 0. -1.
         21    1    1    2  503  502  0.27392337907E+02  0.12864714198E+03  0.56949159677E+02  0.14333050653E+03  0.00000000000E+00 0. -1.
          1    1    1    2  501    0 -0.16226330147E+03  0.10455232763E+03  0.92940766141E+03  0.94924136515E+03  0.00000000000E+00 0. -1.
<scales pt_clust_5="13000.00000" pt_clust_6="13000.00000" pt_clust_7="13000.00000" pt_clust_8="13000.00000" pt_clust_9="135.25964" pt_clust_10="13000.00000"></scales>
<clustering>
<clus scale="   80.283">  5  6 -1 -1</clus>
<clus scale="   97.028">  7  8 -1 -1</clus>
<clus scale="  108.125">  1  5  2 -1</clus>
<clus scale="  135.260">  2  9  1 -1</clus>
<clus scale="  246.734">  7 10 -1 -1</clus>
<clus scale="  135.260">  2  5  1 -1</clus>
</clustering>
</event>
<event>
10    4  0.2759992E-005  0.8603615E+03  0.7546771E-02  0.1015626E+00
         21   -1    0    0  503  502  0.00000000000E+00  0.00000000000E+00  0.29358019722E+03  0.29358019722E+03  0.00000000000E+00 0.  1.
         -3   -1    0    0    0  501 -0.00000000000E+00 -0.00000000000E+00 -0.22499623038E+04  0.22499623038E+04  0.00000000000E+00 0.  1.
         24    2    1    2    0    0 -0.91455193514E+01 -0.51745042046E+02 -0.27689761963E+03  0.29283740085E+03  0.79500073472E+02 0.  0.
         23    2    1    2    0    0 -0.14223451023E+03 -0.40674012116E+03 -0.98574762964E+03  0.10796925348E+04  0.91484415417E+02 0.  0.
        -11    1    3    3    0    0  0.33329571199E+02 -0.36848083613E+02 -0.16157455397E+03  0.16904135019E+03  0.00000000000E+00 0.  1.
         12    1    3    3    0    0 -0.42475090551E+02 -0.14896958433E+02 -0.11532306566E+03  0.12379605066E+03  0.00000000000E+00 0. -1.
        -11    1    4    4    0    0 -0.78085955199E+02 -0.20950683047E+03 -0.62207475853E+03  0.66103519847E+03  0.00000000000E+00 0.  1.
         11    1    4    4    0    0 -0.64148555027E+02 -0.19723329070E+03 -0.36367287111E+03  0.41865733631E+03  0.00000000000E+00 0. -1.
         21    1    1    2  503  501  0.33854531364E+02  0.56768006552E+02  0.18566766365E+03  0.19708175255E+03  0.00000000000E+00 0.  1.
         -4    1    1    2    0  502  0.11752549821E+03  0.40171715666E+03 -0.87940452094E+03  0.97393081281E+03  0.00000000000E+00 0.  1.
<scales pt_clust_5="13000.00000" pt_clust_6="13000.00000" pt_clust_7="13000.00000" pt_clust_8="13000.00000" pt_clust_9="66.09641" pt_clust_10="13000.00000"></scales>
<clustering>
<clus scale="   66.096">  1  9  2 -1</clus>
<clus scale="   79.500">  5  6 -1 -1</clus>
<clus scale="   91.484">  7  8 -1 -1</clus>
<clus scale="   92.745">  2  5  1 -1</clus>
<clus scale="  422.772">  7 10 -1 -1</clus>
<clus scale="   66.096">  1  5  2 -1</clus>
</clustering>
</event>
<event>
10    4  0.2759992E-005  0.1919080E+03  0.7546771E-02  0.1190872E+00
          2   -1    0    0  502    0 -0.00000000000E+00  0.00000000000E+00  0.60157695508E+03  0.60157695508E+03  0.00000000000E+00 0. -1.
         21   -1    0    0  503  502  0.00000000000E+00 -0.00000000000E+00 -0.71512665699E+02  0.71512665699E+02  0.00000000000E+00 0.  1.
         24    2    1    2    0    0  0.29762510991E+02  0.52892746189E+01  0.24273502199E+03  0.25748362078E+03  0.80397391662E+02 0.  0.
         23    2    1    2    0    0 -0.66940511355E+02 -0.25901790946E+02  0.94969212762E+02  0.14949347864E+03  0.90427948933E+02 0.  0.
        -11    1    3    3    0    0  0.40030287999E+02  0.35479888827E+02  0.13811048818E+03  0.14810723620E+03  0.00000000000E+00 0.  1.
         12    1    3    3    0    0 -0.10267777008E+02 -0.30190614208E+02  0.10462453380E+03  0.10937638458E+03  0.00000000000E+00 0. -1.
        -11    1    4    4    0    0 -0.12138030771E+02 -0.18596670694E+02  0.91435252322E+02  0.94093428671E+02  0.00000000000E+00 0.  1.
         11    1    4    4    0    0 -0.54802480584E+02 -0.73051202521E+01  0.35339604399E+01  0.55400049968E+02  0.00000000000E+00 0. -1.
         21    1    1    2  503  501  0.34503308117E+02 -0.22455164041E+02 -0.22532784884E+02  0.46930150839E+02  0.00000000000E+00 0.  1.
          1    1    1    2  501    0  0.26746922471E+01  0.43067680368E+02  0.21489283952E+03  0.21918237052E+03  0.00000000000E+00 0. -1.
<scales pt_clust_5="13000.00000" pt_clust_6="13000.00000" pt_clust_7="13000.00000" pt_clust_8="13000.00000" pt_clust_9="41.16689" pt_clust_10="13000.00000"></scales>
<clustering>
<clus scale="   41.167">  2  9  1 -1</clus>
<clus scale="   80.397">  5  6 -1 -1</clus>
<clus scale="   88.373">  1  5  2 -1</clus>
<clus scale="   90.428">  7  8 -1 -1</clus>
<clus scale="   50.515">  7 10 -1 -1</clus>
<clus scale="   41.167">  2  5  1 -1</clus>
</clustering>
</event>
<event>
10    4  0.2759992E-005  0.4793873E+03  0.7546771E-02  0.1028203E+00
         21   -1    0    0  503  502  0.00000000000E+00  0.00000000000E+00  0.13282549653E+03  0.13282549653E+03  0.00000000000E+00 0.  1.
          2   -1    0    0  502    0 -0.00000000000E+00 -0.00000000000E+00 -0.18728139101E+04  0.18728139101E+04  0.00000000000E+00 0. -1.
         24    2    1    2    0    0  0.86066923027E+02 -0.37977756959E+03 -0.81292221890E+03  0.90497028061E+03  0.80561511899E+02 0.  0.
         23    2    1    2    0    0 -0.81340721632E+02 -0.17547663295E+02 -0.16172858769E+03  0.20402999976E+03  0.92454698336E+02 0.  0.
        -11    1    3    3    0    0  0.28542087496E+02 -0.22693257826E+03 -0.39758916146E+03  0.45868310100E+03  0.00000000000E+00 0.  1.
         12    1    3    3    0    0  0.57524835532E+02 -0.15284499133E+03 -0.41533305745E+03  0.44628717961E+03  0.00000000000E+00 0. -1.
        -13    1    4    4    0    0 -0.58142550466E+02 -0.37844724122E+02 -0.15852442407E+03  0.17303979989E+03  0.00000000000E+00 0.  1.
         13    1    4    4    0    0 -0.23198171166E+02  0.20297060826E+02 -0.32041636168E+01  0.30990199872E+02  0.00000000000E+00 0. -1.
         21    1    1    2  503  501  0.39461579157E+02  0.81320831650E+02 -0.30300148296E+02  0.95333062872E+02  0.00000000000E+00 0.  1.
          1    1    1    2  501    0 -0.44187780553E+02  0.31600440124E+03 -0.73503745864E+03  0.80130606334E+03  0.00000000000E+00 0. -1.
<scales pt_clust_5="13000.00000" pt_clust_6="13000.00000" pt_clust_7="13000.00000" pt_clust_8="13000.00000" pt_clust_9="90.38968" pt_clust_10="13000.00000"></scales>
<clustering>
<clus scale="   80.562">  5  6 -1 -1</clus>
<clus scale="   90.390">  1  9  2 -1</clus>
<clus scale="   92.455">  7  8 -1 -1</clus>
<clus scale="  344.279">  7 10 -1 -1</clus>
<clus scale="  366.913">  2  5  1 -1</clus>
<clus scale="   90.390">  1  5  2 -1</clus>
</clustering>
</event>
<event>
10    4  0.2759992E-005  0.3998384E+03  0.7546771E-02  0.1066649E+00
         21   -1    0    0  501  502  0.00000000000E+00  0.00000000000E+00  0.92280159259E+03  0.92280159259E+03  0.00000000000E+00 0.  1.
          2   -1    0    0  503    0 -0.00000000000E+00 -0.00000000000E+00 -0.20602956711E+03  0.20602956711E+03  0.00000000000E+00 0. -1.
         24    2    1    2    0    0 -0.17138864525E+03  0.82172213869E+02  0.57231469537E+03  0.60889927265E+03  0.84189507980E+02 0.  0.
         23    2    1    2    0    0 -0.75964512651E+02 -0.17793467944E+02 -0.44790594306E+02  0.12829349988E+03  0.91464802459E+02 0.  0.
        -13    1    3    3    0    0 -0.72786552328E+02  0.79984777472E+02  0.26782603641E+03  0.28883599604E+03  0.00000000000E+00 0.  1.
         14    1    3    3    0    0 -0.98602092924E+02  0.21874363972E+01  0.30448865896E+03  0.32006327662E+03  0.00000000000E+00 0. -1.
        -13    1    4    4    0    0 -0.63901729561E+02 -0.44500344177E+02 -0.38752088300E+01  0.77966203680E+02  0.00000000000E+00 0. -1.
         13    1    4    4    0    0 -0.12062783090E+02  0.26706876232E+02 -0.40915385476E+02  0.50327296198E+02  0.00000000000E+00 0.  1.
         21    1    1    2  503  502 -0.12175766543E+02 -0.21001645852E+02  0.11598818209E+03  0.11850137891E+03  0.00000000000E+00 0. -1.
          1    1    1    2  501    0  0.25952892445E+03 -0.43377100073E+02  0.73259742330E+02  0.27313700826E+03  0.00000000000E+00 0. -1.
<scales pt_clust_5="13000.00000" pt_clust_6="13000.00000" pt_clust_7="13000.00000" pt_clust_8="13000.00000" pt_clust_9="24.27588" pt_clust_10="13000.00000"></scales>
<clustering>
<clus scale="   24.276">  1  9  2 -1</clus>
<clus scale="   84.190">  5  6 -1 -1</clus>
<clus scale="   91.465">  7  8 -1 -1</clus>
<clus scale="  209.906">  2  5  1 -1</clus>
<clus scale="  161.831">  7 10 -1 -1</clus>
<clus scale="   24.276">  1  5  2 -1</clus>
</clustering>
</event>
<event>
10    4  0.2759992E-005  0.4256761E+03  0.7546771E-02  0.1087893E+00
          2   -1    0    0  502    0 -0.00000000000E+00  0.00000000000E+00  0.13812910350E+04  0.13812910350E+04  0.00000000000E+00 0. -1.
         21   -1    0    0  503  502  0.00000000000E+00 -0.00000000000E+00 -0.73027172728E+02  0.73027172728E+02  0.00000000000E+00 0. -1.
         24    2    1    2    0    0 -0.61909183913E+02 -0.44142536865E+01  0.52589121833E+02  0.11453754742E+03  0.80628787320E+02 0.  0.
         23    2    1    2    0    0 -0.12898289630E+03  0.40112299783E+02  0.21822518159E+03  0.27258498361E+03  0.91840945535E+02 0.  0.
        -13    1    3    3    0    0 -0.50951059457E+01  0.33045488635E+02  0.21240825978E+02  0.39612335351E+02  0.00000000000E+00 0.  1.
         14    1    3    3    0    0 -0.56814077968E+02 -0.37459742322E+02  0.31348295855E+02  0.74925212066E+02  0.00000000000E+00 0. -1.
        -11    1    4    4    0    0 -0.92878102013E+01  0.21353442891E+02  0.34925118349E+00  0.23288514723E+02  0.00000000000E+00 0. -1.
         11    1    4    4    0    0 -0.11969508610E+03  0.18758856893E+02  0.21787593040E+03  0.24929646888E+03  0.00000000000E+00 0.  1.
         21    1    1    2  503  501  0.14666230676E+02  0.23241430872E+02  0.22909132458E+02  0.35778356324E+02  0.00000000000E+00 0. -1.
          1    1    1    2  501    0  0.17622584954E+03 -0.58939476969E+02  0.10145404264E+04  0.10314173203E+04  0.00000000000E+00 0. -1.
<scales pt_clust_5="13000.00000" pt_clust_6="13000.00000" pt_clust_7="13000.00000" pt_clust_8="13000.00000" pt_clust_9="27.48204" pt_clust_10="13000.00000"></scales>
<clustering>
<clus scale="   27.482">  2  9  1 -1</clus>
<clus scale="   80.629">  5  6 -1 -1</clus>
<clus scale="   91.841">  7  8 -1 -1</clus>
<clus scale="   97.860">  1  5  2 -1</clus>
<clus scale="  143.186">  7 10 -1 -1</clus>
<clus scale="   27.482">  2  5  1 -1</clus>
</clustering>
</event>
<event>
10    4  0.2759992E-005  0.4014462E+03  0.7546771E-02  0.1059455E+00
          2   -1    0    0  503    0 -0.00000000000E+00  0.00000000000E+00  0.12696288291E+04  0.12696288291E+04  0.00000000000E+00 0. -1.
         21   -1    0    0  501  502  0.00000000000E+00 -0.00000000000E+00 -0.13550697216E+03  0.13550697216E+03  0.00000000000E+00 0. -1.
         24    2    1    2    0    0 -0.23389142935E+03 -0.10599770571E+03  0.24119660544E+03  0.36113472167E+03  0.79383690895E+02 0.  0.
         23    2    1    2    0    0  0.28791938133E+03  0.59176067064E+02  0.71769244775E+03  0.78101475501E+03  0.92207488487E+02 0.  0.
        -13    1    3    3    0    0 -0.11545308706E+03 -0.71051978164E+02  0.17391419625E+03  0.22050838209E+03  0.00000000000E+00 0.  1.
         14    1    3    3    0    0 -0.11843834229E+03 -0.34945727550E+02  0.67282409187E+02  0.14062633958E+03  0.00000000000E+00 0. -1.
        -11    1    4    4    0    0  0.22753797534E+03  0.51738143204E+02  0.64675316729E+03  0.68756092463E+03  0.00000000000E+00 0. -1.
         11    1    4    4    0    0  0.60381405988E+02  0.74379238595E+01  0.70939280464E+02  0.93453830383E+02  0.00000000000E+00 0.  1.
         21    1    1    2  503  502  0.24986461912E+02  0.10592611624E+02 -0.29789577668E+02  0.40298208862E+02  0.00000000000E+00 0. -1.
          1    1    1    2  501    0 -0.79014413891E+02  0.36229027026E+02  0.20502238145E+03  0.22268811575E+03  0.00000000000E+00 0. -1.
<scales pt_clust_5="13000.00000" pt_clust_6="13000.00000" pt_clust_7="13000.00000" pt_clust_8="13000.00000" pt_clust_9="27.13903" pt_clust_10="13000.00000"></scales>
<clustering>
<clus scale="   27.139">  2  9  1 -1</clus>
<clus scale="   79.384">  5  6 -1 -1</clus>
<clus scale="   92.207">  7  8 -1 -1</clus>
<clus scale="   85.334">  7 10 -1 -1</clus>
<clus scale="  253.353">  1  5  2 -1</clus>
<clus scale="   27.139">  2  5  1 -1</clus>
</clustering>
</event>
<event>
10    4  0.2759992E-005  0.3062081E+03  0.7546771E-02  0.1122554E+00
          2   -1    0    0  503    0 -0.00000000000E+00  0.00000000000E+00  0.20096304081E+03  0.20096304081E+03  0.00000000000E+00 0. -1.
         21   -1    0    0  501  502  0.00000000000E+00 -0.00000000000E+00 -0.68127955736E+03  0.68127955736E+03  0.00000000000E+00 0. -1.
         24    2    1    2    0    0 -0.64081798578E+02 -0.30890077265E+02  0.39027414721E+02  0.11470454428E+03  0.81076011222E+02 0.  0.
         23    2    1    2    0    0 -0.24688298793E+02 -0.41334403092E+02 -0.10551848831E+03  0.14866222937E+03  0.92996032658E+02 0.  0.
        -11    1    3    3    0    0 -0.40701215556E+02  0.13071636952E+02  0.47819647205E+02  0.64141837354E+02  0.00000000000E+00 0.  1.
         12    1    3    3    0    0 -0.23380583023E+02 -0.43961714218E+02 -0.87922324833E+01  0.50562706924E+02  0.00000000000E+00 0. -1.
        -13    1    4    4    0    0  0.33956346647E+02 -0.53275439701E+01 -0.23696226275E+02  0.41748381311E+02  0.00000000000E+00 0.  1.
         13    1    4    4    0    0 -0.58644645440E+02 -0.36006859122E+02 -0.81822262034E+02  0.10691384806E+03  0.00000000000E+00 0. -1.
         21    1    1    2  503  502  0.50851456973E+01  0.22773604144E+03 -0.37389270055E+03  0.43781881504E+03  0.00000000000E+00 0. -1.
          1    1    1    2  501    0  0.83684951674E+02 -0.15551156108E+03 -0.39932742411E+02  0.18105700948E+03  0.00000000000E+00 0. -1.
<scales pt_clust_5="13000.00000" pt_clust_6="13000.00000" pt_clust_7="13000.00000" pt_clust_8="13000.00000" pt_clust_9="220.07634" pt_clust_10="13000.00000"></scales>
<clustering>
<clus scale="   81.076">  5  6 -1 -1</clus>
<clus scale="   92.996">  7  8 -1 -1</clus>
<clus scale="  107.861">  1  5  2 -1</clus>
<clus scale="  179.409">  7 10 -1 -1</clus>
<clus scale="  220.076">  2  9  1 -1</clus>
<clus scale="  220.076">  2  5  1 -1</clus>
</clustering>
</event>
<event>
10    4  0.2759992E-005  0.2154578E+03  0.7546771E-02  0.1152170E+00
         21   -1    0    0  501  502  0.00000000000E+00  0.00000000000E+00  0.53075164517E+03  0.53075164517E+03  0.00000000000E+00 0.  1.
         -3   -1    0    0    0  501 -0.00000000000E+00 -0.00000000000E+00 -0.99340585275E+02  0.99340585275E+02  0.00000000000E+00 0.  1.
         24    2    1    2    0    0 -0.12848047438E+03 -0.55857967069E+02  0.22717832369E+03  0.27915768124E+03  0.81802661665E+02 0.  0.
         23    2    1    2    0    0  0.41741666736E+01  0.41687512527E+02  0.66770054179E+02  0.11938040435E+03  0.89655833273E+02 0.  0.
        -13    1    3    3    0    0 -0.34879582771E+02 -0.54039865472E+02  0.62240327270E+02  0.89502797125E+02  0.00000000000E+00 0.  1.
         14    1    3    3    0    0 -0.93600891610E+02 -0.18181015974E+01  0.16493799642E+03  0.18965488411E+03  0.00000000000E+00 0. -1.
        -11    1    4    4    0    0 -0.39356606384E+02  0.34172987076E+02  0.22279655150E+02  0.56684376554E+02  0.00000000000E+00 0.  1.
         11    1    4    4    0    0  0.43530773058E+02  0.75145254512E+01  0.44490399029E+02  0.62696027797E+02  0.00000000000E+00 0. -1.
         21    1    1    2  503  502  0.18859893780E+02  0.95538584925E+01  0.12325466229E+03  0.12505472235E+03  0.00000000000E+00 0. -1.
         -4    1    1    2    0  503  0.10544641393E+03  0.46165960497E+01  0.14208019729E+02  0.10649942251E+03  0.00000000000E+00 0.  1.
<scales pt_clust_5="13000.00000" pt_clust_6="13000.00000" pt_clust_7="13000.00000" pt_clust_8="13000.00000" pt_clust_9="21.14171" pt_clust_10="13000.00000"></scales>
<clustering>
<clus scale="   21.142">  1  9  2 -1</clus>
<clus scale="   81.803">  5  6 -1 -1</clus>
<clus scale="   89.656">  7  8 -1 -1</clus>
<clus scale="  108.414">  7 10 -1 -1</clus>
<clus scale="  151.031">  2  5  1 -1</clus>
<clus scale="   21.142">  1  5  2 -1</clus>
</clustering>
</event>
<event>
10    4  0.2759992E-005  0.3637023E+03  0.7546771E-02  0.1100487E+00
         -3   -1    0    0    0  501 -0.00000000000E+00  0.00000000000E+00  0.96591004507E+02  0.96591004507E+02  0.00000000000E+00 0.  1.
         21   -1    0    0  501  502  0.00000000000E+00 -0.00000000000E+00 -0.86858323616E+03  0.86858323616E+03  0.00000000000E+00 0.  1.
         24    2    1    2    0    0 -0.77772966734E+02  0.20379687249E+02 -0.21808004334E+02  0.11589050463E+03  0.80567077666E+02 0.  0.
         23    2    1    2    0    0  0.82844505880E+02  0.13834526719E+03 -0.31892880770E+03  0.36861461168E+03  0.90324539582E+02 0.  0.
        -11    1    3    3    0    0 -0.80211637253E+02  0.13846400788E+02  0.11190127428E+02  0.82163547376E+02  0.00000000000E+00 0.  1.
         12    1    3    3    0    0  0.24386705189E+01  0.65332864617E+01 -0.32998131762E+02  0.33726957255E+02  0.00000000000E+00 0. -1.
        -11    1    4    4    0    0 -0.32569932896E+01  0.36660639453E+02 -0.21304199672E+02  0.42526220313E+02  0.00000000000E+00 0. -1.
         11    1    4    4    0    0  0.86101499170E+02  0.10168462774E+03 -0.29762460803E+03  0.32608839136E+03  0.00000000000E+00 0.  1.
         21    1    1    2  503  502  0.21384032766E+02  0.15740216468E+02 -0.11972406186E+03  0.12263312057E+03  0.00000000000E+00 0.  1.
         -4    1    1    2    0  503 -0.26455571912E+02 -0.17446517091E+03 -0.31153135776E+03  0.35803600380E+03  0.00000000000E+00 0.  1.
<scales pt_clust_5="13000.00000" pt_clust_6="13000.00000" pt_clust_7="13000.00000" pt_clust_8="13000.00000" pt_clust_9="26.55242" pt_clust_10="13000.00000"></scales>
<clustering>
<clus scale="   26.552">  2  9  1 -1</clus>
<clus scale="   80.567">  5  6 -1 -1</clus>
<clus scale="   90.325">  7  8 -1 -1</clus>
<clus scale="  112.755">  1  5  2 -1</clus>
<clus scale="  165.602">  7 10 -1 -1</clus>
<clus scale="   26.552">  2  5  1 -1</clus>
</clustering>
</event>
<event>
10    4  0.2759992E-005  0.3610069E+03  0.7546771E-02  0.1061662E+00
          2   -1    0    0  503    0 -0.00000000000E+00  0.00000000000E+00  0.13754121955E+04  0.13754121955E+04  0.00000000000E+00 0. -1.
         21   -1    0    0  501  502  0.00000000000E+00 -0.00000000000E+00 -0.15276732702E+03  0.15276732702E+03  0.00000000000E+00 0. -1.
         24    2    1    2    0    0 -0.26663753265E+03 -0.11391295112E+03  0.37969501983E+03  0.48215340559E+03  0.65052780011E+02 0.  0.
         23    2    1    2    0    0  0.19284829991E+03  0.15124712467E+03  0.43733028670E+03  0.50951976700E+03  0.91029961026E+02 0.  0.
        -11    1    3    3    0    0 -0.85045381067E+02 -0.45902973235E+01  0.11193878986E+03  0.14065589339E+03  0.00000000000E+00 0.  1.
         12    1    3    3    0    0 -0.18159215159E+03 -0.10932265380E+03  0.26775622997E+03  0.34149751220E+03  0.00000000000E+00 0. -1.
        -11    1    4    4    0    0  0.11283498839E+03  0.79069506898E+02  0.32916914824E+03  0.35684177121E+03  0.00000000000E+00 0. -1.
         11    1    4    4    0    0  0.80013311516E+02  0.72177617767E+02  0.10816113846E+03  0.15267799579E+03  0.00000000000E+00 0.  1.
         21    1    1    2  503  502  0.33289697622E+02 -0.17953095180E+03  0.13136387356E+03  0.22493562167E+03  0.00000000000E+00 0. -1.
          1    1    1    2  501    0  0.40499535120E+02  0.14219677826E+03  0.27425568837E+03  0.31157072824E+03  0.00000000000E+00 0. -1.
<scales pt_clust_5="13000.00000" pt_clust_6="13000.00000" pt_clust_7="13000.00000" pt_clust_8="13000.00000" pt_clust_9="182.59126" pt_clust_10="13000.00000"></scales>
<clustering>
<clus scale="   65.053">  5  6 -1 -1</clus>
<clus scale="   91.030">  7  8 -1 -1</clus>
<clus scale="  147.852">  7 10 -1 -1</clus>
<clus scale="  182.591">  2  9  1 -1</clus>
<clus scale="  327.542">  1  5  2 -1</clus>
<clus scale="  182.591">  2  5  1 -1</clus>
</clustering>
</event>
<event>
10    4  0.2759992E-005  0.2291377E+03  0.7546771E-02  0.1131647E+00
          2   -1    0    0  503    0 -0.00000000000E+00  0.00000000000E+00  0.28206292418E+03  0.28206292418E+03  0.00000000000E+00 0. -1.
         21   -1    0    0  501  502  0.00000000000E+00 -0.00000000000E+00 -0.39212590642E+03  0.39212590642E+03  0.00000000000E+00 0. -1.
         24    2    1    2    0    0  0.23864115312E+02 -0.19343158546E+03  0.34188048566E+02  0.21402727612E+03  0.81569467362E+02 0.  0.
         23    2    1    2    0    0  0.53042711406E+02  0.14334234875E+03  0.59654098905E+02  0.18761833160E+03  0.91002575010E+02 0.  0.
        -13    1    3    3    0    0  0.27648530072E+02 -0.14400165418E+03  0.59644894103E+02  0.15829855026E+03  0.00000000000E+00 0.  1.
         14    1    3    3    0    0 -0.37844147593E+01 -0.49429931274E+02 -0.25456845537E+02  0.55728725856E+02  0.00000000000E+00 0. -1.
        -11    1    4    4    0    0  0.12638082639E+02  0.11078542974E+03  0.73948144704E+02  0.13379634031E+03  0.00000000000E+00 0. -1.
         11    1    4    4    0    0  0.40404628767E+02  0.32556919008E+02 -0.14294045799E+02  0.53821991290E+02  0.00000000000E+00 0.  1.
         21    1    1    2  503  502 -0.50086296826E+02  0.89769423961E+01 -0.21606197471E+03  0.22197297029E+03  0.00000000000E+00 0. -1.
          1    1    1    2  501    0 -0.26820529892E+02  0.41112294308E+02  0.12156844993E+02  0.50570252592E+02  0.00000000000E+00 0. -1.
<scales pt_clust_5="13000.00000" pt_clust_6="13000.00000" pt_clust_7="13000.00000" pt_clust_8="13000.00000" pt_clust_9="50.88440" pt_clust_10="13000.00000"></scales>
<clustering>
<clus scale="   50.884">  2  9  1 -1</clus>
<clus scale="   81.569">  5  6 -1 -1</clus>
<clus scale="   91.003">  7  8 -1 -1</clus>
<clus scale="   53.117">  7 10 -1 -1</clus>
<clus scale="  205.650">  1  5  2 -1</clus>
<clus scale="   50.884">  2  5  1 -1</clus>
</clustering>
</event>
<event>
10    4  0.2759992E-005  0.1343141E+03  0.7546771E-02  0.1241969E+00
          2   -1    0    0  503    0 -0.00000000000E+00  0.00000000000E+00  0.51424498613E+03  0.51424498613E+03  0.00000000000E+00 0. -1.
         21   -1    0    0  501  502  0.00000000000E+00 -0.00000000000E+00 -0.50413610303E+02  0.50413610303E+02  0.00000000000E+00 0. -1.
         24    2    1    2    0    0  0.11862792778E+02 -0.35017586727E+02  0.27260773833E+03  0.28691900447E+03  0.81489747175E+02 0.  0.
         23    2    1    2    0    0  0.37022557338E+02  0.26216818281E+02  0.19910910013E+03  0.22265075235E+03  0.88718275779E+02 0.  0.
        -11    1    3    3    0    0  0.26381671506E+02  0.16332821959E+02  0.15041698606E+03  0.15358392936E+03  0.00000000000E+00 0.  1.
         12    1    3    3    0    0 -0.14518878728E+02 -0.51350408686E+02  0.12219075228E+03  0.13333507511E+03  0.00000000000E+00 0. -1.
        -11    1    4    4    0    0  0.61448531378E+01 -0.32496185818E+02  0.73592943987E+02  0.80682604801E+02  0.00000000000E+00 0. -1.
         11    1    4    4    0    0  0.30877704200E+02  0.58713004099E+02  0.12551615614E+03  0.14196814755E+03  0.00000000000E+00 0.  1.
         21    1    1    2  503  502 -0.28491140887E+02  0.12448041748E+02 -0.13077945269E+02  0.33730275790E+02  0.00000000000E+00 0. -1.
          1    1    1    2  501    0 -0.20394209229E+02 -0.36472733030E+01  0.51924826389E+01  0.21358563823E+02  0.00000000000E+00 0. -1.
<scales pt_clust_5="13000.00000" pt_clust_6="13000.00000" pt_clust_7="13000.00000" pt_clust_8="13000.00000" pt_clust_9="31.09178" pt_clust_10="13000.00000"></scales>
<clustering>
<clus scale="   31.092">  2  9  1 -1</clus>
<clus scale="   81.490">  5  6 -1 -1</clus>
<clus scale="   87.552">  1  5  2 -1</clus>
<clus scale="   88.718">  7  8 -1 -1</clus>
<clus scale="   28.647">  7 10 -1 -1</clus>
<clus scale="   31.092">  2  5  1 -1</clus>
</clustering>
</event>
<event>
10    4  0.2759992E-005  0.4610932E+03  0.7546771E-02  0.1033836E+00
          2   -1    0    0  502    0 -0.00000000000E+00  0.00000000000E+00  0.36301388881E+04  0.36301388881E+04  0.00000000000E+00 0. -1.
         21   -1    0    0  503  502  0.00000000000E+00 -0.00000000000E+00 -0.57079731171E+02  0.57079731171E+02  0.00000000000E+00 0. -1.
         24    2    1    2    0    0 -0.19766080782E+03 -0.27184789516E+03  0.12655539992E+04  0.13140053641E+04  0.10959972168E+03 0.  0.
         23    2    1    2    0    0  0.67958635241E+02  0.32598485029E+03  0.15594252183E+04  0.15971495495E+04  0.90527197632E+02 0.  0.
        -13    1    3    3    0    0 -0.83829341124E+02 -0.18243223054E+03  0.59348439218E+03  0.62652422214E+03  0.00000000000E+00 0.  1.
         14    1    3    3    0    0 -0.11383146669E+03 -0.89415664616E+02  0.67206960704E+03  0.68748114199E+03  0.00000000000E+00 0. -1.
        -13    1    4    4    0    0  0.68288905494E+02  0.28923414827E+03  0.14812197183E+04  0.15107387666E+04  0.00000000000E+00 0. -1.
         13    1    4    4    0    0 -0.33027025278E+00  0.36750702019E+02  0.78205499989E+02  0.86410782926E+02  0.00000000000E+00 0.  1.
         21    1    1    2  503  501  0.32302541702E+02 -0.11004736209E+02  0.18635466902E+02  0.38882374491E+02  0.00000000000E+00 0. -1.
          1    1    1    2  501    0  0.97399630872E+02 -0.43132218916E+02  0.72944447252E+03  0.73718133108E+03  0.00000000000E+00 0. -1.
<scales pt_clust_5="13000.00000" pt_clust_6="13000.00000" pt_clust_7="13000.00000" pt_clust_8="13000.00000" pt_clust_9="34.12563" pt_clust_10="13000.00000"></scales>
<clustering>
<clus scale="   34.126">  2  9  1 -1</clus>
<clus scale="   90.527">  7  8 -1 -1</clus>
<clus scale="  109.323">  7 10 -1 -1</clus>
<clus scale="  109.600">  5  6 -1 -1</clus>
<clus scale="  348.987">  1  5  2 -1</clus>
<clus scale="   34.126">  2  5  1 -1</clus>
</clustering>
</event>
<event>
10    4  0.2759992E-005  0.1639064E+03  0.7546771E-02  0.1196911E+00
         21   -1    0    0  503  502  0.00000000000E+00  0.00000000000E+00  0.20681809471E+03  0.20681809471E+03  0.00000000000E+00 0.  1.
         -3   -1    0    0    0  501 -0.00000000000E+00 -0.00000000000E+00 -0.37347593261E+03  0.37347593261E+03  0.00000000000E+00 0.  1.
         24    2    1    2    0    0  0.91767918476E+02 -0.29020296584E+02 -0.11843407379E+03  0.17310681054E+03  0.81705627388E+02 0.  0.
         23    2    1    2    0    0 -0.85227298667E+02  0.32444021747E+02 -0.12899730806E+03  0.18296040667E+03  0.92292458713E+02 0.  0.
        -13    1    3    3    0    0  0.78719298675E+02 -0.19153282248E+02 -0.12992539542E+03  0.15311493911E+03  0.00000000000E+00 0.  1.
         14    1    3    3    0    0  0.13048619802E+02 -0.98670143363E+01  0.11491321627E+02  0.19991871433E+02  0.00000000000E+00 0. -1.
        -11    1    4    4    0    0 -0.10238576528E+03  0.12769317725E+02 -0.10888125060E+03  0.15000342376E+03  0.00000000000E+00 0.  1.
         11    1    4    4    0    0  0.17158466609E+02  0.19674704022E+02 -0.20116057461E+02  0.32956982910E+02  0.00000000000E+00 0. -1.
         21    1    1    2  503  501 -0.17934669847E+00  0.21159640866E+02  0.14948400302E+03  0.15097426842E+03  0.00000000000E+00 0.  1.
         -4    1    1    2    0  502 -0.63612731106E+01 -0.24583366029E+02 -0.68710459060E+02  0.73252541698E+02  0.00000000000E+00 0.  1.
<scales pt_clust_5="13000.00000" pt_clust_6="13000.00000" pt_clust_7="13000.00000" pt_clust_8="13000.00000" pt_clust_9="21.16040" pt_clust_10="13000.00000"></scales>
<clustering>
<clus scale="   21.160">  1  9  2 -1</clus>
<clus scale="   81.706">  5  6 -1 -1</clus>
<clus scale="   92.292">  7  8 -1 -1</clus>
<clus scale="   24.574">  7 10 -1 -1</clus>
<clus scale="  124.236">  2  5  1 -1</clus>
<clus scale="   21.160">  1  5  2 -1</clus>
</clustering>
</event>
<event>
10    4  0.2759992E-005  0.2109258E+03  0.7546771E-02  0.1157166E+00
          2   -1    0    0  503    0 -0.00000000000E+00  0.00000000000E+00  0.24398859512E+03  0.24398859512E+03  0.00000000000E+00 0. -1.
         21   -1    0    0  501  502  0.00000000000E+00 -0.00000000000E+00 -0.93545217924E+03  0.93545217924E+03  0.00000000000E+00 0.  1.
         24    2    1    2    0    0  0.72016763582E+02  0.34506318685E+02 -0.36674199017E+03  0.38227991876E+03  0.72533776031E+02 0.  0.
         23    2    1    2    0    0 -0.13696371936E+02 -0.13204040073E+03  0.97340939645E+02  0.18755001117E+03  0.89874858163E+02 0.  0.
        -13    1    3    3    0    0  0.80153586477E+02  0.37126529018E+02 -0.36175399643E+03  0.37238277419E+03  0.00000000000E+00 0.  1.
         14    1    3    3    0    0 -0.81368228951E+01 -0.26202103330E+01 -0.49879937424E+01  0.98971445675E+01  0.00000000000E+00 0. -1.
        -11    1    4    4    0    0  0.35013046573E+02 -0.80764699957E+02  0.66848706583E+02  0.11053325184E+03  0.00000000000E+00 0. -1.
         11    1    4    4    0    0 -0.48709418510E+02 -0.51275700772E+02  0.30492233062E+02  0.77016759334E+02  0.00000000000E+00 0.  1.
         21    1    1    2  503  502 -0.17791232402E+02  0.85365956198E+02 -0.50714444646E+03  0.51458659524E+03  0.00000000000E+00 0.  1.
          1    1    1    2  501    0 -0.40529159243E+02  0.12168125847E+02  0.85081912875E+02  0.95024249190E+02  0.00000000000E+00 0. -1.
<scales pt_clust_5="13000.00000" pt_clust_6="13000.00000" pt_clust_7="13000.00000" pt_clust_8="13000.00000" pt_clust_9="87.20020" pt_clust_10="13000.00000"></scales>
<clustering>
<clus scale="   72.534">  5  6 -1 -1</clus>
<clus scale="   87.200">  2  9  1 -1</clus>
<clus scale="   89.875">  7  8 -1 -1</clus>
<clus scale="   42.813">  7 10 -1 -1</clus>
<clus scale="  143.145">  1  5  2 -1</clus>
<clus scale="   87.200">  2  5  1 -1</clus>
</clustering>
</event>
<event>
10    4  0.2759992E-005  0.4209963E+03  0.7546771E-02  0.1084975E+00
          2   -1    0    0  503    0 -0.00000000000E+00  0.00000000000E+00  0.61809723468E+03  0.61809723468E+03  0.00000000000E+00 0. -1.
         21   -1    0    0  501  502  0.00000000000E+00 -0.00000000000E+00 -0.18867060770E+03  0.18867060770E+03  0.00000000000E+00 0. -1.
         24    2    1    2    0    0  0.65812352698E+02 -0.28934770341E+02 -0.18333688283E+02  0.11085245854E+03  0.82362957309E+02 0.  0.
         23    2    1    2    0    0 -0.30278407273E+02 -0.44333457679E+02  0.47544862633E+03  0.48549032418E+03  0.82263121591E+02 0.  0.
        -13    1    3    3    0    0  0.85300205404E+02 -0.27657824553E+02 -0.17067018398E+02  0.91281780317E+02  0.00000000000E+00 0.  1.
         14    1    3    3    0    0 -0.19487852705E+02 -0.12769457875E+01 -0.12666698848E+01  0.19570678226E+02  0.00000000000E+00 0. -1.
        -11    1    4    4    0    0 -0.29873145858E+02 -0.67797163897E+02  0.33498787656E+03  0.34308269807E+03  0.00000000000E+00 0. -1.
         11    1    4    4    0    0 -0.40526141502E+00  0.23463706218E+02  0.14046074977E+03  0.14240762610E+03  0.00000000000E+00 0.  1.
         21    1    1    2  503  502 -0.59988255965E+02  0.94847935229E+02  0.52469571797E+02  0.12388614788E+03  0.00000000000E+00 0. -1.
          1    1    1    2  501    0  0.24454310540E+02 -0.21579707209E+02 -0.80157882869E+02  0.86538911787E+02  0.00000000000E+00 0. -1.
<scales pt_clust_5="13000.00000" pt_clust_6="13000.00000" pt_clust_7="13000.00000" pt_clust_8="13000.00000" pt_clust_9="103.21666" pt_clust_10="13000.00000"></scales>
<clustering>
<clus scale="   82.263">  7  8 -1 -1</clus>
<clus scale="   32.614">  7 10 -1 -1</clus>
<clus scale="   82.363">  5  6 -1 -1</clus>
<clus scale="  109.326">  1  5  2 -1</clus>
<clus scale="  103.217">  2  9  1 -1</clus>
<clus scale="  103.217">  2  5  1 -1</clus>
</clustering>
</event>
<event>
10    4  0.2759992E-005  0.2280100E+03  0.7546771E-02  0.1151239E+00
         21   -1    0    0  503  502  0.00000000000E+00  0.00000000000E+00  0.24027128996E+03  0.24027128996E+03  0.00000000000E+00 0.  1.
         -1   -1    0    0    0  501 -0.00000000000E+00 -0.00000000000E+00 -0.46235699860E+03  0.46235699860E+03  0.00000000000E+00 0.  1.
         24    2    1    2    0    0 -0.18618085023E+01  0.94525819085E+02 -0.13984828088E+03  0.18742242748E+03  0.81431123375E+02 0.  0.
         23    2    1    2    0    0 -0.32624139815E+02 -0.12236522121E+03 -0.94710443109E+02  0.18528418850E+03  0.96553511652E+02 0.  0.
        -13    1    3    3    0    0  0.19711729000E+02  0.17050612023E+02  0.41161105342E-01  0.26062949272E+02  0.00000000000E+00 0.  1.
         14    1    3    3    0    0 -0.21573537502E+02  0.77475207062E+02 -0.13988944199E+03  0.16135947821E+03  0.00000000000E+00 0. -1.
        -11    1    4    4    0    0 -0.98972569496E+01 -0.13345803456E+03 -0.82389978795E+02  0.15715314597E+03  0.00000000000E+00 0.  1.
         11    1    4    4    0    0 -0.22726882866E+02  0.11092813345E+02 -0.12320464314E+02  0.28131042526E+02  0.00000000000E+00 0. -1.
         21    1    1    2  503  501  0.11100223953E+02  0.21005198961E+02  0.16942869077E+03  0.17108627827E+03  0.00000000000E+00 0.  1.
         -2    1    1    2    0  502  0.23385724365E+02  0.68342031684E+01 -0.15695567542E+03  0.15883539431E+03  0.00000000000E+00 0.  1.
<scales pt_clust_5="13000.00000" pt_clust_6="13000.00000" pt_clust_7="13000.00000" pt_clust_8="13000.00000" pt_clust_9="23.75781" pt_clust_10="13000.00000"></scales>
<clustering>
<clus scale="   23.758">  1  9  2 -1</clus>
<clus scale="   81.431">  5  6 -1 -1</clus>
<clus scale="   96.554">  7  8 -1 -1</clus>
<clus scale="   24.587">  7 10 -1 -1</clus>
<clus scale="  130.269">  2  5  1 -1</clus>
<clus scale="   23.758">  1  5  2 -1</clus>
</clustering>
</event>
<event>
10    4  0.2759992E-005  0.3625085E+03  0.7546771E-02  0.1079831E+00
         21   -1    0    0  503  502  0.00000000000E+00  0.00000000000E+00  0.44769048170E+03  0.44769048170E+03  0.00000000000E+00 0. -1.
          2   -1    0    0  502    0 -0.00000000000E+00 -0.00000000000E+00 -0.40417517123E+03  0.40417517123E+03  0.00000000000E+00 0. -1.
         24    2    1    2    0    0 -0.13839245047E+02 -0.13788974703E+03  0.60027912370E+02  0.18431216612E+03  0.10565281481E+03 0.  0.
         23    2    1    2    0    0 -0.18437833091E+02  0.23960571283E+03 -0.10372239760E+03  0.27650853712E+03  0.89150345058E+02 0.  0.
        -13    1    3    3    0    0 -0.41386337345E+02 -0.11634886286E+03  0.76908916122E+02  0.14548150462E+03  0.00000000000E+00 0.  1.
         14    1    3    3    0    0  0.27547092298E+02 -0.21540884170E+02 -0.16881003752E+02  0.38830661500E+02  0.00000000000E+00 0. -1.
        -11    1    4    4    0    0  0.25579620471E+02  0.16710075179E+03 -0.50730144038E+02  0.17649511536E+03  0.00000000000E+00 0. -1.
         11    1    4    4    0    0 -0.44017453561E+02  0.72504961041E+02 -0.52992253562E+02  0.10001342175E+03  0.00000000000E+00 0.  1.
         21    1    1    2  503  501 -0.50661426262E+02 -0.42001807681E+02  0.21647683304E+03  0.22625859365E+03  0.00000000000E+00 0. -1.
          1    1    1    2  501    0  0.82938504400E+02 -0.59714158123E+02 -0.12926703734E+03  0.16478635603E+03  0.00000000000E+00 0. -1.
<scales pt_clust_5="13000.00000" pt_clust_6="13000.00000" pt_clust_7="13000.00000" pt_clust_8="13000.00000" pt_clust_9="65.80830" pt_clust_10="13000.00000"></scales>
<clustering>
<clus scale="   65.808">  1  9  2 -1</clus>
<clus scale="   89.150">  7  8 -1 -1</clus>
<clus scale="  101.022">  7 10 -1 -1</clus>
<clus scale="  105.653">  5  6 -1 -1</clus>
<clus scale="  196.569">  2  5  1 -1</clus>
<clus scale="   65.808">  1  5  2 -1</clus>
</clustering>
</event>
<event>
10    4  0.2759992E-005  0.1935033E+03  0.7546771E-02  0.1194161E+00
          2   -1    0    0  503    0 -0.00000000000E+00  0.00000000000E+00  0.32588817624E+03  0.32588817624E+03  0.00000000000E+00 0. -1.
         21   -1    0    0  501  502  0.00000000000E+00 -0.00000000000E+00 -0.77647320371E+02  0.77647320371E+02  0.00000000000E+00 0. -1.
         24    2    1    2    0    0 -0.11521339335E+02 -0.56664278633E+00  0.81172434084E+02  0.11458688024E+03  0.80050775905E+02 0.  0.
         23    2    1    2    0    0 -0.86563329881E+02  0.15348856127E+01  0.94445902486E+02  0.15746845211E+03  0.91546266766E+02 0.  0.
        -13    1    3    3    0    0  0.32594899378E+02  0.46284757215E+01  0.18485457448E+02  0.37756620480E+02  0.00000000000E+00 0.  1.
         14    1    3    3    0    0 -0.44116238713E+02 -0.51951185079E+01  0.62686976635E+02  0.76830259756E+02  0.00000000000E+00 0. -1.
        -13    1    4    4    0    0 -0.63331344037E+02 -0.42449417839E+02  0.58400541705E+02  0.96038718670E+02  0.00000000000E+00 0. -1.
         13    1    4    4    0    0 -0.23231985844E+02  0.43984303451E+02  0.36045360781E+02  0.61429733438E+02  0.00000000000E+00 0.  1.
         21    1    1    2  503  502  0.31696818635E+02  0.15408123043E+02  0.55131502121E+01  0.35672025350E+02  0.00000000000E+00 0. -1.
          1    1    1    2  501    0  0.66387850581E+02 -0.16376365870E+02  0.67109369092E+02  0.95808138922E+02  0.00000000000E+00 0. -1.
<scales pt_clust_5="13000.00000" pt_clust_6="13000.00000" pt_clust_7="13000.00000" pt_clust_8="13000.00000" pt_clust_9="35.24342" pt_clust_10="13000.00000"></scales>
<clustering>
<clus scale="   35.243">  2  9  1 -1</clus>
<clus scale="   80.051">  5  6 -1 -1</clus>
<clus scale="   80.188">  1  5  2 -1</clus>
<clus scale="   91.546">  7  8 -1 -1</clus>
<clus scale="   73.107">  7 10 -1 -1</clus>
<clus scale="   35.243">  2  5  1 -1</clus>
</clustering>
</event>
<event>
10    4  0.2759992E-005  0.4473347E+03  0.7546771E-02  0.1066134E+00
         21   -1    0    0  503  502  0.00000000000E+00  0.00000000000E+00  0.35058105037E+03  0.35058105037E+03  0.00000000000E+00 0. -1.
         -1   -1    0    0    0  501 -0.00000000000E+00 -0.00000000000E+00 -0.54152467033E+03  0.54152467033E+03  0.00000000000E+00 0.  1.
         24    2    1    2    0    0  0.47903720843E+02 -0.11937693547E+03 -0.29394880454E+02  0.15485863216E+03  0.81064898475E+02 0.  0.
         23    2    1    2    0    0  0.12284448369E+03  0.18462186577E+03 -0.17355653144E+03  0.29577406401E+03  0.90467822134E+02 0.  0.
        -11    1    3    3    0    0  0.13506736987E+02 -0.86087069944E+02 -0.52471151961E+02  0.10171842185E+03  0.00000000000E+00 0.  1.
         12    1    3    3    0    0  0.34396983855E+02 -0.33289865521E+02  0.23076271506E+02  0.53140210306E+02  0.00000000000E+00 0. -1.
        -11    1    4    4    0    0  0.59229786049E+02  0.19202799243E+02 -0.46041477088E+02  0.77438573505E+02  0.00000000000E+00 0.  1.
         11    1    4    4    0    0  0.63614697637E+02  0.16541906653E+03 -0.12751505436E+03  0.21833549051E+03  0.00000000000E+00 0. -1.
         21    1    1    2  503  501 -0.27760935142E+03  0.38311659007E+02 -0.41587389333E+02  0.28330945301E+03  0.00000000000E+00 0. -1.
         -2    1    1    2    0  502  0.10686114689E+03 -0.10355658931E+03  0.53595181265E+02  0.15816357153E+03  0.00000000000E+00 0.  1.
<scales pt_clust_5="13000.00000" pt_clust_6="13000.00000" pt_clust_7="13000.00000" pt_clust_8="13000.00000" pt_clust_9="260.33812" pt_clust_10="13000.00000"></scales>
<clustering>
<clus scale="   81.065">  5  6 -1 -1</clus>
<clus scale="   90.468">  7  8 -1 -1</clus>
<clus scale="  148.806">  7 10 -1 -1</clus>
<clus scale="  152.043">  2  5  1 -1</clus>
<clus scale="  260.338">  1  9  2 -1</clus>
<clus scale="  260.338">  1  5  2 -1</clus>
</clustering>
</event>
<event>
10    4  0.2759992E-005  0.2222163E+03  0.7546771E-02  0.1159656E+00
         21   -1    0    0  503  502  0.00000000000E+00  0.00000000000E+00  0.36765649460E+03  0.36765649460E+03  0.00000000000E+00 0. -1.
          2   -1    0    0  502    0 -0.00000000000E+00 -0.00000000000E+00 -0.46200936266E+03  0.46200936266E+03  0.00000000000E+00 0. -1.
         24    2    1    2    0    0  0.63901788215E+02 -0.56904894565E+02 -0.55124904891E+02  0.12798288985E+03  0.77583886163E+02 0.  0.
         23    2    1    2    0    0  0.15029842557E+01  0.26210540618E+02 -0.19371055610E+03  0.21513280449E+03  0.89828128234E+02 0.  0.
        -13    1    3    3    0    0  0.46179377548E+02  0.12914148416E+01 -0.48185158178E+02  0.66753367943E+02  0.00000000000E+00 0.  1.
         14    1    3    3    0    0  0.17722410666E+02 -0.58196309406E+02 -0.69397467129E+01  0.61229521905E+02  0.00000000000E+00 0. -1.
        -13    1    4    4    0    0  0.44778024220E+02  0.14702037373E+02 -0.78978699110E+02  0.91972040693E+02  0.00000000000E+00 0.  1.
         13    1    4    4    0    0 -0.43275039965E+02  0.11508503246E+02 -0.11473185699E+03  0.12316076380E+03  0.00000000000E+00 0. -1.
         21    1    1    2  503  501 -0.11718744960E+03 -0.81195369177E+02  0.27775244228E+03  0.31220506964E+03  0.00000000000E+00 0. -1.
          1    1    1    2  501    0  0.51782677127E+02  0.11188972312E+03 -0.12326984935E+03  0.17434509328E+03  0.00000000000E+00 0. -1.
<scales pt_clust_5="13000.00000" pt_clust_6="13000.00000" pt_clust_7="13000.00000" pt_clust_8="13000.00000" pt_clust_9="141.68516" pt_clust_10="13000.00000"></scales>
<clustering>
<clus scale="   77.584">  5  6 -1 -1</clus>
<clus scale="   89.828">  7  8 -1 -1</clus>
<clus scale="  115.503">  2  5  1 -1</clus>
<clus scale="  118.006">  7 10 -1 -1</clus>
<clus scale="  141.685">  1  9  2 -1</clus>
<clus scale="  141.685">  1  5  2 -1</clus>
</clustering>
</event>
<event>
10    4  0.2759992E-005  0.2363406E+03  0.7546771E-02  0.1158646E+00
         21   -1    0    0  501  502  0.00000000000E+00  0.00000000000E+00  0.19967108278E+03  0.19967108278E+03  0.00000000000E+00 0.  1.
          2   -1    0    0  503    0 -0.00000000000E+00 -0.00000000000E+00 -0.94491049228E+03  0.94491049228E+03  0.00000000000E+00 0. -1.
         24    2    1    2    0    0  0.68191438974E+02  0.57085999466E+02 -0.35026229130E+02  0.12532193670E+03  0.81054718599E+02 0.  0.
         23    2    1    2    0    0  0.23930333285E+02  0.50393627782E+02 -0.22487989520E+03  0.24883289078E+03  0.90745036756E+02 0.  0.
        -11    1    3    3    0    0  0.36451546984E+02 -0.16040093888E+02 -0.49997963565E+01  0.40137237736E+02  0.00000000000E+00 0.  1.
         12    1    3    3    0    0  0.31739891990E+02  0.73126093354E+02 -0.30026432774E+02  0.85184698966E+02  0.00000000000E+00 0. -1.
        -13    1    4    4    0    0  0.52045247575E+02  0.42749883755E+01 -0.11969901137E+03  0.13059416772E+03  0.00000000000E+00 0.  1.
         13    1    4    4    0    0 -0.28114914289E+02  0.46118639406E+02 -0.10518088384E+03  0.11823872306E+03  0.00000000000E+00 0. -1.
         21    1    1    2  503  502 -0.38596524064E+02 -0.24461677352E+02  0.13487311454E+03  0.14240373013E+03  0.00000000000E+00 0.  1.
          1    1    1    2  501    0 -0.53525248195E+02 -0.83017949896E+02 -0.62020639971E+03  0.62802301744E+03  0.00000000000E+00 0. -1.
<scales pt_clust_5="13000.00000" pt_clust_6="13000.00000" pt_clust_7="13000.00000" pt_clust_8="13000.00000" pt_clust_9="45.69535" pt_clust_10="13000.00000"></scales>
<clustering>
<clus scale="   45.695">  1  9  2 -1</clus>
<clus scale="   81.055">  5  6 -1 -1</clus>
<clus scale="   90.745">  7  8 -1 -1</clus>
<clus scale="   98.293">  2  5  1 -1</clus>
<clus scale="   61.441">  7 10 -1 -1</clus>
<clus scale="   45.695">  1  5  2 -1</clus>
</clustering>
</event>
<event>
10    4  0.2759992E-005  0.1395894E+03  0.7546771E-02  0.1241869E+00
         21   -1    0    0  501  502  0.00000000000E+00  0.00000000000E+00  0.12404334784E+03  0.12404334784E+03  0.00000000000E+00 0. -1.
          2   -1    0    0  503    0 -0.00000000000E+00 -0.00000000000E+00 -0.43348985088E+03  0.43348985088E+03  0.00000000000E+00 0. -1.
         24    2    1    2    0    0  0.20225280832E+02  0.23564054626E+02  0.83473771623E+02  0.10500243551E+03  0.55617571491E+02 0.  0.
         23    2    1    2    0    0  0.32640091574E+01 -0.27259151667E+02 -0.31031355120E+03  0.32875453053E+03  0.10503012032E+03 0.  0.
        -13    1    3    3    0    0  0.36116264116E+02  0.10366258058E+01  0.47486267859E+02  0.59669127377E+02  0.00000000000E+00 0.  1.
         14    1    3    3    0    0 -0.15890983284E+02  0.22527428820E+02  0.35987503764E+02  0.45333308132E+02  0.00000000000E+00 0. -1.
        -11    1    4    4    0    0  0.45093249273E+02 -0.26284182749E+02 -0.86214000637E+02  0.10078250492E+03  0.00000000000E+00 0. -1.
         11    1    4    4    0    0 -0.41829240115E+02 -0.97496891790E+00 -0.22409955057E+03  0.22797202560E+03  0.00000000000E+00 0.  1.
         21    1    1    2  503  502 -0.15547790523E+02  0.35032708003E+02 -0.37026657087E+01  0.38506287195E+02  0.00000000000E+00 0. -1.
          1    1    1    2  501    0 -0.79414994670E+01 -0.31337610963E+02 -0.78904057746E+02  0.85269945487E+02  0.00000000000E+00 0. -1.
<scales pt_clust_5="13000.00000" pt_clust_6="13000.00000" pt_clust_7="13000.00000" pt_clust_8="13000.00000" pt_clust_9="38.32785" pt_clust_10="13000.00000"></scales>
<clustering>
<clus scale="   38.328">  1  9  2 -1</clus>
<clus scale="   55.618">  5  6 -1 -1</clus>
<clus scale="   78.154">  2  5  1 -1</clus>
<clus scale="  105.030">  7  8 -1 -1</clus>
<clus scale="   20.797">  7 10 -1 -1</clus>
<clus scale="   38.328">  1  5  2 -1</clus>
</clustering>
</event>
<event>
10    4  0.2759992E-005  0.1144678E+04  0.7546771E-02  0.9639853E-01
         21   -1    0    0  503  502  0.00000000000E+00  0.00000000000E+00  0.12888450036E+04  0.12888450036E+04  0.00000000000E+00 0. -1.
          2   -1    0    0  502    0 -0.00000000000E+00 -0.00000000000E+00 -0.70449838073E+03  0.70449838073E+03  0.00000000000E+00 0. -1.
         24    2    1    2    0    0 -0.49619229635E+02 -0.18458013836E+03 -0.37993160651E+03  0.43302578121E+03  0.81433446059E+02 0.  0.
         23    2    1    2    0    0 -0.14444341072E+03 -0.41104992357E+02 -0.24986001788E+03  0.30589434906E+03  0.92670410364E+02 0.  0.
        -11    1    3    3    0    0  0.21782967634E+02 -0.52691455064E+02 -0.12188020121E+03  0.13455731330E+03  0.00000000000E+00 0.  1.
         12    1    3    3    0    0 -0.71402197268E+02 -0.13188868330E+03 -0.25805140530E+03  0.29846846791E+03  0.00000000000E+00 0. -1.
        -13    1    4    4    0    0  0.75870676904E+00 -0.29240601291E+02 -0.28102137314E+02  0.40562526073E+02  0.00000000000E+00 0.  1.
         13    1    4    4    0    0 -0.14520211749E+03 -0.11864391066E+02 -0.22175788056E+03  0.26533182299E+03  0.00000000000E+00 0. -1.
         21    1    1    2  503  501  0.21170052826E+02 -0.55049026461E+01  0.15927916152E+03  0.16077414712E+03  0.00000000000E+00 0.  1.
          1    1    1    2  501    0  0.17289258753E+03  0.23119003337E+03  0.10548590857E+04  0.10936491069E+04  0.00000000000E+00 0. -1.
<scales pt_clust_5="13000.00000" pt_clust_6="13000.00000" pt_clust_7="13000.00000" pt_clust_8="13000.00000" pt_clust_9="21.87407" pt_clust_10="13000.00000"></scales>
<clustering>
<clus scale="   21.874">  1  9  2 -1</clus>
<clus scale="   81.433">  5  6 -1 -1</clus>
<clus scale="   92.670">  7  8 -1 -1</clus>
<clus scale="  207.755">  2  5  1 -1</clus>
<clus scale="  284.925">  7 10 -1 -1</clus>
<clus scale="   21.874">  1  5  2 -1</clus>
</clustering>
</event>
<event>
10    4  0.2759992E-005  0.5969751E+03  0.7546771E-02  0.1006917E+00
         21   -1    0    0  501  502  0.00000000000E+00  0.00000000000E+00  0.20574028542E+03  0.20574028542E+03  0.00000000000E+00 0. -1.
          2   -1    0    0  503    0 -0.00000000000E+00 -0.00000000000E+00 -0.12269670296E+04  0.12269670296E+04  0.00000000000E+00 0. -1.
         24    2    1    2    0    0 -0.29763584675E+03  0.17283785470E+03 -0.29113585994E+03  0.45853209775E+03  0.83854483722E+02 0.  0.
         23    2    1    2    0    0 -0.19403382573E+02  0.10693716338E+03 -0.29064406618E+03  0.32261877552E+03  0.88299790172E+02 0.  0.
        -11    1    3    3    0    0 -0.16891012797E+03  0.59278860277E+02 -0.18107003490E+03  0.25461926900E+03  0.00000000000E+00 0.  1.
         12    1    3    3    0    0 -0.12872571878E+03  0.11355899442E+03 -0.11006582504E+03  0.20391282875E+03  0.00000000000E+00 0. -1.
        -11    1    4    4    0    0  0.18586896396E+02  0.34795660001E+02 -0.18506281960E+03  0.18922065921E+03  0.00000000000E+00 0.  1.
         11    1    4    4    0    0 -0.37990278969E+02  0.72141503379E+02 -0.10558124658E+03  0.13339811631E+03  0.00000000000E+00 0. -1.
         21    1    1    2  503  502 -0.13803396831E+02  0.17521067306E+02  0.49018588989E+01  0.22837464489E+02  0.00000000000E+00 0.  1.
          1    1    1    2  501    0  0.33084262616E+03 -0.29729608538E+03 -0.44434867698E+03  0.62871897729E+03  0.00000000000E+00 0. -1.
<scales pt_clust_5="13000.00000" pt_clust_6="13000.00000" pt_clust_7="13000.00000" pt_clust_8="13000.00000" pt_clust_9="22.30519" pt_clust_10="13000.00000"></scales>
<clustering>
<clus scale="   22.305">  1  9  2 -1</clus>
<clus scale="   83.854">  5  6 -1 -1</clus>
<clus scale="   88.300">  7  8 -1 -1</clus>
<clus scale="  363.060">  2  5  1 -1</clus>
<clus scale="  223.261">  7 10 -1 -1</clus>
<clus scale="   22.305">  1  5  2 -1</clus>
</clustering>
</event>
<event>
10    4  0.2759992E-005  0.1911830E+03  0.7546771E-02  0.1169632E+00
          2   -1    0    0  503    0 -0.00000000000E+00  0.00000000000E+00  0.14170411644E+04  0.14170411644E+04  0.00000000000E+00 0. -1.
         21   -1    0    0  501  502  0.00000000000E+00 -0.00000000000E+00 -0.29786926485E+02  0.29786926485E+02  0.00000000000E+00 0.  1.
         24    2    1    2    0    0  0.11472652032E+03 -0.28761066817E+02  0.26517353703E+03  0.30108860333E+03  0.79674141879E+02 0.  0.
         23    2    1    2    0    0 -0.58156977322E+02  0.34498938870E+02  0.47985539498E+03  0.49271495284E+03  0.89075326906E+02 0.  0.
        -13    1    3    3    0    0  0.96491638373E+02  0.54560589935E+01  0.14054088082E+03  0.17056419330E+03  0.00000000000E+00 0.  1.
         14    1    3    3    0    0  0.18234881944E+02 -0.34217125810E+02  0.12463265621E+03  0.13052441002E+03  0.00000000000E+00 0. -1.
        -11    1    4    4    0    0 -0.74785305403E+02  0.12732521479E+02  0.42122529524E+03  0.42800199574E+03  0.00000000000E+00 0.  1.
         11    1    4    4    0    0  0.16628328080E+02  0.21766417391E+02  0.58630099747E+02  0.64712957104E+02  0.00000000000E+00 0. -1.
         21    1    1    2  503  502  0.72190439388E+01  0.27768007809E+02  0.61697287503E+02  0.68042135021E+02  0.00000000000E+00 0.  1.
          1    1    1    2  501    0 -0.63788586933E+02 -0.33505879862E+02  0.58052801841E+03  0.58498239971E+03  0.00000000000E+00 0. -1.
<scales pt_clust_5="13000.00000" pt_clust_6="13000.00000" pt_clust_7="13000.00000" pt_clust_8="13000.00000" pt_clust_9="28.69106" pt_clust_10="13000.00000"></scales>
<clustering>
<clus scale="   28.691">  2  9  1 -1</clus>
<clus scale="   79.674">  5  6 -1 -1</clus>
<clus scale="   89.075">  7  8 -1 -1</clus>
<clus scale="   70.460">  7 10 -1 -1</clus>
<clus scale="  144.056">  1  5  2 -1</clus>
<clus scale="   28.691">  2  5  1 -1</clus>
</clustering>
</event>
<event>
10    4  0.2759992E-005  0.6667376E+03  0.7546771E-02  0.1028557E+00
         21   -1    0    0  503  502  0.00000000000E+00  0.00000000000E+00  0.25570279210E+03  0.25570279210E+03  0.00000000000E+00 0. -1.
          2   -1    0    0  502    0 -0.00000000000E+00 -0.00000000000E+00 -0.77201222042E+03  0.77201222042E+03  0.00000000000E+00 0. -1.
         24    2    1    2    0    0 -0.50977251782E+02  0.96713458595E+02 -0.24978495133E+03  0.28354203107E+03  0.77790669090E+02 0.  0.
         23    2    1    2    0    0  0.28224633271E+02  0.18207871854E+03  0.11171654481E+03  0.23578110510E+03  0.95722794942E+02 0.  0.
        -11    1    3    3    0    0 -0.40699112785E+02  0.10415586831E+03 -0.24612105873E+03  0.27033393837E+03  0.00000000000E+00 0.  1.
         12    1    3    3    0    0 -0.10278138997E+02 -0.74424097196E+01 -0.36638926043E+01  0.13208092697E+02  0.00000000000E+00 0. -1.
        -13    1    4    4    0    0 -0.32884970565E+02  0.66030669981E+02  0.22363682761E+02  0.77081807022E+02  0.00000000000E+00 0.  1.
         13    1    4    4    0    0  0.61109603836E+02  0.11604804856E+03  0.89352862049E+02  0.15869929808E+03  0.00000000000E+00 0. -1.
         21    1    1    2  503  501  0.71922794841E+01  0.19085399556E+02  0.66460960523E+01  0.21451152723E+02  0.00000000000E+00 0. -1.
          1    1    1    2  501    0  0.15560339027E+02 -0.29787757669E+03 -0.38488711785E+03  0.48694072363E+03  0.00000000000E+00 0. -1.
<scales pt_clust_5="13000.00000" pt_clust_6="13000.00000" pt_clust_7="13000.00000" pt_clust_8="13000.00000" pt_clust_9="20.39562" pt_clust_10="13000.00000"></scales>
<clustering>
<clus scale="   20.396">  1  9  2 -1</clus>
<clus scale="   77.791">  5  6 -1 -1</clus>
<clus scale="   95.723">  7  8 -1 -1</clus>
<clus scale="  134.953">  2  5  1 -1</clus>
<clus scale="  212.259">  7 10 -1 -1</clus>
<clus scale="   20.396">  1  5  2 -1</clus>
</clustering>
</event>
<event>
10    4  0.2759992E-005  0.2155651E+03  0.7546771E-02  0.1179344E+00
          2   -1    0    0  503    0 -0.00000000000E+00  0.00000000000E+00  0.59833925846E+03  0.59833925846E+03  0.00000000000E+00 0. -1.
         21   -1    0    0  501  502  0.00000000000E+00 -0.00000000000E+00 -0.14444952615E+03  0.14444952615E+03  0.00000000000E+00 0. -1.
         24    2    1    2    0    0  0.81681971635E+01 -0.71176841650E+01  0.37928296862E+02  0.89091589559E+02  0.79883507400E+02 0.  0.
         23    2    1    2    0    0 -0.14050752314E+03 -0.21157722146E+02  0.40511619604E+03  0.43898869772E+03  0.91662048698E+02 0.  0.
        -13    1    3    3    0    0  0.28835453313E+02 -0.36087206756E+00  0.54562721773E+02  0.61714700061E+02  0.00000000000E+00 0.  1.
         14    1    3    3    0    0 -0.20667256150E+02 -0.67568120975E+01 -0.16634424910E+02  0.27376889498E+02  0.00000000000E+00 0. -1.
        -11    1    4    4    0    0 -0.74089552919E+02  0.29829655150E+02  0.14261685305E+03  0.16345836459E+03  0.00000000000E+00 0.  1.
         11    1    4    4    0    0 -0.66417970218E+02 -0.50987377295E+02  0.26249934298E+03  0.27553033314E+03  0.00000000000E+00 0. -1.
         21    1    1    2  503  502  0.86773502816E+02  0.12530202291E+02 -0.75575098515E+02  0.11575077657E+03  0.00000000000E+00 0. -1.
          1    1    1    2  501    0  0.45565823158E+02  0.15745204020E+02  0.86420337933E+02  0.98957720760E+02  0.00000000000E+00 0. -1.
<scales pt_clust_5="13000.00000" pt_clust_6="13000.00000" pt_clust_7="13000.00000" pt_clust_8="13000.00000" pt_clust_9="87.93950" pt_clust_10="13000.00000"></scales>
<clustering>
<clus scale="   79.884">  5  6 -1 -1</clus>
<clus scale="   80.615">  1  5  2 -1</clus>
<clus scale="   87.940">  2  9  1 -1</clus>
<clus scale="   91.662">  7  8 -1 -1</clus>
<clus scale="   75.915">  7 10 -1 -1</clus>
<clus scale="   87.940">  2  5  1 -1</clus>
</clustering>
</event>
<event>
10    4  0.2759992E-005  0.2274505E+03  0.7546771E-02  0.1156558E+00
         21   -1    0    0  501  502  0.00000000000E+00  0.00000000000E+00  0.37204730234E+03  0.37204730234E+03  0.00000000000E+00 0. -1.
          2   -1    0    0  503    0 -0.00000000000E+00 -0.00000000000E+00 -0.12703553348E+03  0.12703553348E+03  0.00000000000E+00 0. -1.
         24    2    1    2    0    0  0.87675022644E+02  0.14730595910E+02  0.15909872026E+02  0.12102749377E+03  0.80564447294E+02 0.  0.
         23    2    1    2    0    0 -0.59056054554E+02 -0.69307731635E+02  0.72558450582E+01  0.12856621849E+03  0.90473454701E+02 0.  0.
        -11    1    3    3    0    0  0.20132591071E+02  0.22642165457E+01  0.42733079545E+02  0.47292324824E+02  0.00000000000E+00 0.  1.
         12    1    3    3    0    0  0.67542431573E+02  0.12466379364E+02 -0.26823207519E+02  0.73735168942E+02  0.00000000000E+00 0. -1.
        -11    1    4    4    0    0 -0.32162321590E+02 -0.25896898555E+02 -0.41083903972E+02  0.58249046777E+02  0.00000000000E+00 0.  1.
         11    1    4    4    0    0 -0.26893732965E+02 -0.43410833080E+02  0.48339749030E+02  0.70317171714E+02  0.00000000000E+00 0. -1.
         21    1    1    2  503  502 -0.17736262364E+02 -0.16465074154E+02  0.13314069361E+03  0.13532227446E+03  0.00000000000E+00 0. -1.
          1    1    1    2  501    0 -0.10882705725E+02  0.71042209880E+02  0.88705358162E+02  0.11416684911E+03  0.00000000000E+00 0. -1.
<scales pt_clust_5="13000.00000" pt_clust_6="13000.00000" pt_clust_7="13000.00000" pt_clust_8="13000.00000" pt_clust_9="24.20070" pt_clust_10="13000.00000"></scales>
<clustering>
<clus scale="   24.201">  1  9  2 -1</clus>
<clus scale="   80.564">  5  6 -1 -1</clus>
<clus scale="   90.473">  7  8 -1 -1</clus>
<clus scale="   66.624">  7 10 -1 -1</clus>
<clus scale="  115.793">  2  5  1 -1</clus>
<clus scale="   24.201">  1  5  2 -1</clus>
</clustering>
</event>
<event>
10    4  0.2759992E-005  0.3172073E+03  0.7546771E-02  0.1110431E+00
         21   -1    0    0  503  502  0.00000000000E+00  0.00000000000E+00  0.24368875649E+03  0.24368875649E+03  0.00000000000E+00 0.  1.
          2   -1    0    0  502    0 -0.00000000000E+00 -0.00000000000E+00 -0.79634375511E+03  0.79634375511E+03  0.00000000000E+00 0. -1.
         24    2    1    2    0    0  0.75920696255E+02 -0.72428441880E+02 -0.38954489128E+03  0.41118880645E+03  0.79505854557E+02 0.  0.
         23    2    1    2    0    0 -0.10184895196E+03  0.10271141111E+03 -0.15218767589E+03  0.22484971029E+03  0.80457818378E+02 0.  0.
        -11    1    3    3    0    0  0.32473142465E+02 -0.27395069749E+02 -0.48612547014E+02  0.64561401435E+02  0.00000000000E+00 0.  1.
         12    1    3    3    0    0  0.43447553790E+02 -0.45033372131E+02 -0.34093234427E+03  0.34662740501E+03  0.00000000000E+00 0. -1.
        -13    1    4    4    0    0 -0.10115079900E+03  0.81085115008E+02 -0.15604585221E+03  0.20287086534E+03  0.00000000000E+00 0.  1.
         13    1    4    4    0    0 -0.69815296691E+00  0.21626296105E+02  0.38581763223E+01  0.21978844949E+02  0.00000000000E+00 0. -1.
         21    1    1    2  503  501 -0.12486570635E+03 -0.73120472526E+02  0.12901253260E+03  0.19386150131E+03  0.00000000000E+00 0.  1.
          1    1    1    2  501    0  0.15079396205E+03  0.42837503293E+02 -0.13993496405E+03  0.21013249354E+03  0.00000000000E+00 0. -1.
<scales pt_clust_5="13000.00000" pt_clust_6="13000.00000" pt_clust_7="13000.00000" pt_clust_8="13000.00000" pt_clust_9="142.57165" pt_clust_10="13000.00000"></scales>
<clustering>
<clus scale="   79.506">  5  6 -1 -1</clus>
<clus scale="   80.458">  7  8 -1 -1</clus>
<clus scale="  131.647">  2  5  1 -1</clus>
<clus scale="  142.572">  1  9  2 -1</clus>
<clus scale="  116.326">  7 10 -1 -1</clus>
<clus scale="  142.572">  1  5  2 -1</clus>
</clustering>
</event>
<event>
10    4  0.3508465E-005  0.6492562E+03  0.7546771E-02  0.9997714E-01
         -3   -1    0    0    0  501 -0.00000000000E+00  0.00000000000E+00  0.10452845686E+04  0.10452845686E+04  0.00000000000E+00 0.  1.
         21   -1    0    0  503  502  0.00000000000E+00 -0.00000000000E+00 -0.27413715467E+03  0.27413715467E+03  0.00000000000E+00 0.  1.
         24    2    1    2    0    0 -0.26846046106E+03 -0.21231666604E+03  0.13686738015E+03  0.37656188510E+03  0.76920658665E+02 0.  0.
         23    2    1    2    0    0 -0.85924520723E+02 -0.85993066622E+02  0.46953094568E+02  0.15625396357E+03  0.86214136160E+02 0.  0.
        -11    1    3    3    0    0 -0.25729677812E+03 -0.17343309547E+03  0.12332828121E+03  0.33390198499E+03  0.00000000000E+00 0.  1.
         12    1    3    3    0    0 -0.11163682939E+02 -0.38883570569E+02  0.13539098937E+02  0.42659900105E+02  0.00000000000E+00 0. -1.
        -13    1    4    4    0    0 -0.19184285853E+02  0.11758268287E+02  0.28737435954E+02  0.36498409856E+02  0.00000000000E+00 0. -1.
         13    1    4    4    0    0 -0.66740234871E+02 -0.97751334910E+02  0.18215658615E+02  0.11975555372E+03  0.00000000000E+00 0.  1.
         21    1    1    2  503  501  0.10272827564E+02 -0.20093196763E+02 -0.12107427251E+02  0.25609711770E+02  0.00000000000E+00 0. -1.
         -4    1    1    2    0  502  0.34411215422E+03  0.31840292942E+03  0.59943436643E+03  0.76099616281E+03  0.00000000000E+00 0.  1.
<scales pt_clust_5="13000.00000" pt_clust_6="13000.00000" pt_clust_7="13000.00000" pt_clust_8="13000.00000" pt_clust_9="22.56696" pt_clust_10="13000.00000"></scales>
<clustering>
<clus scale="   22.567">  2  9  1 -1</clus>
<clus scale="   76.921">  5  6 -1 -1</clus>
<clus scale="   86.214">  7  8 -1 -1</clus>
<clus scale="  352.980">  1  5  2 -1</clus>
<clus scale="  169.566">  7 10 -1 -1</clus>
<clus scale="   22.567">  2  5  1 -1</clus>
</clustering>
</event>
<event>
10    4  0.2759992E-005  0.3519404E+03  0.7546771E-02  0.1088797E+00
         21   -1    0    0  501  502  0.00000000000E+00  0.00000000000E+00  0.20367528683E+03  0.20367528683E+03  0.00000000000E+00 0. -1.
          2   -1    0    0  503    0 -0.00000000000E+00 -0.00000000000E+00 -0.69363643234E+03  0.69363643234E+03  0.00000000000E+00 0. -1.
         24    2    1    2    0    0  0.33030024686E+02  0.14113087308E+03 -0.44089966732E+03  0.47104752143E+03  0.80525430356E+02 0.  0.
         23    2    1    2    0    0  0.90632907423E+02  0.24474006435E+02 -0.17068306032E+02  0.13227899319E+03  0.91613885796E+02 0.  0.
        -13    1    3    3    0    0 -0.73600735746E+01  0.65042190949E+02 -0.10065456673E+03  0.12006664437E+03  0.00000000000E+00 0.  1.
         14    1    3    3    0    0  0.40390098260E+02  0.76088682135E+02 -0.34024510059E+03  0.35098087706E+03  0.00000000000E+00 0. -1.
        -13    1    4    4    0    0  0.27610418171E+02  0.52483254015E+02  0.58830572085E+01  0.59593938498E+02  0.00000000000E+00 0.  1.
         13    1    4    4    0    0  0.63022489252E+02 -0.28009247580E+02 -0.22951363241E+02  0.72685054696E+02  0.00000000000E+00 0. -1.
         21    1    1    2  503  502 -0.12096229494E+02  0.45493575663E+02  0.17355709093E+02  0.50171753335E+02  0.00000000000E+00 0. -1.
          1    1    1    2  501    0 -0.11156670261E+03 -0.21109845518E+03 -0.49348881254E+02  0.24381345122E+03  0.00000000000E+00 0. -1.
<scales pt_clust_5="13000.00000" pt_clust_6="13000.00000" pt_clust_7="13000.00000" pt_clust_8="13000.00000" pt_clust_9="47.07424" pt_clust_10="13000.00000"></scales>
<clustering>
<clus scale="   47.074">  1  9  2 -1</clus>
<clus scale="   80.525">  5  6 -1 -1</clus>
<clus scale="   91.614">  7  8 -1 -1</clus>
<clus scale="  169.053">  2  5  1 -1</clus>
<clus scale="  139.511">  7 10 -1 -1</clus>
<clus scale="   47.074">  1  5  2 -1</clus>
</clustering>
</event>
<event>
10    4  0.2759992E-005  0.2765551E+03  0.7546771E-02  0.1110668E+00
          2   -1    0    0  502    0 -0.00000000000E+00  0.00000000000E+00  0.97010501735E+03  0.97010501735E+03  0.00000000000E+00 0. -1.
         21   -1    0    0  503  502  0.00000000000E+00 -0.00000000000E+00 -0.45168026969E+03  0.45168026969E+03  0.00000000000E+00 0. -1.
         24    2    1    2    0    0  0.51484655927E+02 -0.16773342413E+03  0.87522466098E+03  0.89707917567E+03  0.89149699126E+02 0.  0.
         23    2    1    2    0    0 -0.49083916574E+02  0.36213852002E+02 -0.91334247698E+01  0.10992801506E+03  0.90994918006E+02 0.  0.
        -11    1    3    3    0    0 -0.19407166225E+02 -0.11434104245E+02  0.62611813413E+02  0.66540333781E+02  0.00000000000E+00 0.  1.
         12    1    3    3    0    0  0.70891822151E+02 -0.15629931989E+03  0.81261284757E+03  0.83053884188E+03  0.00000000000E+00 0. -1.
        -11    1    4    4    0    0  0.18319833060E+02  0.88342883512E+01 -0.28152495137E+02  0.34730734465E+02  0.00000000000E+00 0.  1.
         11    1    4    4    0    0 -0.67403749635E+02  0.27379563651E+02  0.19019070367E+02  0.75197280590E+02  0.00000000000E+00 0. -1.
         21    1    1    2  503  501  0.74445264232E+02  0.15257324787E+01 -0.13092418058E+03  0.15061728415E+03  0.00000000000E+00 0. -1.
          1    1    1    2  501    0 -0.76846003585E+02  0.12999383965E+03 -0.21674230798E+03  0.26416081217E+03  0.00000000000E+00 0. -1.
<scales pt_clust_5="13000.00000" pt_clust_6="13000.00000" pt_clust_7="13000.00000" pt_clust_8="13000.00000" pt_clust_9="74.46090" pt_clust_10="13000.00000"></scales>
<clustering>
<clus scale="   74.461">  2  9  1 -1</clus>
<clus scale="   89.150">  5  6 -1 -1</clus>
<clus scale="   90.995">  7  8 -1 -1</clus>
<clus scale="  132.582">  7 10 -1 -1</clus>
<clus scale="  197.462">  1  5  2 -1</clus>
<clus scale="   74.461">  2  5  1 -1</clus>
</clustering>
</event>
<event>
10    4  0.2759992E-005  0.2783647E+03  0.7546771E-02  0.1101573E+00
         21   -1    0    0  501  502  0.00000000000E+00  0.00000000000E+00  0.16798829620E+03  0.16798829620E+03  0.00000000000E+00 0. -1.
          2   -1    0    0  503    0 -0.00000000000E+00 -0.00000000000E+00 -0.81638078495E+03  0.81638078495E+03  0.00000000000E+00 0. -1.
         24    2    1    2    0    0 -0.16037081043E+03  0.18582847142E+03 -0.88645873308E+02  0.27392941024E+03  0.83235889563E+02 0.  0.
         23    2    1    2    0    0  0.49863013731E+01 -0.15369881814E+03 -0.33474357876E+03  0.37919387589E+03  0.89925202786E+02 0.  0.
        -11    1    3    3    0    0 -0.35904812238E+02  0.10181886873E+03 -0.49350592480E+02  0.11870854455E+03  0.00000000000E+00 0.  1.
         12    1    3    3    0    0 -0.12446599819E+03  0.84009602690E+02 -0.39295280828E+02  0.15522086569E+03  0.00000000000E+00 0. -1.
        -13    1    4    4    0    0  0.32898762732E+02 -0.66965539426E+02 -0.83697886589E+02  0.11212514562E+03  0.00000000000E+00 0. -1.
         13    1    4    4    0    0 -0.27912461359E+02 -0.86733278717E+02 -0.25104569217E+03  0.26706873028E+03  0.00000000000E+00 0.  1.
         21    1    1    2  503  502  0.77770634282E+02  0.26814341257E+02  0.40064393727E+01  0.82360985971E+02  0.00000000000E+00 0. -1.
          1    1    1    2  501    0  0.77613874770E+02 -0.58943994533E+02 -0.22900947606E+03  0.24888480905E+03  0.00000000000E+00 0. -1.
<scales pt_clust_5="13000.00000" pt_clust_6="13000.00000" pt_clust_7="13000.00000" pt_clust_8="13000.00000" pt_clust_9="82.26348" pt_clust_10="13000.00000"></scales>
<clustering>
<clus scale="   82.263">  1  9  2 -1</clus>
<clus scale="   83.236">  5  6 -1 -1</clus>
<clus scale="   89.925">  7  8 -1 -1</clus>
<clus scale="  101.246">  7 10 -1 -1</clus>
<clus scale="  244.519">  2  5  1 -1</clus>
<clus scale="   82.263">  1  5  2 -1</clus>
</clustering>
</event>
<event>
10    4  0.2759992E-005  0.2244337E+03  0.7546771E-02  0.1163440E+00
         21   -1    0    0  503  502  0.00000000000E+00  0.00000000000E+00  0.57637106337E+02  0.57637106337E+02  0.00000000000E+00 0.  1.
          2   -1    0    0  502    0 -0.00000000000E+00 -0.00000000000E+00 -0.67399793455E+03  0.67399793455E+03  0.00000000000E+00 0. -1.
         24    2    1    2    0    0  0.39913309194E+02 -0.48647647343E+02 -0.35136072356E+03  0.36632223571E+03  0.82328345505E+02 0.  0.
         23    2    1    2    0    0 -0.76671443894E+02  0.46039409392E+02 -0.54008723786E+02  0.13841278487E+03  0.90791074695E+02 0.  0.
        -11    1    3    3    0    0 -0.49424082221E+01 -0.56595924127E+02 -0.16626278512E+03  0.17570099529E+03  0.00000000000E+00 0.  1.
         12    1    3    3    0    0  0.44855717416E+02  0.79482767843E+01 -0.18509793844E+03  0.19062124043E+03  0.00000000000E+00 0. -1.
        -11    1    4    4    0    0 -0.29520070622E+02 -0.14342925721E+02  0.14272594348E+02  0.35789118977E+02  0.00000000000E+00 0. -1.
         11    1    4    4    0    0 -0.47151373272E+02  0.60382335113E+02 -0.68281318133E+02  0.10262366589E+03  0.00000000000E+00 0.  1.
         21    1    1    2  503  501  0.12234090234E+02  0.24805114504E+02 -0.22858595486E+02  0.35881500205E+02  0.00000000000E+00 0. -1.
          1    1    1    2  501    0  0.24524044467E+02 -0.22196876553E+02 -0.18813278538E+03  0.19101852010E+03  0.00000000000E+00 0. -1.
<scales pt_clust_5="13000.00000" pt_clust_6="13000.00000" pt_clust_7="13000.00000" pt_clust_8="13000.00000" pt_clust_9="27.65803" pt_clust_10="13000.00000"></scales>
<clustering>
<clus scale="   27.658">  1  9  2 -1</clus>
<clus scale="   82.328">  5  6 -1 -1</clus>
<clus scale="   90.791">  7  8 -1 -1</clus>
<clus scale="   32.872">  7 10 -1 -1</clus>
<clus scale="  102.683">  2  5  1 -1</clus>
<clus scale="   27.658">  1  5  2 -1</clus>
</clustering>
</event>
<event>
10    4  0.2759992E-005  0.1425575E+03  0.7546771E-02  0.1227350E+00
         21   -1    0    0  501  502  0.00000000000E+00  0.00000000000E+00  0.22356813572E+03  0.22356813572E+03  0.00000000000E+00 0. -1.
         -3   -1    0    0    0  501 -0.00000000000E+00 -0.00000000000E+00 -0.11962032047E+03  0.11962032047E+03  0.00000000000E+00 0.  1.
         24    2    1    2    0    0 -0.45829844997E+02 -0.56958279184E+02  0.33578040609E+02  0.11308833343E+03  0.79478714677E+02 0.  0.
         23    2    1    2    0    0 -0.22532924497E+02  0.17860144669E+02 -0.66626355868E+01  0.88336065333E+02  0.83259547630E+02 0.  0.
        -11    1    3    3    0    0 -0.41612529760E+02 -0.33349186484E+02 -0.17938167671E+02  0.56263209396E+02  0.00000000000E+00 0.  1.
         12    1    3    3    0    0 -0.42173152372E+01 -0.23609092700E+02  0.51516208279E+02  0.56825124033E+02  0.00000000000E+00 0. -1.
        -13    1    4    4    0    0 -0.52247947474E+02  0.20988080179E+02 -0.13011774005E+02  0.57789737736E+02  0.00000000000E+00 0.  1.
         13    1    4    4    0    0  0.29715022976E+02 -0.31279355100E+01  0.63491384184E+01  0.30546327597E+02  0.00000000000E+00 0. -1.
         21    1    1    2  503  502  0.24759290998E+02  0.14733284681E+02  0.86282480974E+02  0.90965700631E+02  0.00000000000E+00 0.  1.
         -4    1    1    2    0  503  0.43603478497E+02  0.24364849834E+02 -0.92500707454E+01  0.50798356797E+02  0.00000000000E+00 0.  1.
<scales pt_clust_5="13000.00000" pt_clust_6="13000.00000" pt_clust_7="13000.00000" pt_clust_8="13000.00000" pt_clust_9="28.81132" pt_clust_10="13000.00000"></scales>
<clustering>
<clus scale="   28.811">  1  9  2 -1</clus>
<clus scale="   79.479">  5  6 -1 -1</clus>
<clus scale="   83.260">  7  8 -1 -1</clus>
<clus scale="   54.383">  7 10 -1 -1</clus>
<clus scale="   98.799">  2  5  1 -1</clus>
<clus scale="   28.811">  1  5  2 -1</clus>
</clustering>
</event>
<event>
10    4  0.2759992E-005  0.1729772E+03  0.7546771E-02  0.1205940E+00
         21   -1    0    0  503  502  0.00000000000E+00  0.00000000000E+00  0.75170412965E+02  0.75170412965E+02  0.00000000000E+00 0. -1.
          2   -1    0    0  502    0 -0.00000000000E+00 -0.00000000000E+00 -0.51256341195E+03  0.51256341195E+03  0.00000000000E+00 0. -1.
         24    2    1    2    0    0  0.43238363416E+01  0.12575542929E+02 -0.11887186202E+02  0.83556763600E+02  0.81630801214E+02 0.  0.
         23    2    1    2    0    0  0.56384683197E+02 -0.54958607000E+02 -0.29278764045E+03  0.31938883748E+03  0.10042383244E+03 0.  0.
        -13    1    3    3    0    0 -0.29044713605E+02  0.31487900262E+02 -0.14204312414E+02  0.45131427436E+02  0.00000000000E+00 0.  1.
         14    1    3    3    0    0  0.33368549946E+02 -0.18912357333E+02  0.23171262117E+01  0.38425336164E+02  0.00000000000E+00 0. -1.
        -11    1    4    4    0    0  0.13402491009E+02 -0.73447287720E+02 -0.12898441136E+03  0.14903391967E+03  0.00000000000E+00 0. -1.
         11    1    4    4    0    0  0.42982192188E+02  0.18488680720E+02 -0.16380322909E+03  0.17035491781E+03  0.00000000000E+00 0.  1.
         21    1    1    2  503  501 -0.19235421734E+02  0.23445480330E+02  0.12334713324E+02  0.32738924080E+02  0.00000000000E+00 0. -1.
          1    1    1    2  501    0 -0.41473097805E+02  0.18937583742E+02 -0.14505288565E+03  0.15204929975E+03  0.00000000000E+00 0. -1.
<scales pt_clust_5="13000.00000" pt_clust_6="13000.00000" pt_clust_7="13000.00000" pt_clust_8="13000.00000" pt_clust_9="30.32642" pt_clust_10="13000.00000"></scales>
<clustering>
<clus scale="   30.326">  1  9  2 -1</clus>
<clus scale="   81.631">  5  6 -1 -1</clus>
<clus scale="   86.919">  2  5  1 -1</clus>
<clus scale="  100.424">  7  8 -1 -1</clus>
<clus scale="   55.268">  7 10 -1 -1</clus>
<clus scale="   30.326">  1  5  2 -1</clus>
</clustering>
</event>
<event>
10    4  0.2759992E-005  0.1648965E+03  0.7546771E-02  0.1205025E+00
          2   -1    0    0  502    0 -0.00000000000E+00  0.00000000000E+00  0.54067646303E+03  0.54067646303E+03  0.00000000000E+00 0. -1.
         21   -1    0    0  503  502  0.00000000000E+00 -0.00000000000E+00 -0.56345382785E+02  0.56345382785E+02  0.00000000000E+00 0.  1.
         24    2    1    2    0    0 -0.26078505082E+02  0.69510564001E+02  0.18149204341E+03  0.21134807013E+03  0.78846927581E+02 0.  0.
         23    2    1    2    0    0  0.13292176393E+02  0.24665176536E+02  0.93885159081E+02  0.13307119006E+03  0.90047019063E+02 0.  0.
        -13    1    3    3    0    0 -0.17022590559E+02 -0.13860160969E+02  0.58533106735E+02  0.62513976321E+02  0.00000000000E+00 0.  1.
         14    1    3    3    0    0 -0.90559145231E+01  0.83370724970E+02  0.12295893668E+03  0.14883409381E+03  0.00000000000E+00 0. -1.
        -13    1    4    4    0    0  0.36909937141E+02  0.38252857985E+02  0.91370356766E+02  0.10570793111E+03  0.00000000000E+00 0. -1.
         13    1    4    4    0    0 -0.23617760748E+02 -0.13587681448E+02  0.25148023152E+01  0.27363258954E+02  0.00000000000E+00 0.  1.
         21    1    1    2  503  501 -0.44424450133E+02 -0.55522749380E+02  0.86007272024E+02  0.11159551205E+03  0.00000000000E+00 0.  1.
          1    1    1    2  501    0  0.57210778822E+02 -0.38652991158E+02  0.12294660572E+03  0.14100707357E+03  0.00000000000E+00 0. -1.
<scales pt_clust_5="13000.00000" pt_clust_6="13000.00000" pt_clust_7="13000.00000" pt_clust_8="13000.00000" pt_clust_9="71.10772" pt_clust_10="13000.00000"></scales>
<clustering>
<clus scale="   71.108">  2  9  1 -1</clus>
<clus scale="   78.847">  5  6 -1 -1</clus>
<clus scale="   90.047">  7  8 -1 -1</clus>
<clus scale="   69.430">  7 10 -1 -1</clus>
<clus scale="  102.329">  1  5  2 -1</clus>
<clus scale="   71.108">  2  5  1 -1</clus>
</clustering>
</event>
<event>
10    4  0.2759992E-005  0.1642753E+03  0.7546771E-02  0.1197892E+00
          2   -1    0    0  503    0 -0.00000000000E+00  0.00000000000E+00  0.62897467828E+02  0.62897467828E+02  0.00000000000E+00 0. -1.
         21   -1    0    0  501  502  0.00000000000E+00 -0.00000000000E+00 -0.10054128043E+04  0.10054128043E+04  0.00000000000E+00 0.  1.
         24    2    1    2    0    0 -0.51486887326E+02  0.75861533847E+02 -0.15409969123E+02  0.12253283051E+03  0.79818265578E+02 0.  0.
         23    2    1    2    0    0  0.33685866073E+02 -0.15621180672E+02 -0.40786096049E+03  0.41886634254E+03  0.87861771912E+02 0.  0.
        -11    1    3    3    0    0 -0.53885062266E+02  0.81836240421E+02  0.79465772452E+01  0.98305230133E+02  0.00000000000E+00 0.  1.
         12    1    3    3    0    0  0.23981749400E+01 -0.59747065737E+01 -0.23356546369E+02  0.24227600376E+02  0.00000000000E+00 0. -1.
        -11    1    4    4    0    0  0.59457753389E+02 -0.27206071694E+02 -0.24514895396E+03  0.25371914474E+03  0.00000000000E+00 0. -1.
         11    1    4    4    0    0 -0.25771887316E+02  0.11584891021E+02 -0.16271200652E+03  0.16514719780E+03  0.00000000000E+00 0.  1.
         21    1    1    2  503  502  0.26082771824E+02  0.23828416057E+01 -0.16859959111E+03  0.17062183636E+03  0.00000000000E+00 0.  1.
          1    1    1    2  501    0 -0.82817505711E+01 -0.62623194780E+02 -0.35064481575E+03  0.35628926272E+03  0.00000000000E+00 0. -1.
<scales pt_clust_5="13000.00000" pt_clust_6="13000.00000" pt_clust_7="13000.00000" pt_clust_8="13000.00000" pt_clust_9="26.19139" pt_clust_10="13000.00000"></scales>
<clustering>
<clus scale="   26.191">  2  9  1 -1</clus>
<clus scale="   79.818">  5  6 -1 -1</clus>
<clus scale="   87.862">  7  8 -1 -1</clus>
<clus scale="   61.677">  7 10 -1 -1</clus>
<clus scale="  120.788">  1  5  2 -1</clus>
<clus scale="   26.191">  2  5  1 -1</clus>
</clustering>
</event>
<event>
10    4  0.2759992E-005  0.9544338E+03  0.7546771E-02  0.9674556E-01
         21   -1    0    0  503  502  0.00000000000E+00  0.00000000000E+00  0.30970190314E+03  0.30970190314E+03  0.00000000000E+00 0. -1.
          2   -1    0    0  502    0 -0.00000000000E+00 -0.00000000000E+00 -0.21260005367E+04  0.21260005367E+04  0.00000000000E+00 0. -1.
         24    2    1    2    0    0  0.68543667857E+02 -0.27822685564E+03 -0.11651662655E+03  0.31990400446E+03  0.81572239181E+02 0.  0.
         23    2    1    2    0    0  0.16003719391E+03  0.46229997262E+03 -0.16289282168E+04  0.17033175273E+04  0.92467807521E+02 0.  0.
        -11    1    3    3    0    0  0.75994491484E+00 -0.11390914638E+03 -0.77919582507E+02  0.13801207369E+03  0.00000000000E+00 0.  1.
         12    1    3    3    0    0  0.67783722942E+02 -0.16431770925E+03 -0.38597044048E+02  0.18189193077E+03  0.00000000000E+00 0. -1.
        -13    1    4    4    0    0  0.79242454888E+02  0.11853512932E+03 -0.39965333756E+03  0.42432621150E+03  0.00000000000E+00 0.  1.
         13    1    4    4    0    0  0.80794739024E+02  0.34376484329E+03 -0.12292748792E+04  0.12789913158E+04  0.00000000000E+00 0. -1.
         21    1    1    2  503  501  0.16875023565E+02 -0.44571785754E+02  0.79441091811E+02  0.92640690702E+02  0.00000000000E+00 0. -1.
          1    1    1    2  501    0 -0.24545588533E+03 -0.13950133123E+03 -0.15029488205E+03  0.31984021734E+03  0.00000000000E+00 0. -1.
<scales pt_clust_5="13000.00000" pt_clust_6="13000.00000" pt_clust_7="13000.00000" pt_clust_8="13000.00000" pt_clust_9="47.65932" pt_clust_10="13000.00000"></scales>
<clustering>
<clus scale="   47.659">  1  9  2 -1</clus>
<clus scale="   81.572">  5  6 -1 -1</clus>
<clus scale="   92.468">  7  8 -1 -1</clus>
<clus scale="  285.673">  7 10 -1 -1</clus>
<clus scale="  318.686">  2  5  1 -1</clus>
<clus scale="   47.659">  1  5  2 -1</clus>
</clustering>
</event>
<event>
10    4  0.3713088E-005  0.8447902E+03  0.7546771E-02  0.9642417E-01
          2   -1    0    0  503    0 -0.00000000000E+00  0.00000000000E+00  0.46114333629E+03  0.46114333629E+03  0.00000000000E+00 0. -1.
         21   -1    0    0  501  502  0.00000000000E+00 -0.00000000000E+00 -0.11424457424E+04  0.11424457424E+04  0.00000000000E+00 0. -1.
         24    2    1    2    0    0  0.47443320882E+03 -0.15968572848E+03 -0.24489497338E+02  0.50902795600E+03  0.89013049635E+02 0.  0.
         23    2    1    2    0    0  0.15113437009E+03  0.19932290810E+02 -0.52764331145E+02  0.18584549399E+03  0.92279894651E+02 0.  0.
        -13    1    3    3    0    0  0.13509831534E+03 -0.54785401159E+02  0.32348060547E+02  0.14932980951E+03  0.00000000000E+00 0.  1.
         14    1    3    3    0    0  0.33933489348E+03 -0.10490032732E+03 -0.56837557885E+02  0.35969814649E+03  0.00000000000E+00 0. -1.
        -11    1    4    4    0    0  0.12175838112E+03  0.31338555606E+02 -0.15781567036E+01  0.12573662561E+03  0.00000000000E+00 0.  1.
         11    1    4    4    0    0  0.29375988966E+02 -0.11406264796E+02 -0.51186174441E+02  0.60108868383E+02  0.00000000000E+00 0. -1.
         21    1    1    2  503  502  0.10736011905E+02 -0.20099189401E+02 -0.21729750883E+02  0.31486845501E+02  0.00000000000E+00 0. -1.
          1    1    1    2  501    0 -0.63630359081E+03  0.15985262707E+03 -0.58231882671E+03  0.87722878315E+03  0.00000000000E+00 0. -1.
<scales pt_clust_5="13000.00000" pt_clust_6="13000.00000" pt_clust_7="13000.00000" pt_clust_8="13000.00000" pt_clust_9="22.78682" pt_clust_10="13000.00000"></scales>
<clustering>
<clus scale="   22.787">  2  9  1 -1</clus>
<clus scale="   89.013">  5  6 -1 -1</clus>
<clus scale="   92.280">  7  8 -1 -1</clus>
<clus scale="  512.357">  1  5  2 -1</clus>
<clus scale="  308.699">  7 10 -1 -1</clus>
<clus scale="   22.787">  2  5  1 -1</clus>
</clustering>
</event>
<event>
10    4  0.2759992E-005  0.6458479E+03  0.7546771E-02  0.1032676E+00
          2   -1    0    0  502    0 -0.00000000000E+00  0.00000000000E+00  0.21638841678E+04  0.21638841678E+04  0.00000000000E+00 0. -1.
         21   -1    0    0  503  502  0.00000000000E+00 -0.00000000000E+00 -0.86460785121E+02  0.86460785121E+02  0.00000000000E+00 0. -1.
         24    2    1    2    0    0 -0.93845722886E+02  0.34426102018E+02  0.40369325601E+03  0.42413023447E+03  0.83222801223E+02 0.  0.
         23    2    1    2    0    0  0.29470178510E+03 -0.19970770041E+03  0.75329556768E+03  0.83820272329E+03  0.91636702779E+02 0.  0.
        -11    1    3    3    0    0 -0.84790945549E+02 -0.30951200914E+01  0.33240931469E+03  0.34306710234E+03  0.00000000000E+00 0.  1.
         12    1    3    3    0    0 -0.90547773377E+01  0.37521222110E+02  0.71283941312E+02  0.81063132127E+02  0.00000000000E+00 0. -1.
        -13    1    4    4    0    0  0.26691638345E+03 -0.20731393336E+03  0.70786934056E+03  0.78441215315E+03  0.00000000000E+00 0. -1.
         13    1    4    4    0    0  0.27785401653E+02  0.76062329447E+01  0.45426227121E+02  0.53790570131E+02  0.00000000000E+00 0.  1.
         21    1    1    2  503  501 -0.20619434693E+02 -0.22862313199E+02 -0.64266776614E+00  0.30793822006E+02  0.00000000000E+00 0. -1.
          1    1    1    2  501    0 -0.18023662752E+03  0.18814391159E+03  0.92107722681E+03  0.95721817321E+03  0.00000000000E+00 0. -1.
<scales pt_clust_5="13000.00000" pt_clust_6="13000.00000" pt_clust_7="13000.00000" pt_clust_8="13000.00000" pt_clust_9="30.78712" pt_clust_10="13000.00000"></scales>
<clustering>
<clus scale="   30.787">  2  9  1 -1</clus>
<clus scale="   83.223">  5  6 -1 -1</clus>
<clus scale="   91.637">  7  8 -1 -1</clus>
<clus scale="  131.414">  1  5  2 -1</clus>
<clus scale="  310.352">  7 10 -1 -1</clus>
<clus scale="   30.787">  2  5  1 -1</clus>
</clustering>
</event>
<event>
10    4  0.2759992E-005  0.1970540E+03  0.7546771E-02  0.1166400E+00
          2   -1    0    0  503    0 -0.00000000000E+00  0.00000000000E+00  0.26470015215E+03  0.26470015215E+03  0.00000000000E+00 0. -1.
         21   -1    0    0  501  502  0.00000000000E+00 -0.00000000000E+00 -0.49218459824E+03  0.49218459824E+03  0.00000000000E+00 0.  1.
         24    2    1    2    0    0  0.55266147037E+02  0.12450879593E+03 -0.36849633093E+03  0.40099892567E+03  0.80335578729E+02 0.  0.
         23    2    1    2    0    0 -0.14078426186E+02 -0.99105294659E+01  0.90229578364E+02  0.13022153409E+03  0.92303035974E+02 0.  0.
        -11    1    3    3    0    0  0.62689010739E+02  0.13290056467E+03 -0.34237398028E+03  0.37257538101E+03  0.00000000000E+00 0.  1.
         12    1    3    3    0    0 -0.74228637023E+01 -0.83917687392E+01 -0.26122350647E+02  0.28423544667E+02  0.00000000000E+00 0. -1.
        -13    1    4    4    0    0 -0.46725179867E+02 -0.88415218061E+00  0.17340809975E+02  0.49847044539E+02  0.00000000000E+00 0.  1.
         13    1    4    4    0    0  0.32646753681E+02 -0.90263772853E+01  0.72888768389E+02  0.80374489548E+02  0.00000000000E+00 0. -1.
         21    1    1    2  503  502 -0.20371968724E+02 -0.15128812989E+02 -0.66086581533E+02  0.70790778714E+02  0.00000000000E+00 0.  1.
          1    1    1    2  501    0 -0.20815752126E+02 -0.99469453476E+02  0.11686888801E+03  0.15487351192E+03  0.00000000000E+00 0. -1.
<scales pt_clust_5="13000.00000" pt_clust_6="13000.00000" pt_clust_7="13000.00000" pt_clust_8="13000.00000" pt_clust_9="25.37515" pt_clust_10="13000.00000"></scales>
<clustering>
<clus scale="   25.375">  2  9  1 -1</clus>
<clus scale="   80.336">  5  6 -1 -1</clus>
<clus scale="   92.303">  7  8 -1 -1</clus>
<clus scale="  102.478">  7 10 -1 -1</clus>
<clus scale="  141.691">  1  5  2 -1</clus>
<clus scale="   25.375">  2  5  1 -1</clus>
</clustering>
</event>
<event>
10    4  0.2816008E-005  0.3158665E+03  0.7546771E-02  0.1109975E+00
         21   -1    0    0  503  502  0.00000000000E+00  0.00000000000E+00  0.66239547091E+03  0.66239547091E+03  0.00000000000E+00 0. -1.
          2   -1    0    0  502    0 -0.00000000000E+00 -0.00000000000E+00 -0.48931428816E+03  0.48931428816E+03  0.00000000000E+00 0. -1.
         24    2    1    2    0    0  0.30275652740E+02 -0.10132319758E+03 -0.99862360598E+02  0.16783050465E+03  0.83735187993E+02 0.  0.
         23    2    1    2    0    0  0.35620729895E+02 -0.12000462408E+03 -0.11958423476E+03  0.19417926448E+03  0.87950277729E+02 0.  0.
        -11    1    3    3    0    0  0.32409772464E+02  0.97718711911E+00 -0.27354925558E+02  0.42422166354E+02  0.00000000000E+00 0.  1.
         12    1    3    3    0    0 -0.21341197242E+01 -0.10230038470E+03 -0.72507435040E+02  0.12540833829E+03  0.00000000000E+00 0. -1.
        -13    1    4    4    0    0 -0.23233227003E+02 -0.60808071111E+02 -0.29821204820E+02  0.71601037745E+02  0.00000000000E+00 0.  1.
         13    1    4    4    0    0  0.58853956898E+02 -0.59196552970E+02 -0.89763029939E+02  0.12257822674E+03  0.00000000000E+00 0. -1.
         21    1    1    2  503  501  0.31991453241E+02  0.23694920382E+03  0.55221053584E+03  0.60175148872E+03  0.00000000000E+00 0. -1.
          1    1    1    2  501    0 -0.97887835876E+02 -0.15621382160E+02 -0.15968275774E+03  0.18794850122E+03  0.00000000000E+00 0. -1.
<scales pt_clust_5="13000.00000" pt_clust_6="13000.00000" pt_clust_7="13000.00000" pt_clust_8="13000.00000" pt_clust_9="232.40407" pt_clust_10="13000.00000"></scales>
<clustering>
<clus scale="   83.735">  5  6 -1 -1</clus>
<clus scale="   87.950">  7  8 -1 -1</clus>
<clus scale="   99.127">  7 10 -1 -1</clus>
<clus scale="  134.887">  2  5  1 -1</clus>
<clus scale="  232.404">  1  9  2 -1</clus>
<clus scale="  232.404">  1  5  2 -1</clus>
</clustering>
</event>
<event>
10    4  0.2759992E-005  0.6110404E+03  0.7546771E-02  0.1044566E+00
          2   -1    0    0  502    0 -0.00000000000E+00  0.00000000000E+00  0.31031911580E+03  0.31031911580E+03  0.00000000000E+00 0. -1.
         21   -1    0    0  503  502  0.00000000000E+00 -0.00000000000E+00 -0.47828678268E+03  0.47828678268E+03  0.00000000000E+00 0. -1.
         24    2    1    2    0    0 -0.16593345823E+02 -0.69244057027E+02 -0.91259085470E+02  0.14121753299E+03  0.80895564678E+02 0.  0.
         23    2    1    2    0    0 -0.22909024574E+03 -0.61758275683E+02 -0.18779000033E+03  0.31571041061E+03  0.90064165115E+02 0.  0.
        -13    1    3    3    0    0  0.84300671228E+01 -0.72876799981E+02 -0.38820102358E+02  0.83000568397E+02  0.00000000000E+00 0.  1.
         14    1    3    3    0    0 -0.25023412946E+02  0.36327429542E+01 -0.52438983113E+02  0.58216964596E+02  0.00000000000E+00 0. -1.
        -11    1    4    4    0    0 -0.12629291968E+03 -0.26347644644E+02 -0.15599473844E+03  0.20243136704E+03  0.00000000000E+00 0.  1.
         11    1    4    4    0    0 -0.10279732605E+03 -0.35410631040E+02 -0.31795261893E+02  0.11327904358E+03  0.00000000000E+00 0. -1.
         21    1    1    2  503  501  0.20052096188E+02 -0.15356324309E+02 -0.20258640896E+02  0.32377705119E+02  0.00000000000E+00 0.  1.
          1    1    1    2  501    0  0.22563149537E+03  0.14635865702E+03  0.13134005982E+03  0.29930024975E+03  0.00000000000E+00 0. -1.
<scales pt_clust_5="13000.00000" pt_clust_6="13000.00000" pt_clust_7="13000.00000" pt_clust_8="13000.00000" pt_clust_9="25.25675" pt_clust_10="13000.00000"></scales>
<clustering>
<clus scale="   25.257">  2  9  1 -1</clus>
<clus scale="   80.896">  5  6 -1 -1</clus>
<clus scale="   90.064">  7  8 -1 -1</clus>
<clus scale="  109.691">  1  5  2 -1</clus>
<clus scale="  236.995">  7 10 -1 -1</clus>
<clus scale="   25.257">  2  5  1 -1</clus>
</clustering>
</event>
<event>
10    4  0.2759992E-005  0.2589530E+03  0.7546771E-02  0.1140063E+00
         21   -1    0    0  503  502  0.00000000000E+00  0.00000000000E+00  0.19057959329E+03  0.19057959329E+03  0.00000000000E+00 0. -1.
          4   -1    0    0  502    0 -0.00000000000E+00 -0.00000000000E+00 -0.21562943537E+03  0.21562943537E+03  0.00000000000E+00 0. -1.
         24    2    1    2    0    0  0.42302948539E+02  0.80388191981E+02 -0.27921494924E+01  0.12066364197E+03  0.79373279699E+02 0.  0.
         23    2    1    2    0    0 -0.23894793278E+02  0.27619541265E+02  0.66286221565E+02  0.11632675867E+03  0.88341674245E+02 0.  0.
        -11    1    3    3    0    0  0.28210224996E+02  0.15066812055E+02 -0.34202260318E+02  0.46825422910E+02  0.00000000000E+00 0.  1.
         12    1    3    3    0    0  0.14092723543E+02  0.65321379926E+02  0.31410110825E+02  0.73838219063E+02  0.00000000000E+00 0. -1.
        -11    1    4    4    0    0 -0.16440737239E+02 -0.20456900957E+02  0.62193337878E+02  0.67504028873E+02  0.00000000000E+00 0. -1.
         11    1    4    4    0    0 -0.74540560391E+01  0.48076442222E+02  0.40928836876E+01  0.48822729800E+02  0.00000000000E+00 0.  1.
         21    1    1    2  503  501 -0.23160224413E+02 -0.83245752457E+01  0.12152212338E+02  0.27447601217E+02  0.00000000000E+00 0. -1.
          3    1    1    2  501    0  0.47520691525E+01 -0.99683158000E+02 -0.10069612649E+03  0.14177102680E+03  0.00000000000E+00 0. -1.
<scales pt_clust_5="13000.00000" pt_clust_6="13000.00000" pt_clust_7="13000.00000" pt_clust_8="13000.00000" pt_clust_9="24.61086" pt_clust_10="13000.00000"></scales>
<clustering>
<clus scale="   24.611">  1  9  2 -1</clus>
<clus scale="   79.373">  5  6 -1 -1</clus>
<clus scale="   88.342">  7  8 -1 -1</clus>
<clus scale="  100.704">  7 10 -1 -1</clus>
<clus scale="  116.129">  2  5  1 -1</clus>
<clus scale="   24.611">  1  5  2 -1</clus>
</clustering>
</event>
<event>
10    4  0.2759992E-005  0.4060151E+03  0.7546771E-02  0.1096568E+00
          2   -1    0    0  503    0 -0.00000000000E+00  0.00000000000E+00  0.15268575292E+04  0.15268575292E+04  0.00000000000E+00 0. -1.
         21   -1    0    0  501  502  0.00000000000E+00 -0.00000000000E+00 -0.61591644026E+03  0.61591644026E+03  0.00000000000E+00 0. -1.
         24    2    1    2    0    0 -0.33854571844E+02  0.11709303745E+02  0.14100704745E+04  0.14129237250E+04  0.82288940980E+02 0.  0.
         23    2    1    2    0    0 -0.45393309117E+02 -0.25645796415E+02  0.49946270705E+02  0.11609604105E+03  0.90914253028E+02 0.  0.
        -13    1    3    3    0    0 -0.11310173058E+02  0.18842479742E+02  0.90097857565E+02  0.92739328201E+02  0.00000000000E+00 0.  1.
         14    1    3    3    0    0 -0.22544398787E+02 -0.71331759971E+01  0.13199726169E+04  0.13201843968E+04  0.00000000000E+00 0. -1.
        -13    1    4    4    0    0 -0.62146520319E+02 -0.37478524821E+02  0.12842316563E+02  0.73700440333E+02  0.00000000000E+00 0. -1.
         13    1    4    4    0    0  0.16753211203E+02  0.11832728406E+02  0.37103954142E+02  0.42395600716E+02  0.00000000000E+00 0.  1.
         21    1    1    2  503  502 -0.70197499919E+02 -0.72893762801E+02 -0.19137757481E+03  0.21648687210E+03  0.00000000000E+00 0. -1.
          1    1    1    2  501    0  0.14944538088E+03  0.86830255471E+02 -0.35769808140E+03  0.39726733136E+03  0.00000000000E+00 0. -1.
<scales pt_clust_5="13000.00000" pt_clust_6="13000.00000" pt_clust_7="13000.00000" pt_clust_8="13000.00000" pt_clust_9="102.89741" pt_clust_10="13000.00000"></scales>
<clustering>
<clus scale="   82.289">  5  6 -1 -1</clus>
<clus scale="   89.748">  1  5  2 -1</clus>
<clus scale="   90.914">  7  8 -1 -1</clus>
<clus scale="  102.897">  2  9  1 -1</clus>
<clus scale="   81.667">  7 10 -1 -1</clus>
<clus scale="  102.897">  2  5  1 -1</clus>
</clustering>
</event>
<event>
10    4  0.2759992E-005  0.4530086E+03  0.7546771E-02  0.1048139E+00
         -1   -1    0    0    0  501 -0.00000000000E+00  0.00000000000E+00  0.74823443758E+03  0.74823443758E+03  0.00000000000E+00 0.  1.
         21   -1    0    0  501  502  0.00000000000E+00 -0.00000000000E+00 -0.23426448178E+03  0.23426448178E+03  0.00000000000E+00 0.  1.
         24    2    1    2    0    0 -0.46211367336E+02 -0.23537895655E+03  0.57948494986E+02  0.25955791890E+03  0.80458321748E+02 0.  0.
         23    2    1    2    0    0 -0.14905319788E+03  0.73062223462E+02  0.13174149303E+03  0.22847725052E+03  0.85387872231E+02 0.  0.
        -11    1    3    3    0    0 -0.56742784561E+02 -0.21112259041E+03  0.29298619390E+02  0.22056949218E+03  0.00000000000E+00 0.  1.
         12    1    3    3    0    0  0.10531417225E+02 -0.24256366136E+02  0.28649875596E+02  0.38988426726E+02  0.00000000000E+00 0. -1.
        -13    1    4    4    0    0 -0.97368281977E+02  0.35379662345E+02  0.12762871304E+03  0.16438184582E+03  0.00000000000E+00 0. -1.
         13    1    4    4    0    0 -0.51684915903E+02  0.37682561117E+02  0.41127799858E+01  0.64095404698E+02  0.00000000000E+00 0.  1.
         21    1    1    2  503  502 -0.71818762001E+01  0.21661054524E+02 -0.45004472952E+02  0.50459718732E+02  0.00000000000E+00 0.  1.
         -2    1    1    2    0  503  0.20244644142E+03  0.14065567856E+03  0.36928444074E+03  0.44400403120E+03  0.00000000000E+00 0.  1.
<scales pt_clust_5="13000.00000" pt_clust_6="13000.00000" pt_clust_7="13000.00000" pt_clust_8="13000.00000" pt_clust_9="22.82062" pt_clust_10="13000.00000"></scales>
<clustering>
<clus scale="   22.821">  2  9  1 -1</clus>
<clus scale="   80.458">  5  6 -1 -1</clus>
<clus scale="   85.388">  7  8 -1 -1</clus>
<clus scale="  242.925">  1  5  2 -1</clus>
<clus scale="  166.857">  7 10 -1 -1</clus>
<clus scale="   22.821">  2  5  1 -1</clus>
</clustering>
</event>
<event>
10    4  0.2759992E-005  0.2776658E+03  0.7546771E-02  0.1140160E+00
         -1   -1    0    0    0  501 -0.00000000000E+00  0.00000000000E+00  0.27024754047E+03  0.27024754047E+03  0.00000000000E+00 0.  1.
         21   -1    0    0  501  502  0.00000000000E+00 -0.00000000000E+00 -0.20530958054E+03  0.20530958054E+03  0.00000000000E+00 0. -1.
         24    2    1    2    0    0  0.33421507525E+02 -0.17946680060E+02 -0.87095230601E+02  0.12485740526E+03  0.81022910114E+02 0.  0.
         23    2    1    2    0    0 -0.21134286999E+02 -0.49061007487E+02 -0.37243447118E+02  0.11198257311E+03  0.91100942828E+02 0.  0.
        -13    1    3    3    0    0  0.57906332149E+02 -0.21837247528E+02 -0.46978118584E+02  0.77697826921E+02  0.00000000000E+00 0.  1.
         14    1    3    3    0    0 -0.24484824624E+02  0.38905674682E+01 -0.40117112018E+02  0.47159578335E+02  0.00000000000E+00 0. -1.
        -11    1    4    4    0    0 -0.10527602634E+02 -0.74057815990E+02 -0.13707021543E+02  0.76047833407E+02  0.00000000000E+00 0. -1.
         11    1    4    4    0    0 -0.10606684366E+02  0.24996808503E+02 -0.23536425575E+02  0.35934739701E+02  0.00000000000E+00 0.  1.
         21    1    1    2  503  502  0.22100989958E+02  0.10053144503E+02 -0.11745218781E+02  0.26971645032E+02  0.00000000000E+00 0.  1.
         -2    1    1    2    0  503 -0.34388210484E+02  0.56954543044E+02  0.20102185643E+03  0.21174549761E+03  0.00000000000E+00 0.  1.
<scales pt_clust_5="13000.00000" pt_clust_6="13000.00000" pt_clust_7="13000.00000" pt_clust_8="13000.00000" pt_clust_9="24.28002" pt_clust_10="13000.00000"></scales>
<clustering>
<clus scale="   24.280">  2  9  1 -1</clus>
<clus scale="   81.023">  5  6 -1 -1</clus>
<clus scale="   91.101">  7  8 -1 -1</clus>
<clus scale="   66.453">  7 10 -1 -1</clus>
<clus scale="   93.976">  1  5  2 -1</clus>
<clus scale="   24.280">  2  5  1 -1</clus>
</clustering>
</event>
<event>
10    4  0.2759992E-005  0.2122935E+03  0.7546771E-02  0.1174748E+00
         21   -1    0    0  501  502  0.00000000000E+00  0.00000000000E+00  0.80612495667E+02  0.80612495667E+02  0.00000000000E+00 0. -1.
          2   -1    0    0  503    0 -0.00000000000E+00 -0.00000000000E+00 -0.53498487862E+03  0.53498487862E+03  0.00000000000E+00 0. -1.
         24    2    1    2    0    0 -0.34103135850E+02  0.27265914124E+02 -0.19992718396E+03  0.21856417747E+03  0.76765661863E+02 0.  0.
         23    2    1    2    0    0 -0.16458361712E+02 -0.45341124737E+02 -0.31030692896E+02  0.11064761726E+03  0.94621858154E+02 0.  0.
        -11    1    3    3    0    0  0.16536695084E+02  0.19725587148E+02 -0.23485000190E+02  0.34844028276E+02  0.00000000000E+00 0.  1.
         12    1    3    3    0    0 -0.50639830934E+02  0.75403269757E+01 -0.17644218377E+03  0.18372014920E+03  0.00000000000E+00 0. -1.
        -11    1    4    4    0    0 -0.27458866612E+00  0.28081309781E+02  0.27608358693E+01  0.28218036300E+02  0.00000000000E+00 0.  1.
         11    1    4    4    0    0 -0.16183773046E+02 -0.73422434517E+02 -0.33791528765E+02  0.82429580957E+02  0.00000000000E+00 0. -1.
         21    1    1    2  503  502 -0.31735595278E+02  0.61297913371E+02 -0.37566504379E+02  0.78586413855E+02  0.00000000000E+00 0. -1.
          1    1    1    2  501    0  0.82297092840E+02 -0.43222702758E+02 -0.18584800172E+03  0.20779916570E+03  0.00000000000E+00 0. -1.
<scales pt_clust_5="13000.00000" pt_clust_6="13000.00000" pt_clust_7="13000.00000" pt_clust_8="13000.00000" pt_clust_9="69.02595" pt_clust_10="13000.00000"></scales>
<clustering>
<clus scale="   69.026">  1  9  2 -1</clus>
<clus scale="   76.766">  5  6 -1 -1</clus>
<clus scale="   93.637">  2  5  1 -1</clus>
<clus scale="   94.622">  7  8 -1 -1</clus>
<clus scale="   55.187">  7 10 -1 -1</clus>
<clus scale="   69.026">  1  5  2 -1</clus>
</clustering>
</event>
<event>
10    4  0.2759992E-005  0.4858992E+03  0.7546771E-02  0.1079274E+00
          2   -1    0    0  503    0 -0.00000000000E+00  0.00000000000E+00  0.50860139235E+03  0.50860139235E+03  0.00000000000E+00 0. -1.
         21   -1    0    0  501  502  0.00000000000E+00 -0.00000000000E+00 -0.27210703047E+03  0.27210703047E+03  0.00000000000E+00 0.  1.
         24    2    1    2    0    0 -0.72186347814E+02  0.26079807862E+01 -0.39744409286E+02  0.11134231934E+03  0.74831969321E+02 0.  0.
         23    2    1    2    0    0 -0.11858125303E+03 -0.10808960232E+03 -0.55932001194E+02  0.19342366352E+03  0.92409139968E+02 0.  0.
        -13    1    3    3    0    0 -0.69626112543E+02  0.23737106962E+02 -0.92292348560E+01  0.74137875413E+02  0.00000000000E+00 0.  1.
         14    1    3    3    0    0 -0.25602352716E+01 -0.21129126175E+02 -0.30515174430E+02  0.37204443929E+02  0.00000000000E+00 0. -1.
        -13    1    4    4    0    0 -0.11315214245E+03 -0.87260039898E+02 -0.10651366036E+02  0.14328703187E+03  0.00000000000E+00 0. -1.
         13    1    4    4    0    0 -0.54291105824E+01 -0.20829562425E+02 -0.45280635158E+02  0.50136631646E+02  0.00000000000E+00 0.  1.
         21    1    1    2  503  502  0.10365201786E+03 -0.25926509662E+01 -0.12436385917E+02  0.10442761292E+03  0.00000000000E+00 0.  1.
          1    1    1    2  501    0  0.87115582988E+02  0.10807427250E+03  0.34460715828E+03  0.37151482704E+03  0.00000000000E+00 0. -1.
<scales pt_clust_5="13000.00000" pt_clust_6="13000.00000" pt_clust_7="13000.00000" pt_clust_8="13000.00000" pt_clust_9="103.68444" pt_clust_10="13000.00000"></scales>
<clustering>
<clus scale="   74.832">  5  6 -1 -1</clus>
<clus scale="   92.409">  7  8 -1 -1</clus>
<clus scale="  103.684">  2  9  1 -1</clus>
<clus scale="   82.860">  1  5  2 -1</clus>
<clus scale="  126.876">  7 10 -1 -1</clus>
<clus scale="  103.684">  2  5  1 -1</clus>
</clustering>
</event>
<event>
10    4  0.2759992E-005  0.3074806E+03  0.7546771E-02  0.1126475E+00
         21   -1    0    0  501  502  0.00000000000E+00  0.00000000000E+00  0.54508810841E+03  0.54508810841E+03  0.00000000000E+00 0. -1.
          2   -1    0    0  503    0 -0.00000000000E+00 -0.00000000000E+00 -0.27483116742E+03  0.27483116742E+03  0.00000000000E+00 0. -1.
         24    2    1    2    0    0  0.87838416479E+01 -0.52535996743E+02  0.10115211004E+03  0.13990758044E+03  0.80654788259E+02 0.  0.
         23    2    1    2    0    0 -0.10267698202E+02 -0.31967622648E+02  0.15483370741E+02  0.10130486297E+03  0.94316414092E+02 0.  0.
        -11    1    3    3    0    0  0.28452344193E+01 -0.73002509678E+02  0.64234694046E+02  0.97280818753E+02  0.00000000000E+00 0.  1.
         12    1    3    3    0    0  0.59386072286E+01  0.20466512935E+02  0.36917415998E+02  0.42626761682E+02  0.00000000000E+00 0. -1.
        -11    1    4    4    0    0  0.13860348972E+02 -0.38477521032E+02 -0.29100678053E+02  0.50194405679E+02  0.00000000000E+00 0.  1.
         11    1    4    4    0    0 -0.24128047174E+02  0.65098983844E+01  0.44584048793E+02  0.51110457288E+02  0.00000000000E+00 0. -1.
         21    1    1    2  503  502  0.89978664101E+02 -0.10466414803E+03  0.29555644296E+03  0.32619680387E+03  0.00000000000E+00 0. -1.
          1    1    1    2  501    0 -0.88494807547E+02  0.18916776742E+03 -0.14193498276E+03  0.25251002856E+03  0.00000000000E+00 0. -1.
<scales pt_clust_5="13000.00000" pt_clust_6="13000.00000" pt_clust_7="13000.00000" pt_clust_8="13000.00000" pt_clust_9="140.76676" pt_clust_10="13000.00000"></scales>
<clustering>
<clus scale="   80.655">  5  6 -1 -1</clus>
<clus scale="   94.316">  7  8 -1 -1</clus>
<clus scale="   96.656">  2  5  1 -1</clus>
<clus scale="  140.767">  1  9  2 -1</clus>
<clus scale="   95.643">  7 10 -1 -1</clus>
<clus scale="  140.767">  1  5  2 -1</clus>
</clustering>
</event>
<event>
10    4  0.2759992E-005  0.2693615E+03  0.7546771E-02  0.1146024E+00
         21   -1    0    0  501  502  0.00000000000E+00  0.00000000000E+00  0.88831962053E+02  0.88831962053E+02  0.00000000000E+00 0. -1.
          2   -1    0    0  503    0 -0.00000000000E+00 -0.00000000000E+00 -0.18885472829E+04  0.18885472829E+04  0.00000000000E+00 0. -1.
         24    2    1    2    0    0  0.13503140936E+02 -0.36699659580E+02 -0.78787887018E+03  0.79293806218E+03  0.80426715378E+02 0.  0.
         23    2    1    2    0    0  0.47610659711E+02  0.62390114511E+01 -0.16356425473E+03  0.19296762966E+03  0.90429754445E+02 0.  0.
        -13    1    3    3    0    0 -0.21794421444E+02 -0.30002625086E+01 -0.69396146232E+02  0.72799886628E+02  0.00000000000E+00 0.  1.
         14    1    3    3    0    0  0.35297562381E+02 -0.33699397071E+02 -0.71848272395E+03  0.72013817555E+03  0.00000000000E+00 0. -1.
        -11    1    4    4    0    0 -0.66996187714E+01  0.35493419967E+02 -0.34644740844E+02  0.50049233968E+02  0.00000000000E+00 0.  1.
         11    1    4    4    0    0  0.54310278483E+02 -0.29254408516E+02 -0.12891951388E+03  0.14291839569E+03  0.00000000000E+00 0. -1.
         21    1    1    2  503  502 -0.35265178182E+02 -0.83086307829E+02  0.37746075745E+02  0.97835236878E+02  0.00000000000E+00 0. -1.
          1    1    1    2  501    0 -0.25848622466E+02  0.11354695596E+03 -0.88601827164E+03  0.89363831619E+03  0.00000000000E+00 0. -1.
<scales pt_clust_5="13000.00000" pt_clust_6="13000.00000" pt_clust_7="13000.00000" pt_clust_8="13000.00000" pt_clust_9="91.04343" pt_clust_10="13000.00000"></scales>
<clustering>
<clus scale="   80.427">  5  6 -1 -1</clus>
<clus scale="   89.430">  2  5  1 -1</clus>
<clus scale="   90.430">  7  8 -1 -1</clus>
<clus scale="   85.124">  7 10 -1 -1</clus>
<clus scale="   91.043">  1  9  2 -1</clus>
<clus scale="   91.043">  1  5  2 -1</clus>
</clustering>
</event>
<event>
10    4  0.2759992E-005  0.1244341E+03  0.7546771E-02  0.1245399E+00
          2   -1    0    0  502    0 -0.00000000000E+00  0.00000000000E+00  0.10278132351E+04  0.10278132351E+04  0.00000000000E+00 0. -1.
         21   -1    0    0  503  502  0.00000000000E+00 -0.00000000000E+00 -0.78351234858E+02  0.78351234858E+02  0.00000000000E+00 0. -1.
         24    2    1    2    0    0  0.61109811944E+02  0.23393571732E+02  0.81445706892E+03  0.82104697784E+03  0.80598724491E+02 0.  0.
         23    2    1    2    0    0 -0.26175023809E+02  0.98420727379E+01  0.91293302572E+02  0.12279953683E+03  0.77222152800E+02 0.  0.
        -11    1    3    3    0    0 -0.65603742291E+01  0.23310502959E+02  0.82836917397E+02  0.86303956700E+02  0.00000000000E+00 0.  1.
         12    1    3    3    0    0  0.67670186173E+02  0.83068772701E-01  0.73162015153E+03  0.73474302114E+03  0.00000000000E+00 0. -1.
        -11    1    4    4    0    0 -0.95964100805E+01 -0.33901997789E+02  0.42457378341E+02  0.55173050632E+02  0.00000000000E+00 0.  1.
         11    1    4    4    0    0 -0.16578613728E+02  0.43744070527E+02  0.48835924231E+02  0.67626486194E+02  0.00000000000E+00 0. -1.
         21    1    1    2  503  501  0.24258505236E+01 -0.46376189340E+02 -0.45311550406E+02  0.64882758023E+02  0.00000000000E+00 0. -1.
          1    1    1    2  501    0 -0.37360638659E+02  0.13140544871E+02  0.89023179173E+02  0.97435197288E+02  0.00000000000E+00 0. -1.
<scales pt_clust_5="13000.00000" pt_clust_6="13000.00000" pt_clust_7="13000.00000" pt_clust_8="13000.00000" pt_clust_9="46.43959" pt_clust_10="13000.00000"></scales>
<clustering>
<clus scale="   46.440">  2  9  1 -1</clus>
<clus scale="   77.222">  7  8 -1 -1</clus>
<clus scale="   37.226">  7 10 -1 -1</clus>
<clus scale="   80.599">  5  6 -1 -1</clus>
<clus scale="  102.741">  1  5  2 -1</clus>
<clus scale="   46.440">  2  5  1 -1</clus>
</clustering>
</event>
<event>
10    4  0.2759992E-005  0.2271170E+03  0.7546771E-02  0.1164756E+00
          2   -1    0    0  503    0 -0.00000000000E+00  0.00000000000E+00  0.46970467526E+03  0.46970467526E+03  0.00000000000E+00 0. -1.
         21   -1    0    0  501  502  0.00000000000E+00 -0.00000000000E+00 -0.25951757245E+03  0.25951757245E+03  0.00000000000E+00 0. -1.
         24    2    1    2    0    0 -0.41538332088E+02 -0.42763583003E+02  0.54976934398E+02  0.11451826110E+03  0.80856735932E+02 0.  0.
         23    2    1    2    0    0 -0.50282237519E+01  0.64091040632E+02  0.22940147362E+03  0.25507740275E+03  0.91140006428E+02 0.  0.
        -13    1    3    3    0    0 -0.42693111466E+02 -0.15642849242E+01  0.59289257934E+02  0.73077800052E+02  0.00000000000E+00 0.  1.
         14    1    3    3    0    0  0.11547793781E+01 -0.41199298079E+02 -0.43123235363E+01  0.41440461048E+02  0.00000000000E+00 0. -1.
        -13    1    4    4    0    0 -0.43012788773E+02  0.15108673431E+02  0.13174875546E+03  0.13941343758E+03  0.00000000000E+00 0. -1.
         13    1    4    4    0    0  0.37984565021E+02  0.48982367201E+02  0.97652718163E+02  0.11566396518E+03  0.00000000000E+00 0.  1.
         21    1    1    2  503  502 -0.19637239794E+02  0.66889632250E+02 -0.18838169136E+03  0.20086688560E+03  0.00000000000E+00 0. -1.
          1    1    1    2  501    0  0.66203795634E+02 -0.88217089879E+02  0.11419038614E+03  0.15875969826E+03  0.00000000000E+00 0. -1.
<scales pt_clust_5="13000.00000" pt_clust_6="13000.00000" pt_clust_7="13000.00000" pt_clust_8="13000.00000" pt_clust_9="69.71258" pt_clust_10="13000.00000"></scales>
<clustering>
<clus scale="   69.713">  2  9  1 -1</clus>
<clus scale="   80.857">  5  6 -1 -1</clus>
<clus scale="   91.140">  7  8 -1 -1</clus>
<clus scale="   88.276">  7 10 -1 -1</clus>
<clus scale="   96.118">  1  5  2 -1</clus>
<clus scale="   69.713">  2  5  1 -1</clus>
</clustering>
</event>
<event>
10    4  0.2759992E-005  0.4406530E+03  0.7546771E-02  0.1087474E+00
         21   -1    0    0  503  502  0.00000000000E+00  0.00000000000E+00  0.33969429069E+03  0.33969429069E+03  0.00000000000E+00 0.  1.
          2   -1    0    0  502    0 -0.00000000000E+00 -0.00000000000E+00 -0.87966941641E+03  0.87966941641E+03  0.00000000000E+00 0. -1.
         24    2    1    2    0    0 -0.98891625403E+00 -0.37427398411E+02 -0.20626846886E+02  0.91555825201E+02  0.80964277361E+02 0.  0.
         23    2    1    2    0    0  0.57661256246E+02  0.82121362226E+02 -0.20108423452E+03  0.24134774959E+03  0.88006410309E+02 0.  0.
        -11    1    3    3    0    0 -0.96221457756E+01  0.23137387972E+02  0.44287211839E+01  0.25446767630E+02  0.00000000000E+00 0.  1.
         12    1    3    3    0    0  0.86332295216E+01 -0.60564786383E+02 -0.25055568070E+02  0.66109057571E+02  0.00000000000E+00 0. -1.
        -13    1    4    4    0    0  0.21138426593E+02 -0.16200762371E+02 -0.59101890749E+02  0.64825390630E+02  0.00000000000E+00 0.  1.
         13    1    4    4    0    0  0.36522829653E+02  0.98322124598E+02 -0.14198234377E+03  0.17652235896E+03  0.00000000000E+00 0. -1.
         21    1    1    2  503  501  0.24298430182E+03 -0.15668906025E+03  0.14502335717E+03  0.32345727176E+03  0.00000000000E+00 0.  1.
          1    1    1    2  501    0 -0.29965664181E+03  0.11199509644E+03 -0.46328740148E+03  0.56300286054E+03  0.00000000000E+00 0. -1.
<scales pt_clust_5="13000.00000" pt_clust_6="13000.00000" pt_clust_7="13000.00000" pt_clust_8="13000.00000" pt_clust_9="291.25212" pt_clust_10="13000.00000"></scales>
<clustering>
<clus scale="   80.964">  5  6 -1 -1</clus>
<clus scale="   88.006">  7  8 -1 -1</clus>
<clus scale="   89.202">  2  5  1 -1</clus>
<clus scale="  291.252">  1  9  2 -1</clus>
<clus scale="  148.047">  7 10 -1 -1</clus>
<clus scale="  291.252">  1  5  2 -1</clus>
</clustering>
</event>
<event>
10    4  0.2759992E-005  0.2963950E+03  0.7546771E-02  0.1136730E+00
          2   -1    0    0  503    0 -0.00000000000E+00  0.00000000000E+00  0.35437754703E+03  0.35437754703E+03  0.00000000000E+00 0. -1.
         21   -1    0    0  501  502  0.00000000000E+00 -0.00000000000E+00 -0.26511436276E+03  0.26511436276E+03  0.00000000000E+00 0.  1.
         24    2    1    2    0    0  0.33942163417E+01 -0.24565909382E+02  0.17881532561E+03  0.19750636730E+03  0.80117662474E+02 0.  0.
         23    2    1    2    0    0 -0.65122961426E+02 -0.20443914881E+02 -0.81412698208E+02  0.14140692960E+03  0.93321693880E+02 0.  0.
        -13    1    3    3    0    0 -0.32456710839E+02 -0.31117112389E+02  0.12184250683E+03  0.12987420541E+03  0.00000000000E+00 0.  1.
         14    1    3    3    0    0  0.35850927181E+02  0.65512030071E+01  0.56972818787E+02  0.67632161884E+02  0.00000000000E+00 0. -1.
        -13    1    4    4    0    0 -0.87212188211E+02 -0.51538730571E+01 -0.71066372215E+02  0.11261863718E+03  0.00000000000E+00 0.  1.
         13    1    4    4    0    0  0.22089226786E+02 -0.15290041824E+02 -0.10346325993E+02  0.28788292421E+02  0.00000000000E+00 0. -1.
         21    1    1    2  503  502 -0.50725341429E+02 -0.80178072086E+01 -0.10899387264E+03  0.12048655430E+03  0.00000000000E+00 0.  1.
          1    1    1    2  501    0  0.11245408651E+03  0.53027631471E+02  0.10085442950E+03  0.16009205859E+03  0.00000000000E+00 0. -1.
<scales pt_clust_5="13000.00000" pt_clust_6="13000.00000" pt_clust_7="13000.00000" pt_clust_8="13000.00000" pt_clust_9="51.35509" pt_clust_10="13000.00000"></scales>
<clustering>
<clus scale="   51.355">  2  9  1 -1</clus>
<clus scale="   80.118">  5  6 -1 -1</clus>
<clus scale="   83.947">  1  5  2 -1</clus>
<clus scale="   93.322">  7  8 -1 -1</clus>
<clus scale="  108.221">  7 10 -1 -1</clus>
<clus scale="   51.355">  2  5  1 -1</clus>
</clustering>
</event>
<event>
10    4  0.2759992E-005  0.3311951E+03  0.7546771E-02  0.1095653E+00
          2   -1    0    0  502    0 -0.00000000000E+00  0.00000000000E+00  0.13334832003E+04  0.13334832003E+04  0.00000000000E+00 0. -1.
         21   -1    0    0  503  502  0.00000000000E+00 -0.00000000000E+00 -0.20749768965E+03  0.20749768965E+03  0.00000000000E+00 0. -1.
         24    2    1    2    0    0 -0.14719650661E+03  0.99616164892E+01  0.66247666489E+03  0.68386237607E+03  0.83823460426E+02 0.  0.
         23    2    1    2    0    0  0.36716641680E+02 -0.15033375022E+03  0.29747840316E+03  0.34786283872E+03  0.92557041795E+02 0.  0.
        -13    1    3    3    0    0 -0.49142326701E+02 -0.47522090796E+00  0.86329477275E+02  0.99337670372E+02  0.00000000000E+00 0.  1.
         14    1    3    3    0    0 -0.98054179905E+02  0.10436837397E+02  0.57614718762E+03  0.58452470570E+03  0.00000000000E+00 0. -1.
        -11    1    4    4    0    0  0.59356794676E+02 -0.52764986563E+02  0.14733202077E+03  0.16737412352E+03  0.00000000000E+00 0.  1.
         11    1    4    4    0    0 -0.22640152996E+02 -0.97568763656E+02  0.15014638239E+03  0.18048871519E+03  0.00000000000E+00 0. -1.
         21    1    1    2  503  501  0.50298862356E+01  0.34320031958E+02 -0.15301477528E+03  0.15689705479E+03  0.00000000000E+00 0. -1.
          1    1    1    2  501    0  0.10544997869E+03  0.10605210177E+03  0.31904521789E+03  0.35235862038E+03  0.00000000000E+00 0. -1.
<scales pt_clust_5="13000.00000" pt_clust_6="13000.00000" pt_clust_7="13000.00000" pt_clust_8="13000.00000" pt_clust_9="34.68666" pt_clust_10="13000.00000"></scales>
<clustering>
<clus scale="   34.687">  2  9  1 -1</clus>
<clus scale="   83.823">  5  6 -1 -1</clus>
<clus scale="   92.557">  7  8 -1 -1</clus>
<clus scale="  158.530">  7 10 -1 -1</clus>
<clus scale="  169.352">  1  5  2 -1</clus>
<clus scale="   34.687">  2  5  1 -1</clus>
</clustering>
</event>
<event>
10    4  0.2759992E-005  0.2093735E+03  0.7546771E-02  0.1163068E+00
          4   -1    0    0  503    0 -0.00000000000E+00  0.00000000000E+00  0.24923555980E+03  0.24923555980E+03  0.00000000000E+00 0. -1.
         21   -1    0    0  501  502  0.00000000000E+00 -0.00000000000E+00 -0.20362869671E+03  0.20362869671E+03  0.00000000000E+00 0. -1.
         24    2    1    2    0    0 -0.43295784379E+02 -0.63217164113E+02  0.22171312597E+02  0.11080808263E+03  0.76915078427E+02 0.  0.
         23    2    1    2    0    0  0.59816281571E+02  0.13314168825E+01  0.61114366877E+02  0.12786943449E+03  0.95057173463E+02 0.  0.
        -13    1    3    3    0    0 -0.86377978428E+00 -0.22259104086E+02  0.42865306837E+02  0.48307849884E+02  0.00000000000E+00 0.  1.
         14    1    3    3    0    0 -0.42432004595E+02 -0.40958060027E+02 -0.20693994240E+02  0.62500232741E+02  0.00000000000E+00 0. -1.
        -13    1    4    4    0    0  0.43807635204E+02 -0.43517206103E+02  0.48743094937E+02  0.78668579707E+02  0.00000000000E+00 0.  1.
         13    1    4    4    0    0  0.16008646367E+02  0.44848622985E+02  0.12371271940E+02  0.49200854785E+02  0.00000000000E+00 0. -1.
         21    1    1    2  503  502 -0.52647138911E+02 -0.53102874615E+02 -0.54442216037E+02  0.92496440013E+02  0.00000000000E+00 0. -1.
          3    1    1    2  501    0  0.36126641719E+02  0.11498862185E+03  0.16763399647E+02  0.12169029938E+03  0.00000000000E+00 0. -1.
<scales pt_clust_5="13000.00000" pt_clust_6="13000.00000" pt_clust_7="13000.00000" pt_clust_8="13000.00000" pt_clust_9="74.77725" pt_clust_10="13000.00000"></scales>
<clustering>
<clus scale="   74.777">  2  9  1 -1</clus>
<clus scale="   76.915">  5  6 -1 -1</clus>
<clus scale="   95.057">  7  8 -1 -1</clus>
<clus scale="   94.764">  7 10 -1 -1</clus>
<clus scale="  127.567">  1  5  2 -1</clus>
<clus scale="   74.777">  2  5  1 -1</clus>
</clustering>
</event>
<event>
10    4  0.2759992E-005  0.3885461E+03  0.7546771E-02  0.1058462E+00
          2   -1    0    0  503    0 -0.00000000000E+00  0.00000000000E+00  0.12304495117E+04  0.12304495117E+04  0.00000000000E+00 0. -1.
         21   -1    0    0  501  502  0.00000000000E+00 -0.00000000000E+00 -0.16278537951E+03  0.16278537951E+03  0.00000000000E+00 0.  1.
         24    2    1    2    0    0 -0.25966600080E+03  0.14418193829E+03  0.29686367416E+03  0.42815327447E+03  0.83500431727E+02 0.  0.
         23    2    1    2    0    0 -0.21500399495E+02  0.68860626672E+01  0.14855062595E+03  0.17456993380E+03  0.88868938782E+02 0.  0.
        -11    1    3    3    0    0 -0.26168858400E+03  0.14760301713E+03  0.29880016054E+03  0.42373234666E+03  0.00000000000E+00 0.  1.
         12    1    3    3    0    0  0.20225832033E+01 -0.34210788411E+01 -0.19364863738E+01  0.44209278130E+01  0.00000000000E+00 0. -1.
        -13    1    4    4    0    0  0.43010072868E+01  0.27551049144E+02  0.13660338397E+03  0.13942038403E+03  0.00000000000E+00 0.  1.
         13    1    4    4    0    0 -0.25801406781E+02 -0.20664986477E+02  0.11947241982E+02  0.35149549769E+02  0.00000000000E+00 0. -1.
         21    1    1    2  503  502  0.32542256849E+02 -0.15739928403E+02 -0.49651655324E+02  0.61416860091E+02  0.00000000000E+00 0.  1.
          1    1    1    2  501    0  0.24862414345E+03 -0.13532807256E+03  0.67190148745E+03  0.72909482289E+03  0.00000000000E+00 0. -1.
<scales pt_clust_5="13000.00000" pt_clust_6="13000.00000" pt_clust_7="13000.00000" pt_clust_8="13000.00000" pt_clust_9="36.14891" pt_clust_10="13000.00000"></scales>
<clustering>
<clus scale="   36.149">  2  9  1 -1</clus>
<clus scale="   83.500">  5  6 -1 -1</clus>
<clus scale="   88.869">  7  8 -1 -1</clus>
<clus scale="  287.323">  1  5  2 -1</clus>
<clus scale="   66.210">  7 10 -1 -1</clus>
<clus scale="   36.149">  2  5  1 -1</clus>
</clustering>
</event>
<event>
10    4  0.2759992E-005  0.1287135E+03  0.7546771E-02  0.1249592E+00
          2   -1    0    0  503    0 -0.00000000000E+00  0.00000000000E+00  0.12425651784E+04  0.12425651784E+04  0.00000000000E+00 0. -1.
         21   -1    0    0  501  502  0.00000000000E+00 -0.00000000000E+00 -0.67911678313E+02  0.67911678313E+02  0.00000000000E+00 0. -1.
         24    2    1    2    0    0 -0.32899357786E+01 -0.32402704535E+02  0.90190540555E+03  0.90609811330E+03  0.80744482385E+02 0.  0.
         23    2    1    2    0    0  0.23559173648E+02 -0.26747243595E+02  0.27856656125E+03  0.29669028763E+03  0.95683582835E+02 0.  0.
        -11    1    3    3    0    0 -0.25402674260E+02  0.10691765940E+02  0.14196114143E+03  0.14461180932E+03  0.00000000000E+00 0.  1.
         12    1    3    3    0    0  0.22112738481E+02 -0.43094470475E+02  0.75994426412E+03  0.76148630398E+03  0.00000000000E+00 0. -1.
        -13    1    4    4    0    0  0.13268379568E+02 -0.51503759308E+02  0.25653153057E+03  0.26198685711E+03  0.00000000000E+00 0. -1.
         13    1    4    4    0    0  0.10290794080E+02  0.24756515713E+02  0.22035030676E+02  0.34703430521E+02  0.00000000000E+00 0.  1.
         21    1    1    2  503  502 -0.43326283816E+02  0.48736387589E+02 -0.30813597761E+02  0.72124060836E+02  0.00000000000E+00 0. -1.
          1    1    1    2  501    0  0.23057045947E+02  0.10413560542E+02  0.24995131019E+02  0.35564394914E+02  0.00000000000E+00 0. -1.
<scales pt_clust_5="13000.00000" pt_clust_6="13000.00000" pt_clust_7="13000.00000" pt_clust_8="13000.00000" pt_clust_9="65.21045" pt_clust_10="13000.00000"></scales>
<clustering>
<clus scale="   65.210">  2  9  1 -1</clus>
<clus scale="   80.744">  5  6 -1 -1</clus>
<clus scale="   85.342">  1  5  2 -1</clus>
<clus scale="   95.684">  7  8 -1 -1</clus>
<clus scale="   23.146">  7 10 -1 -1</clus>
<clus scale="   65.210">  2  5  1 -1</clus>
</clustering>
</event>
<event>
10    4  0.2759992E-005  0.3719618E+03  0.7546771E-02  0.1081327E+00
          2   -1    0    0  502    0 -0.00000000000E+00  0.00000000000E+00  0.50569899529E+03  0.50569899529E+03  0.00000000000E+00 0. -1.
         21   -1    0    0  503  502  0.00000000000E+00 -0.00000000000E+00 -0.29450880627E+03  0.29450880627E+03  0.00000000000E+00 0. -1.
         24    2    1    2    0    0  0.83079488793E+02 -0.12426834405E+03 -0.11283452475E+03  0.20420260119E+03  0.81377205449E+02 0.  0.
         23    2    1    2    0    0 -0.86043398660E+02  0.23330686432E+03  0.20223784292E+03  0.33352954420E+03  0.92229346482E+02 0.  0.
        -13    1    3    3    0    0  0.89461719071E+02 -0.65589504788E+02 -0.68407963741E+02  0.13032663512E+03  0.00000000000E+00 0.  1.
         14    1    3    3    0    0 -0.63822302778E+01 -0.58678839264E+02 -0.44426561005E+02  0.73875966074E+02  0.00000000000E+00 0. -1.
        -13    1    4    4    0    0 -0.48794994805E+02  0.63056890648E+02  0.21773038393E+02  0.82651002275E+02  0.00000000000E+00 0.  1.
         13    1    4    4    0    0 -0.37248403855E+02  0.17024997368E+03  0.18046480452E+03  0.25087854192E+03  0.00000000000E+00 0. -1.
         21    1    1    2  503  501 -0.24380065362E+02 -0.22717741683E+02 -0.54737036247E+02  0.64082965844E+02  0.00000000000E+00 0. -1.
          1    1    1    2  501    0  0.27343975228E+02 -0.86320778589E+02  0.17652390710E+03  0.19839269033E+03  0.00000000000E+00 0. -1.
<scales pt_clust_5="13000.00000" pt_clust_6="13000.00000" pt_clust_7="13000.00000" pt_clust_8="13000.00000" pt_clust_9="33.32392" pt_clust_10="13000.00000"></scales>
<clustering>
<clus scale="   33.324">  2  9  1 -1</clus>
<clus scale="   81.377">  5  6 -1 -1</clus>
<clus scale="   92.229">  7  8 -1 -1</clus>
<clus scale="   91.224">  7 10 -1 -1</clus>
<clus scale="  174.779">  1  5  2 -1</clus>
<clus scale="   33.324">  2  5  1 -1</clus>
</clustering>
</event>
<event>
10    4  0.2759992E-005  0.2719309E+03  0.7546771E-02  0.1133457E+00
         21   -1    0    0  503  502  0.00000000000E+00  0.00000000000E+00  0.43454179909E+02  0.43454179909E+02  0.00000000000E+00 0. -1.
          2   -1    0    0  502    0 -0.00000000000E+00 -0.00000000000E+00 -0.12783422390E+04  0.12783422390E+04  0.00000000000E+00 0. -1.
         24    2    1    2    0    0  0.85652923439E+02 -0.10860931272E+02 -0.66384261876E+03  0.67474499315E+03  0.84494971310E+02 0.  0.
         23    2    1    2    0    0 -0.87719853522E+02  0.95200909424E+02 -0.44190305904E+03  0.46868476435E+03  0.87344770244E+02 0.  0.
        -13    1    3    3    0    0  0.53262857641E+02  0.12153245028E+02 -0.15486412391E+03  0.16421793521E+03  0.00000000000E+00 0.  1.
         14    1    3    3    0    0  0.32390065798E+02 -0.23014176300E+02 -0.50897849485E+03  0.51052705794E+03  0.00000000000E+00 0. -1.
        -13    1    4    4    0    0 -0.16184849376E+02  0.67095088982E+02 -0.29412776478E+03  0.30211726585E+03  0.00000000000E+00 0.  1.
         13    1    4    4    0    0 -0.71535004146E+02  0.28105820442E+02 -0.14777529426E+03  0.16656749850E+03  0.00000000000E+00 0. -1.
         21    1    1    2  503  501 -0.28562298942E+02  0.31033961706E+01 -0.19037489853E+02  0.34465374052E+02  0.00000000000E+00 0. -1.
          1    1    1    2  501    0  0.30629229025E+02 -0.87443374323E+02 -0.11010489143E+03  0.14390128735E+03  0.00000000000E+00 0. -1.
<scales pt_clust_5="13000.00000" pt_clust_6="13000.00000" pt_clust_7="13000.00000" pt_clust_8="13000.00000" pt_clust_9="28.73040" pt_clust_10="13000.00000"></scales>
<clustering>
<clus scale="   28.730">  1  9  2 -1</clus>
<clus scale="   84.495">  5  6 -1 -1</clus>
<clus scale="   87.345">  7  8 -1 -1</clus>
<clus scale="   87.665">  7 10 -1 -1</clus>
<clus scale="  117.713">  2  5  1 -1</clus>
<clus scale="   28.730">  1  5  2 -1</clus>
</clustering>
</event>
<event>
10    4  0.2759992E-005  0.3148555E+03  0.7546771E-02  0.1096422E+00
          2   -1    0    0  503    0 -0.00000000000E+00  0.00000000000E+00  0.16618559546E+04  0.16618559546E+04  0.00000000000E+00 0. -1.
         21   -1    0    0  501  502  0.00000000000E+00 -0.00000000000E+00 -0.65816366784E+02  0.65816366784E+02  0.00000000000E+00 0. -1.
         24    2    1    2    0    0  0.13206208090E+03 -0.13007571215E+03  0.19386238189E+03  0.27950177971E+03  0.78603674520E+02 0.  0.
         23    2    1    2    0    0 -0.79209950093E+02 -0.54059352304E+02  0.44449086645E+03  0.46625944960E+03  0.10309759558E+03 0.  0.
        -13    1    3    3    0    0  0.46971363829E+02 -0.57313864371E+02  0.13254147255E+03  0.15185002475E+03  0.00000000000E+00 0.  1.
         14    1    3    3    0    0  0.85090717073E+02 -0.72761847776E+02  0.61320909333E+02  0.12765175496E+03  0.00000000000E+00 0. -1.
        -11    1    4    4    0    0 -0.19953842685E+02  0.17887035535E+02  0.25377388766E+02  0.36906825096E+02  0.00000000000E+00 0.  1.
         11    1    4    4    0    0 -0.59256107408E+02 -0.71946387839E+02  0.41911347769E+03  0.42935262450E+03  0.00000000000E+00 0. -1.
         21    1    1    2  503  502  0.14619817447E+02  0.36695339659E+02  0.78279275465E+02  0.87680852997E+02  0.00000000000E+00 0. -1.
          1    1    1    2  501    0 -0.67471948255E+02  0.14743972479E+03  0.87940706400E+03  0.89423023907E+03  0.00000000000E+00 0. -1.
<scales pt_clust_5="13000.00000" pt_clust_6="13000.00000" pt_clust_7="13000.00000" pt_clust_8="13000.00000" pt_clust_9="39.50047" pt_clust_10="13000.00000"></scales>
<clustering>
<clus scale="   39.500">  2  9  1 -1</clus>
<clus scale="   78.604">  5  6 -1 -1</clus>
<clus scale="  103.098">  7  8 -1 -1</clus>
<clus scale="  165.490">  7 10 -1 -1</clus>
<clus scale="  193.188">  1  5  2 -1</clus>
<clus scale="   39.500">  2  5  1 -1</clus>
</clustering>
</event>
<event>
10    4  0.2759992E-005  0.2399621E+03  0.7546771E-02  0.1159271E+00
         -3   -1    0    0    0  501 -0.00000000000E+00  0.00000000000E+00  0.36411363949E+03  0.36411363949E+03  0.00000000000E+00 0.  1.
         21   -1    0    0  501  502  0.00000000000E+00 -0.00000000000E+00 -0.48812579340E+03  0.48812579340E+03  0.00000000000E+00 0. -1.
         24    2    1    2    0    0 -0.25321918671E+02  0.34882824068E+02  0.12432842165E+03  0.15499430882E+03  0.81900356271E+02 0.  0.
         23    2    1    2    0    0  0.71937082762E+02  0.82268606554E+02  0.16070465481E+03  0.21492826207E+03  0.91788366671E+02 0.  0.
        -11    1    3    3    0    0 -0.44394796035E+02  0.13021899460E+02  0.11588495714E+03  0.12477896887E+03  0.00000000000E+00 0.  1.
         12    1    3    3    0    0  0.19072877364E+02  0.21860924608E+02  0.84434645101E+01  0.30215339955E+02  0.00000000000E+00 0. -1.
        -11    1    4    4    0    0  0.31657136514E+02  0.90574749686E+02  0.13761902980E+03  0.16776458785E+03  0.00000000000E+00 0.  1.
         11    1    4    4    0    0  0.40279946249E+02 -0.83061431326E+01  0.23085625012E+02  0.47163674218E+02  0.00000000000E+00 0. -1.
         21    1    1    2  503  502  0.14205656949E+02 -0.10675637995E+03 -0.40653996300E+03  0.42056327332E+03  0.00000000000E+00 0. -1.
         -4    1    1    2    0  503 -0.60820821040E+02 -0.10395050667E+02 -0.25052673752E+01  0.61753588681E+02  0.00000000000E+00 0.  1.
<scales pt_clust_5="13000.00000" pt_clust_6="13000.00000" pt_clust_7="13000.00000" pt_clust_8="13000.00000" pt_clust_9="106.51478" pt_clust_10="13000.00000"></scales>
<clustering>
<clus scale="   81.900">  5  6 -1 -1</clus>
<clus scale="   91.788">  7  8 -1 -1</clus>
<clus scale="   61.703">  7 10 -1 -1</clus>
<clus scale="   92.551">  1  5  2 -1</clus>
<clus scale="  106.515">  2  9  1 -1</clus>
<clus scale="  106.515">  2  5  1 -1</clus>
</clustering>
</event>
<event>
10    4  0.2759992E-005  0.3355301E+03  0.7546771E-02  0.1120640E+00
         21   -1    0    0  501  502  0.00000000000E+00  0.00000000000E+00  0.15195264716E+03  0.15195264716E+03  0.00000000000E+00 0.  1.
          2   -1    0    0  503    0 -0.00000000000E+00 -0.00000000000E+00 -0.19485228132E+04  0.19485228132E+04  0.00000000000E+00 0. -1.
         24    2    1    2    0    0 -0.28532879666E+02 -0.85247332005E+01 -0.44564979139E+03  0.45387040464E+03  0.80671006799E+02 0.  0.
         23    2    1    2    0    0 -0.12706322402E+02  0.17879963632E+03 -0.79763774872E+03  0.82252335292E+03  0.90487166706E+02 0.  0.
        -13    1    3    3    0    0 -0.39751526926E+02 -0.37526608360E+02 -0.29966499472E+03  0.30461047140E+03  0.00000000000E+00 0.  1.
         14    1    3    3    0    0  0.11218647260E+02  0.29001875159E+02 -0.14598479667E+03  0.14925993323E+03  0.00000000000E+00 0. -1.
        -13    1    4    4    0    0  0.28879778693E+01  0.37516630217E+02 -0.56531057036E+02  0.67908750310E+02  0.00000000000E+00 0.  1.
         13    1    4    4    0    0 -0.15594300271E+02  0.14128300611E+03 -0.74110669168E+03  0.75461460261E+03  0.00000000000E+00 0. -1.
         21    1    1    2  503  502  0.16059411343E+03 -0.13317607903E+03  0.44541734262E+02  0.21333144022E+03  0.00000000000E+00 0.  1.
          1    1    1    2  501    0 -0.11935491136E+03 -0.37098824097E+02 -0.59782436019E+03  0.61075026258E+03  0.00000000000E+00 0. -1.
<scales pt_clust_5="13000.00000" pt_clust_6="13000.00000" pt_clust_7="13000.00000" pt_clust_8="13000.00000" pt_clust_9="207.70402" pt_clust_10="13000.00000"></scales>
<clustering>
<clus scale="   80.671">  5  6 -1 -1</clus>
<clus scale="   85.992">  2  5  1 -1</clus>
<clus scale="   90.487">  7  8 -1 -1</clus>
<clus scale="  136.994">  7 10 -1 -1</clus>
<clus scale="  207.704">  1  9  2 -1</clus>
<clus scale="  207.704">  1  5  2 -1</clus>
</clustering>
</event>
<event>
10    4  0.2759992E-005  0.2663425E+03  0.7546771E-02  0.1109795E+00
         21   -1    0    0  501  502  0.00000000000E+00  0.00000000000E+00  0.12301609157E+03  0.12301609157E+03  0.00000000000E+00 0. -1.
          2   -1    0    0  503    0 -0.00000000000E+00 -0.00000000000E+00 -0.10302709815E+04  0.10302709815E+04  0.00000000000E+00 0. -1.
         24    2    1    2    0    0 -0.18718678752E+03  0.84819773998E+02 -0.73864929431E+03  0.77085720959E+03  0.79904756483E+02 0.  0.
         23    2    1    2    0    0  0.54731839471E+02 -0.20009525464E+02 -0.72504066349E+02  0.12811944429E+03  0.88101061322E+02 0.  0.
        -11    1    3    3    0    0 -0.48211431106E+02  0.31594541891E+02 -0.10312425574E+03  0.11814046423E+03  0.00000000000E+00 0.  1.
         12    1    3    3    0    0 -0.13897535641E+03  0.53225232108E+02 -0.63552503857E+03  0.65271674536E+03  0.00000000000E+00 0. -1.
        -11    1    4    4    0    0 -0.40306174489E+01 -0.31102116575E+02 -0.58993700559E+02  0.66812006691E+02  0.00000000000E+00 0.  1.
         11    1    4    4    0    0  0.58762456920E+02  0.11092591111E+02 -0.13510365791E+02  0.61307437596E+02  0.00000000000E+00 0. -1.
         21    1    1    2  503  502 -0.23503483526E+02  0.36327236802E+02  0.35307054552E+01  0.43411378146E+02  0.00000000000E+00 0.  1.
          1    1    1    2  501    0  0.15595843157E+03 -0.10113748534E+03 -0.99632234731E+02  0.21089904105E+03  0.00000000000E+00 0. -1.
<scales pt_clust_5="13000.00000" pt_clust_6="13000.00000" pt_clust_7="13000.00000" pt_clust_8="13000.00000" pt_clust_9="43.26756" pt_clust_10="13000.00000"></scales>
<clustering>
<clus scale="   43.268">  1  9  2 -1</clus>
<clus scale="   79.905">  5  6 -1 -1</clus>
<clus scale="   88.101">  7  8 -1 -1</clus>
<clus scale="  164.112">  7 10 -1 -1</clus>
<clus scale="  226.025">  2  5  1 -1</clus>
<clus scale="   43.268">  1  5  2 -1</clus>
</clustering>
</event>
<event>
10    4  0.2759992E-005  0.2463665E+03  0.7546771E-02  0.1161376E+00
         21   -1    0    0  503  502  0.00000000000E+00  0.00000000000E+00  0.40432604808E+03  0.40432604808E+03  0.00000000000E+00 0. -1.
          4   -1    0    0  502    0 -0.00000000000E+00 -0.00000000000E+00 -0.19578767443E+03  0.19578767443E+03  0.00000000000E+00 0. -1.
         24    2    1    2    0    0 -0.20591005224E+02  0.28593234571E+01 -0.10922296391E+03  0.13659116241E+03  0.79343081467E+02 0.  0.
         23    2    1    2    0    0  0.50814089502E+02  0.61869730272E+02  0.46000044346E+01  0.12343725312E+03  0.93838479324E+02 0.  0.
        -13    1    3    3    0    0 -0.25538375231E+02 -0.35181228726E+02 -0.53406734154E+02  0.68863682135E+02  0.00000000000E+00 0.  1.
         14    1    3    3    0    0  0.49473700070E+01  0.38040552183E+02 -0.55816229751E+02  0.67727480272E+02  0.00000000000E+00 0. -1.
        -11    1    4    4    0    0  0.62732961889E+02  0.26745096660E+02  0.33910968568E+02  0.76162185446E+02  0.00000000000E+00 0. -1.
         11    1    4    4    0    0 -0.11918872387E+02  0.35124633612E+02 -0.29310964133E+02  0.47275067676E+02  0.00000000000E+00 0.  1.
         21    1    1    2  503  501  0.39496104793E+02 -0.26121910184E+02  0.16729818688E+03  0.17387058353E+03  0.00000000000E+00 0. -1.
          3    1    1    2  501    0 -0.69719189070E+02 -0.38607143544E+02  0.14586314625E+03  0.16621472345E+03  0.00000000000E+00 0. -1.
<scales pt_clust_5="13000.00000" pt_clust_6="13000.00000" pt_clust_7="13000.00000" pt_clust_8="13000.00000" pt_clust_9="47.35289" pt_clust_10="13000.00000"></scales>
<clustering>
<clus scale="   47.353">  1  9  2 -1</clus>
<clus scale="   79.343">  5  6 -1 -1</clus>
<clus scale="   81.432">  2  5  1 -1</clus>
<clus scale="   93.838">  7  8 -1 -1</clus>
<clus scale="   72.529">  7 10 -1 -1</clus>
<clus scale="   47.353">  1  5  2 -1</clus>
</clustering>
</event>
<event>
10    4  0.2759992E-005  0.1690379E+03  0.7546771E-02  0.1198017E+00
          4   -1    0    0  502    0 -0.00000000000E+00  0.00000000000E+00  0.12841755280E+04  0.12841755280E+04  0.00000000000E+00 0. -1.
         21   -1    0    0  503  502  0.00000000000E+00 -0.00000000000E+00 -0.87251719812E+02  0.87251719812E+02  0.00000000000E+00 0.  1.
         24    2    1    2    0    0 -0.84872648713E+02  0.45043467838E+02  0.77506529123E+03  0.78504199657E+03  0.79576693899E+02 0.  0.
         23    2    1    2    0    0  0.17031673699E+02 -0.51952958574E+02  0.36441122682E+03  0.37940266791E+03  0.90341874933E+02 0.  0.
        -13    1    3    3    0    0  0.33240258658E+01  0.32899049729E+02  0.14531000421E+03  0.14902480982E+03  0.00000000000E+00 0.  1.
         14    1    3    3    0    0 -0.88196674578E+02  0.12144418109E+02  0.62975528703E+03  0.63601718675E+03  0.00000000000E+00 0. -1.
        -11    1    4    4    0    0 -0.61108473625E+01  0.23934633686E+02  0.61547551899E+02  0.66319757915E+02  0.00000000000E+00 0.  1.
         11    1    4    4    0    0  0.23142521061E+02 -0.75887592260E+02  0.30286367492E+03  0.31308290999E+03  0.00000000000E+00 0. -1.
         21    1    1    2  503  501  0.55113268212E+02 -0.37576568910E+02 -0.54314794184E+02  0.86020740123E+02  0.00000000000E+00 0.  1.
          3    1    1    2  501    0  0.12727706802E+02  0.44486059645E+02  0.11176208435E+03  0.12096184325E+03  0.00000000000E+00 0. -1.
<scales pt_clust_5="13000.00000" pt_clust_6="13000.00000" pt_clust_7="13000.00000" pt_clust_8="13000.00000" pt_clust_9="66.70435" pt_clust_10="13000.00000"></scales>
<clustering>
<clus scale="   66.704">  2  9  1 -1</clus>
<clus scale="   79.577">  5  6 -1 -1</clus>
<clus scale="   90.342">  7  8 -1 -1</clus>
<clus scale="   44.058">  7 10 -1 -1</clus>
<clus scale="  110.562">  1  5  2 -1</clus>
<clus scale="   66.704">  2  5  1 -1</clus>
</clustering>
</event>
<event>
10    4  0.2759992E-005  0.2675358E+03  0.7546771E-02  0.1138463E+00
         21   -1    0    0  501  502  0.00000000000E+00  0.00000000000E+00  0.38091691363E+02  0.38091691363E+02  0.00000000000E+00 0.  1.
          2   -1    0    0  503    0 -0.00000000000E+00 -0.00000000000E+00 -0.13682887130E+04  0.13682887130E+04  0.00000000000E+00 0. -1.
         24    2    1    2    0    0  0.70593868934E+02 -0.15361585738E+02 -0.25530264263E+03  0.27760322846E+03  0.81637249292E+02 0.  0.
         23    2    1    2    0    0  0.54032161257E+02  0.26086981907E+01 -0.21243171610E+03  0.23712194018E+03  0.90406309255E+02 0.  0.
        -13    1    3    3    0    0  0.65571544047E+02 -0.41919953641E+02 -0.21846256342E+03  0.23191119317E+03  0.00000000000E+00 0.  1.
         14    1    3    3    0    0  0.50223248868E+01  0.26558367903E+02 -0.36840079211E+02  0.45692035293E+02  0.00000000000E+00 0. -1.
        -11    1    4    4    0    0  0.61100202766E+02  0.31804801959E+02 -0.18090531644E+03  0.19357560209E+03  0.00000000000E+00 0. -1.
         11    1    4    4    0    0 -0.70680415090E+01 -0.29196103768E+02 -0.31526399655E+02  0.43546338092E+02  0.00000000000E+00 0.  1.
         21    1    1    2  503  502 -0.93212892700E+01 -0.34348050237E+02 -0.21630573045E+02  0.41648009304E+02  0.00000000000E+00 0.  1.
          1    1    1    2  501    0 -0.11530474092E+03  0.47100937784E+02 -0.84083208984E+03  0.85000722639E+03  0.00000000000E+00 0. -1.
<scales pt_clust_5="13000.00000" pt_clust_6="13000.00000" pt_clust_7="13000.00000" pt_clust_8="13000.00000" pt_clust_9="35.59038" pt_clust_10="13000.00000"></scales>
<clustering>
<clus scale="   35.590">  1  9  2 -1</clus>
<clus scale="   81.637">  5  6 -1 -1</clus>
<clus scale="   90.406">  7  8 -1 -1</clus>
<clus scale="  109.454">  2  5  1 -1</clus>
<clus scale="   67.570">  7 10 -1 -1</clus>
<clus scale="   35.590">  1  5  2 -1</clus>
</clustering>
</event>
<event>
10    4  0.2759992E-005  0.2160662E+03  0.7546771E-02  0.1154756E+00
          2   -1    0    0  503    0 -0.00000000000E+00  0.00000000000E+00  0.57535441831E+03  0.57535441831E+03  0.00000000000E+00 0. -1.
         21   -1    0    0  501  502  0.00000000000E+00 -0.00000000000E+00 -0.78606728566E+02  0.78606728566E+02  0.00000000000E+00 0. -1.
         24    2    1    2    0    0  0.10081372807E+03 -0.38398142392E+02  0.11597507179E+03  0.17793430600E+03  0.81071418331E+02 0.  0.
         23    2    1    2    0    0  0.12163291362E+02  0.22359365213E+02  0.14249065748E+03  0.17216404603E+03  0.93214722046E+02 0.  0.
        -11    1    3    3    0    0 -0.32804440595E+01 -0.21130016373E+02  0.33043630813E+00  0.21385698336E+02  0.00000000000E+00 0.  1.
         12    1    3    3    0    0  0.10409417213E+03 -0.17268126019E+02  0.11564463548E+03  0.15654860767E+03  0.00000000000E+00 0. -1.
        -13    1    4    4    0    0  0.51957725721E+02  0.78446898403E+01  0.94712014937E+02  0.10831209625E+03  0.00000000000E+00 0.  1.
         13    1    4    4    0    0 -0.39794434359E+02  0.14514675372E+02  0.47778642546E+02  0.63851949780E+02  0.00000000000E+00 0. -1.
         21    1    1    2  503  502 -0.20364231098E+01 -0.37973913724E+02  0.29480538811E+01  0.38142576791E+02  0.00000000000E+00 0.  1.
          1    1    1    2  501    0 -0.11094059632E+03  0.54012690903E+02  0.23533390659E+03  0.26572021805E+03  0.00000000000E+00 0. -1.
<scales pt_clust_5="13000.00000" pt_clust_6="13000.00000" pt_clust_7="13000.00000" pt_clust_8="13000.00000" pt_clust_9="38.02848" pt_clust_10="13000.00000"></scales>
<clustering>
<clus scale="   38.028">  2  9  1 -1</clus>
<clus scale="   81.071">  5  6 -1 -1</clus>
<clus scale="   93.215">  7  8 -1 -1</clus>
<clus scale="  120.024">  7 10 -1 -1</clus>
<clus scale="  140.910">  1  5  2 -1</clus>
<clus scale="   38.028">  2  5  1 -1</clus>
</clustering>
</event>
<event>
10    4  0.2759992E-005  0.5019381E+03  0.7546771E-02  0.1065183E+00
         21   -1    0    0  503  502  0.00000000000E+00  0.00000000000E+00  0.17936246884E+03  0.17936246884E+03  0.00000000000E+00 0.  1.
          2   -1    0    0  502    0 -0.00000000000E+00 -0.00000000000E+00 -0.14842995817E+04  0.14842995817E+04  0.00000000000E+00 0. -1.
         24    2    1    2    0    0 -0.52612735428E+02  0.54718680939E+02 -0.74620200686E+03  0.75433870794E+03  0.80294565658E+02 0.  0.
         23    2    1    2    0    0  0.26947993294E+02  0.19086794001E+03 -0.21149555435E+03  0.30007431820E+03  0.90318669517E+02 0.  0.
        -13    1    3    3    0    0  0.93012721977E+01  0.27449424396E+02 -0.87575480467E+02  0.92246676597E+02  0.00000000000E+00 0.  1.
         14    1    3    3    0    0 -0.61914007625E+02  0.27269256543E+02 -0.65862652639E+03  0.66209203134E+03  0.00000000000E+00 0. -1.
        -11    1    4    4    0    0 -0.18620200512E+02  0.39853769027E+02 -0.11704794813E+02  0.45519633065E+02  0.00000000000E+00 0.  1.
         11    1    4    4    0    0  0.45568193807E+02  0.15101417099E+03 -0.19979075954E+03  0.25455468513E+03  0.00000000000E+00 0. -1.
         21    1    1    2  503  501 -0.15284674966E+03  0.65413300389E+01 -0.12123012737E+02  0.15346623510E+03  0.00000000000E+00 0.  1.
          1    1    1    2  501    0  0.17851149179E+03 -0.25212795099E+03 -0.33511653890E+03  0.45578278929E+03  0.00000000000E+00 0. -1.
<scales pt_clust_5="13000.00000" pt_clust_6="13000.00000" pt_clust_7="13000.00000" pt_clust_8="13000.00000" pt_clust_9="159.28934" pt_clust_10="13000.00000"></scales>
<clustering>
<clus scale="   80.295">  5  6 -1 -1</clus>
<clus scale="   90.319">  7  8 -1 -1</clus>
<clus scale="  110.496">  2  5  1 -1</clus>
<clus scale="  159.289">  1  9  2 -1</clus>
<clus scale="  229.289">  7 10 -1 -1</clus>
<clus scale="  159.289">  1  5  2 -1</clus>
</clustering>
</event>
<event>
10    4  0.2759992E-005  0.3501792E+03  0.7546771E-02  0.1083236E+00
          2   -1    0    0  502    0 -0.00000000000E+00  0.00000000000E+00  0.70909067524E+03  0.70909067524E+03  0.00000000000E+00 0. -1.
         21   -1    0    0  503  502  0.00000000000E+00 -0.00000000000E+00 -0.20789052308E+04  0.20789052308E+04  0.00000000000E+00 0.  1.
         24    2    1    2    0    0  0.39140386221E+03 -0.25787788626E+03  0.47853762841E+02  0.47829111827E+03  0.82306886879E+02 0.  0.
         23    2    1    2    0    0 -0.52144592230E+02  0.42364386989E+02  0.27840299800E+03  0.30053539656E+03  0.91101566969E+02 0.  0.
        -11    1    3    3    0    0  0.12215698498E+03 -0.43682484952E+02  0.33255845743E+02  0.13392699409E+03  0.00000000000E+00 0.  1.
         12    1    3    3    0    0  0.26924687723E+03 -0.21419540130E+03  0.14597917098E+02  0.34436412418E+03  0.00000000000E+00 0. -1.
        -11    1    4    4    0    0  0.25972385127E+02  0.14070690056E+02  0.87003757892E+02  0.91881461651E+02  0.00000000000E+00 0.  1.
         11    1    4    4    0    0 -0.78116977357E+02  0.28293696932E+02  0.19139924011E+03  0.20865393491E+03  0.00000000000E+00 0. -1.
         21    1    1    2  503  501 -0.32889108942E+03  0.12023374314E+03 -0.18195045253E+04  0.18528956310E+04  0.00000000000E+00 0.  1.
          1    1    1    2  501    0 -0.10368180553E+02  0.95279756130E+02  0.12343320887E+03  0.15627376027E+03  0.00000000000E+00 0. -1.
<scales pt_clust_5="13000.00000" pt_clust_6="13000.00000" pt_clust_7="13000.00000" pt_clust_8="13000.00000" pt_clust_9="350.17924" pt_clust_10="13000.00000"></scales>
<clustering>
<clus scale="   82.307">  5  6 -1 -1</clus>
<clus scale="   91.102">  7  8 -1 -1</clus>
<clus scale="   95.842">  7 10 -1 -1</clus>
<clus scale="  350.179">  2  9  1 -1</clus>
<clus scale="  199.013">  1  5  2 -1</clus>
<clus scale="  350.179">  2  5  1 -1</clus>
</clustering>
</event>
<event>
10    4  0.2759992E-005  0.2767612E+03  0.7546771E-02  0.1140963E+00
          2   -1    0    0  503    0 -0.00000000000E+00  0.00000000000E+00  0.19338300961E+04  0.19338300961E+04  0.00000000000E+00 0. -1.
         21   -1    0    0  501  502  0.00000000000E+00 -0.00000000000E+00 -0.34227978108E+02  0.34227978108E+02  0.00000000000E+00 0.  1.
         24    2    1    2    0    0  0.36072821436E+02  0.30932879962E+02  0.33846031408E+03  0.35102650541E+03  0.80038314459E+02 0.  0.
         23    2    1    2    0    0 -0.97318939703E+02  0.20423340823E+02  0.54843460199E+03  0.56529570103E+03  0.94290127093E+02 0.  0.
        -11    1    3    3    0    0  0.44402385746E+02  0.50906730412E+02  0.29288726992E+03  0.30057614666E+03  0.00000000000E+00 0.  1.
         12    1    3    3    0    0 -0.83295643099E+01 -0.19973850450E+02  0.45573044162E+02  0.50450358746E+02  0.00000000000E+00 0. -1.
        -11    1    4    4    0    0 -0.93957057951E+02 -0.17307654803E+02  0.32802438668E+03  0.34165403833E+03  0.00000000000E+00 0.  1.
         11    1    4    4    0    0 -0.33618817516E+01  0.37730995626E+02  0.22041021531E+03  0.22364166270E+03  0.00000000000E+00 0. -1.
         21    1    1    2  503  502 -0.40517820014E+02 -0.11856473734E+03  0.25326557061E+03  0.28256457657E+03  0.00000000000E+00 0.  1.
          1    1    1    2  501    0  0.10176393828E+03  0.67208516554E+02  0.75944163133E+03  0.76917129122E+03  0.00000000000E+00 0. -1.
<scales pt_clust_5="13000.00000" pt_clust_6="13000.00000" pt_clust_7="13000.00000" pt_clust_8="13000.00000" pt_clust_9="118.46503" pt_clust_10="13000.00000"></scales>
<clustering>
<clus scale="   80.038">  5  6 -1 -1</clus>
<clus scale="   93.082">  1  5  2 -1</clus>
<clus scale="   94.290">  7  8 -1 -1</clus>
<clus scale="  118.465">  2  9  1 -1</clus>
<clus scale="  107.257">  7 10 -1 -1</clus>
<clus scale="  118.465">  2  5  1 -1</clus>
</clustering>
</event>
<event>
10    4  0.2759992E-005  0.1284886E+03  0.7546771E-02  0.1246638E+00
          2   -1    0    0  503    0 -0.00000000000E+00  0.00000000000E+00  0.84735718113E+03  0.84735718113E+03  0.00000000000E+00 0. -1.
         21   -1    0    0  501  502  0.00000000000E+00 -0.00000000000E+00 -0.32496265770E+02  0.32496265770E+02  0.00000000000E+00 0.  1.
         24    2    1    2    0    0  0.48712523518E+02 -0.19700423451E+02  0.55105110399E+03  0.55938013511E+03  0.80546878948E+02 0.  0.
         23    2    1    2    0    0 -0.26601769123E+02  0.51710127171E+01  0.18342807766E+03  0.20359785719E+03  0.84094198876E+02 0.  0.
        -13    1    3    3    0    0  0.41182347580E+02  0.18075771132E+02  0.15310142614E+03  0.15957056727E+03  0.00000000000E+00 0.  1.
         14    1    3    3    0    0  0.75301759387E+01 -0.37776194583E+02  0.39794967785E+03  0.39980956783E+03  0.00000000000E+00 0. -1.
        -11    1    4    4    0    0 -0.15134194194E+01 -0.35254713747E+02  0.11472238215E+03  0.12002670638E+03  0.00000000000E+00 0. -1.
         11    1    4    4    0    0 -0.25088349704E+02  0.40425726464E+02  0.68705695514E+02  0.83571150806E+02  0.00000000000E+00 0.  1.
         21    1    1    2  503  502 -0.51829023685E+02  0.29099062339E+01  0.40749638291E+02  0.65994304839E+02  0.00000000000E+00 0.  1.
          1    1    1    2  501    0  0.29718269289E+02  0.11619504500E+02  0.39632095413E+02  0.50881149763E+02  0.00000000000E+00 0. -1.
<scales pt_clust_5="13000.00000" pt_clust_6="13000.00000" pt_clust_7="13000.00000" pt_clust_8="13000.00000" pt_clust_9="51.91065" pt_clust_10="13000.00000"></scales>
<clustering>
<clus scale="   51.911">  2  9  1 -1</clus>
<clus scale="   80.547">  5  6 -1 -1</clus>
<clus scale="   84.094">  7  8 -1 -1</clus>
<clus scale="   19.528">  7 10 -1 -1</clus>
<clus scale="   91.022">  1  5  2 -1</clus>
<clus scale="   51.911">  2  5  1 -1</clus>
</clustering>
</event>
<event>
10    4  0.2759992E-005  0.2225610E+03  0.7546771E-02  0.1155715E+00
         21   -1    0    0  501  502  0.00000000000E+00  0.00000000000E+00  0.62049871337E+02  0.62049871337E+02  0.00000000000E+00 0. -1.
          2   -1    0    0  503    0 -0.00000000000E+00 -0.00000000000E+00 -0.12667368243E+04  0.12667368243E+04  0.00000000000E+00 0. -1.
         24    2    1    2    0    0 -0.17569501349E+02  0.93377323399E+02 -0.18459632009E+03  0.22353161052E+03  0.82840615694E+02 0.  0.
         23    2    1    2    0    0  0.45975568133E+02  0.28837706982E+02 -0.19626110937E+03  0.22165568135E+03  0.87563986971E+02 0.  0.
        -11    1    3    3    0    0  0.17129702009E+02  0.61465745707E+02 -0.15562668850E+03  0.16819967527E+03  0.00000000000E+00 0.  1.
         12    1    3    3    0    0 -0.34699203359E+02  0.31911577691E+02 -0.28969631590E+02  0.55331935254E+02  0.00000000000E+00 0. -1.
        -11    1    4    4    0    0  0.45578001198E+02  0.57557792935E+02 -0.12733866799E+03  0.14698772087E+03  0.00000000000E+00 0. -1.
         11    1    4    4    0    0  0.39756693434E+00 -0.28720085952E+02 -0.68922441381E+02  0.74667960482E+02  0.00000000000E+00 0.  1.
         21    1    1    2  503  502 -0.14539960642E+03 -0.11709499201E+03 -0.63060047111E+03  0.65765434452E+03  0.00000000000E+00 0. -1.
          1    1    1    2  501    0  0.11699353964E+03 -0.51200383678E+01 -0.19322905241E+03  0.22594505926E+03  0.00000000000E+00 0. -1.
<scales pt_clust_5="13000.00000" pt_clust_6="13000.00000" pt_clust_7="13000.00000" pt_clust_8="13000.00000" pt_clust_9="167.36505" pt_clust_10="13000.00000"></scales>
<clustering>
<clus scale="   82.841">  5  6 -1 -1</clus>
<clus scale="   87.564">  7  8 -1 -1</clus>
<clus scale="  117.106">  7 10 -1 -1</clus>
<clus scale="  126.058">  2  5  1 -1</clus>
<clus scale="  167.365">  1  9  2 -1</clus>
<clus scale="  167.365">  1  5  2 -1</clus>
</clustering>
</event>
<event>
10    4  0.2759992E-005  0.3172807E+03  0.7546771E-02  0.1123807E+00
         21   -1    0    0  501  502  0.00000000000E+00  0.00000000000E+00  0.20014164650E+03  0.20014164650E+03  0.00000000000E+00 0.  1.
         -1   -1    0    0    0  501 -0.00000000000E+00 -0.00000000000E+00 -0.37864088116E+03  0.37864088116E+03  0.00000000000E+00 0.  1.
         24    2    1    2    0    0 -0.52877476422E+02 -0.72273596861E+01 -0.12343722349E+03  0.15383523233E+03  0.74701193577E+02 0.  0.
         23    2    1    2    0    0 -0.97871554993E+02 -0.54817977843E+01 -0.79116576889E+02  0.15808734422E+03  0.95515884956E+02 0.  0.
        -13    1    3    3    0    0 -0.32725842391E+02  0.20927189835E+02 -0.11006640571E+03  0.11671992846E+03  0.00000000000E+00 0.  1.
         14    1    3    3    0    0 -0.20151634031E+02 -0.28154549521E+02 -0.13370817779E+02  0.37115303864E+02  0.00000000000E+00 0. -1.
        -11    1    4    4    0    0 -0.18465816674E+02  0.40500827340E+02 -0.19052435348E+02  0.48417958377E+02  0.00000000000E+00 0.  1.
         11    1    4    4    0    0 -0.79405738319E+02 -0.45982625125E+02 -0.60064141541E+02  0.10966938584E+03  0.00000000000E+00 0. -1.
         21    1    1    2  503  502 -0.32384083036E+02  0.14934441178E+02  0.69538725450E+02  0.78149860554E+02  0.00000000000E+00 0.  1.
         -2    1    1    2    0  503  0.18313311445E+03 -0.22252837074E+01 -0.45484159731E+02  0.18871009057E+03  0.00000000000E+00 0.  1.
<scales pt_clust_5="13000.00000" pt_clust_6="13000.00000" pt_clust_7="13000.00000" pt_clust_8="13000.00000" pt_clust_9="35.66183" pt_clust_10="13000.00000"></scales>
<clustering>
<clus scale="   35.662">  1  9  2 -1</clus>
<clus scale="   74.701">  5  6 -1 -1</clus>
<clus scale="   93.985">  2  5  1 -1</clus>
<clus scale="   95.516">  7  8 -1 -1</clus>
<clus scale="  140.935">  7 10 -1 -1</clus>
<clus scale="   35.662">  1  5  2 -1</clus>
</clustering>
</event>
<event>
10    4  0.2759992E-005  0.1312337E+04  0.7546771E-02  0.9823476E-01
         21   -1    0    0  503  502  0.00000000000E+00  0.00000000000E+00  0.10357808847E+04  0.10357808847E+04  0.00000000000E+00 0.  1.
         -3   -1    0    0    0  501 -0.00000000000E+00 -0.00000000000E+00 -0.51787513428E+03  0.51787513428E+03  0.00000000000E+00 0.  1.
         24    2    1    2    0    0 -0.17664928619E+02  0.97532583538E+01  0.14443760174E+03  0.16212691845E+03  0.70821897317E+02 0.  0.
         23    2    1    2    0    0 -0.34257433366E+03 -0.48595346947E+03  0.43945036737E+03  0.74495571186E+03  0.91293146877E+02 0.  0.
        -13    1    3    3    0    0  0.26612315822E+02  0.41662310018E+01  0.36806500516E+02  0.45610210638E+02  0.00000000000E+00 0.  1.
         14    1    3    3    0    0 -0.44277244440E+02  0.55870273520E+01  0.10763110122E+03  0.11651670781E+03  0.00000000000E+00 0. -1.
        -13    1    4    4    0    0 -0.14542733766E+02 -0.70557349673E+02  0.58878715384E+02  0.93040495611E+02  0.00000000000E+00 0. -1.
         13    1    4    4    0    0 -0.32803159989E+03 -0.41539611980E+03  0.38057165199E+03  0.65191521625E+03  0.00000000000E+00 0.  1.
         21    1    1    2  503  501 -0.27088075046E+02  0.25373015020E+01  0.12043842085E+02  0.29753249247E+02  0.00000000000E+00 0.  1.
         -4    1    1    2    0  502  0.38732733732E+03  0.47366290962E+03 -0.78026060806E+02  0.61682013939E+03  0.00000000000E+00 0.  1.
<scales pt_clust_5="13000.00000" pt_clust_6="13000.00000" pt_clust_7="13000.00000" pt_clust_8="13000.00000" pt_clust_9="27.20665" pt_clust_10="13000.00000"></scales>
<clustering>
<clus scale="   27.207">  1  9  2 -1</clus>
<clus scale="   70.822">  5  6 -1 -1</clus>
<clus scale="   74.779">  2  5  1 -1</clus>
<clus scale="   91.293">  7  8 -1 -1</clus>
<clus scale="  604.197">  7 10 -1 -1</clus>
<clus scale="   27.207">  1  5  2 -1</clus>
</clustering>
</event>
<event>
10    4  0.3331443E-005  0.2663236E+03  0.7546771E-02  0.1139169E+00
         -1   -1    0    0    0  501 -0.00000000000E+00  0.00000000000E+00  0.63919828142E+03  0.63919828142E+03  0.00000000000E+00 0.  1.
         21   -1    0    0  501  502  0.00000000000E+00 -0.00000000000E+00 -0.94340195231E+02  0.94340195231E+02  0.00000000000E+00 0.  1.
         24    2    1    2    0    0 -0.55639172043E+01 -0.80878910479E+02  0.57521226947E+02  0.12766580114E+03  0.80109362097E+02 0.  0.
         23    2    1    2    0    0  0.26994294852E+02 -0.92286683175E+01  0.46987792732E+03  0.47891782715E+03  0.88108786764E+02 0.  0.
        -13    1    3    3    0    0  0.18504615730E+02 -0.85609028897E+02  0.34851198986E+02  0.94265225310E+02  0.00000000000E+00 0.  1.
         14    1    3    3    0    0 -0.24068532934E+02  0.47301184179E+01  0.22670027960E+02  0.33400575827E+02  0.00000000000E+00 0. -1.
        -13    1    4    4    0    0 -0.32255503753E+02 -0.47248133401E+01  0.19320210765E+03  0.19593314111E+03  0.00000000000E+00 0.  1.
         13    1    4    4    0    0  0.59249798605E+02 -0.45038549773E+01  0.27667581967E+03  0.28298468604E+03  0.00000000000E+00 0. -1.
         21    1    1    2  503  502  0.18745459919E+02  0.13395583749E+02 -0.21942270788E+02  0.31816617967E+02  0.00000000000E+00 0.  1.
         -2    1    1    2    0  503 -0.40175837566E+02  0.76711995048E+02  0.39401202712E+02  0.95138230399E+02  0.00000000000E+00 0.  1.
<scales pt_clust_5="13000.00000" pt_clust_6="13000.00000" pt_clust_7="13000.00000" pt_clust_8="13000.00000" pt_clust_9="23.03983" pt_clust_10="13000.00000"></scales>
<clustering>
<clus scale="   23.040">  2  9  1 -1</clus>
<clus scale="   80.109">  5  6 -1 -1</clus>
<clus scale="   88.109">  7  8 -1 -1</clus>
<clus scale="   88.409">  7 10 -1 -1</clus>
<clus scale="  109.080">  1  5  2 -1</clus>
<clus scale="   23.040">  2  5  1 -1</clus>
</clustering>
</event>
<event>
10    4  0.2759992E-005  0.2258783E+03  0.7546771E-02  0.1154723E+00
          2   -1    0    0  503    0 -0.00000000000E+00  0.00000000000E+00  0.18633482974E+04  0.18633482974E+04  0.00000000000E+00 0. -1.
         21   -1    0    0  501  502  0.00000000000E+00 -0.00000000000E+00 -0.37651169341E+02  0.37651169341E+02  0.00000000000E+00 0.  1.
         24    2    1    2    0    0  0.11679428973E+03 -0.29866604040E+02  0.53329653155E+03  0.55237168316E+03  0.78589857194E+02 0.  0.
         23    2    1    2    0    0  0.15808545746E+02  0.13115079611E+03  0.68815284398E+03  0.70659468709E+03  0.90946543166E+02 0.  0.
        -13    1    3    3    0    0  0.12508314344E+03 -0.38771629024E+02  0.50183380781E+03  0.51863879786E+03  0.00000000000E+00 0.  1.
         14    1    3    3    0    0 -0.82888537101E+01  0.89050249849E+01  0.31462723737E+02  0.33732885302E+02  0.00000000000E+00 0. -1.
        -13    1    4    4    0    0  0.49885402227E+02  0.10836352299E+03  0.50155309910E+03  0.51554506853E+03  0.00000000000E+00 0. -1.
         13    1    4    4    0    0 -0.34076856480E+02  0.22787273116E+02  0.18659974488E+03  0.19104961856E+03  0.00000000000E+00 0.  1.
         21    1    1    2  503  502 -0.89873072348E+02 -0.61360222920E+02  0.15728556633E+03  0.19126158910E+03  0.00000000000E+00 0.  1.
          1    1    1    2  501    0 -0.42729763124E+02 -0.39923969150E+02  0.44696218616E+03  0.45077150734E+03  0.00000000000E+00 0. -1.
<scales pt_clust_5="13000.00000" pt_clust_6="13000.00000" pt_clust_7="13000.00000" pt_clust_8="13000.00000" pt_clust_9="108.82208" pt_clust_10="13000.00000"></scales>
<clustering>
<clus scale="   78.590">  5  6 -1 -1</clus>
<clus scale="   90.947">  7  8 -1 -1</clus>
<clus scale="   58.479">  7 10 -1 -1</clus>
<clus scale="  108.822">  2  9  1 -1</clus>
<clus scale="  123.427">  1  5  2 -1</clus>
<clus scale="  108.822">  2  5  1 -1</clus>
</clustering>
</event>
<event>
10    4  0.2759992E-005  0.1918186E+03  0.7546771E-02  0.1196721E+00
         -1   -1    0    0    0  501 -0.00000000000E+00  0.00000000000E+00  0.43081867187E+03  0.43081867187E+03  0.00000000000E+00 0.  1.
         21   -1    0    0  501  502  0.00000000000E+00 -0.00000000000E+00 -0.78655967524E+02  0.78655967524E+02  0.00000000000E+00 0.  1.
         24    2    1    2    0    0  0.49660673844E+01  0.10092207190E+02  0.21876773201E+03  0.23227646123E+03  0.77243248246E+02 0.  0.
         23    2    1    2    0    0  0.48218223902E+02  0.34496121127E+02  0.48479134346E+02  0.12201969707E+03  0.94992634020E+02 0.  0.
        -13    1    3    3    0    0  0.38727435645E+02  0.18424823859E+02  0.10906643851E+03  0.11719546244E+03  0.00000000000E+00 0.  1.
         14    1    3    3    0    0 -0.33761368261E+02 -0.83326166682E+01  0.10970129350E+03  0.11508099879E+03  0.00000000000E+00 0. -1.
        -11    1    4    4    0    0  0.69867048746E+02  0.48605262914E+02  0.43937445332E+02  0.95782958744E+02  0.00000000000E+00 0.  1.
         11    1    4    4    0    0 -0.21648824845E+02 -0.14109141787E+02  0.45416890143E+01  0.26236738330E+02  0.00000000000E+00 0. -1.
         21    1    1    2  503  502  0.71001114134E+01 -0.19817933100E+02 -0.21691291290E+02  0.30227043723E+02  0.00000000000E+00 0.  1.
         -2    1    1    2    0  503 -0.60284402699E+02 -0.24770395218E+02  0.10660712928E+03  0.12495143737E+03  0.00000000000E+00 0.  1.
<scales pt_clust_5="13000.00000" pt_clust_6="13000.00000" pt_clust_7="13000.00000" pt_clust_8="13000.00000" pt_clust_9="21.05141" pt_clust_10="13000.00000"></scales>
<clustering>
<clus scale="   21.051">  2  9  1 -1</clus>
<clus scale="   77.243">  5  6 -1 -1</clus>
<clus scale="   77.834">  1  5  2 -1</clus>
<clus scale="   94.993">  7  8 -1 -1</clus>
<clus scale="   60.600">  7 10 -1 -1</clus>
<clus scale="   21.051">  2  5  1 -1</clus>
</clustering>
</event>
<event>
10    4  0.2759992E-005  0.6986359E+03  0.7546771E-02  0.1032778E+00
          2   -1    0    0  503    0 -0.00000000000E+00  0.00000000000E+00  0.80326018959E+03  0.80326018959E+03  0.00000000000E+00 0. -1.
         21   -1    0    0  501  502  0.00000000000E+00 -0.00000000000E+00 -0.23368373761E+03  0.23368373761E+03  0.00000000000E+00 0.  1.
         24    2    1    2    0    0  0.51841141787E+02  0.39450643010E+02  0.13901264095E+03  0.17405631831E+03  0.82019695088E+02 0.  0.
         23    2    1    2    0    0  0.14612749289E+03 -0.26986621085E+03  0.40341697961E+03  0.51494318948E+03  0.90775619078E+02 0.  0.
        -13    1    3    3    0    0  0.39105120264E+02 -0.49271647714E+01  0.11591300727E+03  0.12243084839E+03  0.00000000000E+00 0.  1.
         14    1    3    3    0    0  0.12736021523E+02  0.44377807781E+02  0.23099633683E+02  0.51625469916E+02  0.00000000000E+00 0. -1.
        -13    1    4    4    0    0  0.40641066694E+02 -0.16858707187E+03  0.23133433451E+03  0.28911740076E+03  0.00000000000E+00 0. -1.
         13    1    4    4    0    0  0.10548642619E+03 -0.10127913899E+03  0.17208264510E+03  0.22582578872E+03  0.00000000000E+00 0.  1.
         21    1    1    2  503  502 -0.13758798466E+02 -0.21096354183E+02 -0.20620093343E+02  0.32550713425E+02  0.00000000000E+00 0. -1.
          1    1    1    2  501    0 -0.18420983621E+03  0.25151192202E+03  0.47766924756E+02  0.31539370599E+03  0.00000000000E+00 0. -1.
<scales pt_clust_5="13000.00000" pt_clust_6="13000.00000" pt_clust_7="13000.00000" pt_clust_8="13000.00000" pt_clust_9="25.18652" pt_clust_10="13000.00000"></scales>
<clustering>
<clus scale="   25.187">  2  9  1 -1</clus>
<clus scale="   82.020">  5  6 -1 -1</clus>
<clus scale="   90.776">  7  8 -1 -1</clus>
<clus scale="  103.509">  1  5  2 -1</clus>
<clus scale="  306.142">  7 10 -1 -1</clus>
<clus scale="   25.187">  2  5  1 -1</clus>
</clustering>
</event>
<event>
10    4  0.2759992E-005  0.2584665E+03  0.7546771E-02  0.1142519E+00
         21   -1    0    0  501  502  0.00000000000E+00  0.00000000000E+00  0.38255669045E+03  0.38255669045E+03  0.00000000000E+00 0. -1.
          2   -1    0    0  503    0 -0.00000000000E+00 -0.00000000000E+00 -0.49894152420E+03  0.49894152420E+03  0.00000000000E+00 0. -1.
         24    2    1    2    0    0  0.32320364650E+02 -0.10466299993E+03 -0.20130690073E+02  0.13784960247E+03  0.81230035656E+02 0.  0.
         23    2    1    2    0    0 -0.83865454862E+02 -0.13999197052E+02 -0.10275519227E+03  0.16261393387E+03  0.93033703102E+02 0.  0.
        -13    1    3    3    0    0 -0.18308326370E+02 -0.76022073485E+02 -0.12271373856E+02  0.79152618957E+02  0.00000000000E+00 0.  1.
         14    1    3    3    0    0  0.50628691020E+02 -0.28640926444E+02 -0.78593162162E+01  0.58696983511E+02  0.00000000000E+00 0. -1.
        -11    1    4    4    0    0 -0.15424080891E+02  0.17150774016E+02 -0.81165304532E+02  0.84379250888E+02  0.00000000000E+00 0.  1.
         11    1    4    4    0    0 -0.68441373971E+02 -0.31149971068E+02 -0.21589887735E+02  0.78234682980E+02  0.00000000000E+00 0. -1.
         21    1    1    2  503  502 -0.21984977436E+02  0.54232076671E+02  0.28236200516E+03  0.28836220163E+03  0.00000000000E+00 0. -1.
          1    1    1    2  501    0  0.73530067648E+02  0.64430120309E+02 -0.27586095656E+03  0.29267247668E+03  0.00000000000E+00 0. -1.
<scales pt_clust_5="13000.00000" pt_clust_6="13000.00000" pt_clust_7="13000.00000" pt_clust_8="13000.00000" pt_clust_9="58.51886" pt_clust_10="13000.00000"></scales>
<clustering>
<clus scale="   58.519">  1  9  2 -1</clus>
<clus scale="   81.230">  5  6 -1 -1</clus>
<clus scale="   93.034">  7  8 -1 -1</clus>
<clus scale="   99.540">  7 10 -1 -1</clus>
<clus scale="  110.081">  2  5  1 -1</clus>
<clus scale="   58.519">  1  5  2 -1</clus>
</clustering>
</event>
<event>
10    4  0.2759992E-005  0.2715444E+03  0.7546771E-02  0.1112448E+00
         21   -1    0    0  503  502  0.00000000000E+00  0.00000000000E+00  0.29806957057E+03  0.29806957057E+03  0.00000000000E+00 0.  1.
         -3   -1    0    0    0  501 -0.00000000000E+00 -0.00000000000E+00 -0.39724826671E+03  0.39724826671E+03  0.00000000000E+00 0.  1.
         24    2    1    2    0    0  0.13816921050E+03  0.17966199832E+03  0.11328969873E+03  0.26573627825E+03  0.80075273147E+02 0.  0.
         23    2    1    2    0    0  0.17475631877E+02 -0.36068602214E+02 -0.13434870244E+03  0.16597321124E+03  0.88832377135E+02 0.  0.
        -11    1    3    3    0    0  0.12591726768E+03  0.13055194426E+03  0.57202316063E+02  0.19018694333E+03  0.00000000000E+00 0.  1.
         12    1    3    3    0    0  0.12251942821E+02  0.49110054056E+02  0.56087382665E+02  0.75549334918E+02  0.00000000000E+00 0. -1.
        -13    1    4    4    0    0 -0.55737232784E+01 -0.33842694119E+02 -0.51110028491E+01  0.34677322367E+02  0.00000000000E+00 0. -1.
         13    1    4    4    0    0  0.23049355156E+02 -0.22259080943E+01 -0.12923769959E+03  0.13129588887E+03  0.00000000000E+00 0.  1.
         21    1    1    2  503  501 -0.24364224524E+02 -0.54011604702E+02  0.34735268160E+02  0.68683387608E+02  0.00000000000E+00 0.  1.
         -4    1    1    2    0  502 -0.13128061786E+03 -0.89581791400E+02 -0.11285496059E+03  0.19492496019E+03  0.00000000000E+00 0.  1.
<scales pt_clust_5="13000.00000" pt_clust_6="13000.00000" pt_clust_7="13000.00000" pt_clust_8="13000.00000" pt_clust_9="59.25259" pt_clust_10="13000.00000"></scales>
<clustering>
<clus scale="   59.253">  1  9  2 -1</clus>
<clus scale="   80.075">  5  6 -1 -1</clus>
<clus scale="   88.832">  7  8 -1 -1</clus>
<clus scale="  167.434">  7 10 -1 -1</clus>
<clus scale="  199.375">  2  5  1 -1</clus>
<clus scale="   59.253">  1  5  2 -1</clus>
</clustering>
</event>
<event>
10    4  0.2759992E-005  0.2838316E+03  0.7546771E-02  0.1112278E+00
         21   -1    0    0  503  502  0.00000000000E+00  0.00000000000E+00  0.53162068475E+03  0.53162068475E+03  0.00000000000E+00 0.  1.
          2   -1    0    0  502    0 -0.00000000000E+00 -0.00000000000E+00 -0.93747309129E+03  0.93747309129E+03  0.00000000000E+00 0. -1.
         24    2    1    2    0    0  0.85927759499E+02 -0.82551712599E+02 -0.38557564250E+02  0.14843220268E+03  0.79668487651E+02 0.  0.
         23    2    1    2    0    0 -0.15574595412E+03  0.15623535884E+02 -0.66996960977E+03  0.69391300186E+03  0.90305476278E+02 0.  0.
        -13    1    3    3    0    0  0.49253128534E+01 -0.58628669996E+02 -0.17564640681E+02  0.61401109554E+02  0.00000000000E+00 0.  1.
         14    1    3    3    0    0  0.81002446646E+02 -0.23923042604E+02 -0.20992923568E+02  0.87031093122E+02  0.00000000000E+00 0. -1.
        -13    1    4    4    0    0 -0.12561337449E+03 -0.22966572235E+02 -0.41189292724E+03  0.43123307712E+03  0.00000000000E+00 0.  1.
         13    1    4    4    0    0 -0.30132579632E+02  0.38590108119E+02 -0.25807668253E+03  0.26267992475E+03  0.00000000000E+00 0. -1.
         21    1    1    2  503  501  0.50714547824E+02 -0.24660687015E+02  0.44929519560E+03  0.45282037016E+03  0.00000000000E+00 0.  1.
          1    1    1    2  501    0  0.19103646799E+02  0.91588863730E+02 -0.14662042812E+03  0.17392820135E+03  0.00000000000E+00 0. -1.
<scales pt_clust_5="13000.00000" pt_clust_6="13000.00000" pt_clust_7="13000.00000" pt_clust_8="13000.00000" pt_clust_9="56.39251" pt_clust_10="13000.00000"></scales>
<clustering>
<clus scale="   56.393">  1  9  2 -1</clus>
<clus scale="   79.668">  5  6 -1 -1</clus>
<clus scale="   90.305">  7  8 -1 -1</clus>
<clus scale="   91.693">  7 10 -1 -1</clus>
<clus scale="  175.340">  2  5  1 -1</clus>
<clus scale="   56.393">  1  5  2 -1</clus>
</clustering>
</event>
<event>
10    4  0.2759992E-005  0.6043070E+03  0.7546771E-02  0.1044239E+00
          2   -1    0    0  502    0 -0.00000000000E+00  0.00000000000E+00  0.48475512991E+03  0.48475512991E+03  0.00000000000E+00 0. -1.
         21   -1    0    0  503  502  0.00000000000E+00 -0.00000000000E+00 -0.31433330939E+03  0.31433330939E+03  0.00000000000E+00 0. -1.
         24    2    1    2    0    0  0.44697726341E+01  0.82683623204E+02  0.32129380682E+02  0.11843678426E+03  0.78348033476E+02 0.  0.
         23    2    1    2    0    0  0.89616827971E+02 -0.23768551953E+02 -0.20448075526E+03  0.24100369628E+03  0.87602981850E+02 0.  0.
        -13    1    3    3    0    0 -0.30156438621E+02  0.14016754787E+02 -0.39539926394E+01  0.33489017049E+02  0.00000000000E+00 0.  1.
         14    1    3    3    0    0  0.34626211256E+02  0.68666868417E+02  0.36083373322E+02  0.84947767212E+02  0.00000000000E+00 0. -1.
        -11    1    4    4    0    0  0.74252147233E+02  0.13090550027E+01 -0.19717935963E+03  0.21070072343E+03  0.00000000000E+00 0. -1.
         11    1    4    4    0    0  0.15364680738E+02 -0.25077606956E+02 -0.73013956370E+01  0.30302972842E+02  0.00000000000E+00 0.  1.
         21    1    1    2  503  501 -0.34125559863E+02  0.48447425201E+01 -0.36620037051E+02  0.50289685619E+02  0.00000000000E+00 0. -1.
          1    1    1    2  501    0 -0.59961040742E+02 -0.63759813770E+02  0.37939323215E+03  0.38935827314E+03  0.00000000000E+00 0. -1.
<scales pt_clust_5="13000.00000" pt_clust_6="13000.00000" pt_clust_7="13000.00000" pt_clust_8="13000.00000" pt_clust_9="34.46774" pt_clust_10="13000.00000"></scales>
<clustering>
<clus scale="   34.468">  2  9  1 -1</clus>
<clus scale="   78.348">  5  6 -1 -1</clus>
<clus scale="   87.603">  7  8 -1 -1</clus>
<clus scale="   87.892">  7 10 -1 -1</clus>
<clus scale="  114.473">  1  5  2 -1</clus>
<clus scale="   34.468">  2  5  1 -1</clus>
</clustering>
</event>
<event>
10    4  0.2759992E-005  0.1623141E+03  0.7546771E-02  0.1194775E+00
         21   -1    0    0  501  502  0.00000000000E+00  0.00000000000E+00  0.56369831520E+03  0.56369831520E+03  0.00000000000E+00 0.  1.
         -1   -1    0    0    0  501 -0.00000000000E+00 -0.00000000000E+00 -0.94344708845E+02  0.94344708845E+02  0.00000000000E+00 0.  1.
         24    2    1    2    0    0  0.66388355816E+02 -0.62025187541E+02  0.85288672799E+02  0.14801834693E+03  0.79879507017E+02 0.  0.
         23    2    1    2    0    0 -0.60927014437E+02  0.36329811857E+02  0.60953743102E+02  0.13069408316E+03  0.91288708269E+02 0.  0.
        -13    1    3    3    0    0 -0.13149685057E+02 -0.33826965507E+02  0.30469533185E+02  0.47387448391E+02  0.00000000000E+00 0.  1.
         14    1    3    3    0    0  0.79538040873E+02 -0.28198222034E+02  0.54819139614E+02  0.10063089853E+03  0.00000000000E+00 0. -1.
        -13    1    4    4    0    0 -0.69100026228E+02  0.46242753472E+01  0.68158433192E+02  0.97168768452E+02  0.00000000000E+00 0.  1.
         13    1    4    4    0    0  0.81730117907E+01  0.31705536510E+02 -0.72046900899E+01  0.33525314710E+02  0.00000000000E+00 0. -1.
         21    1    1    2  503  502  0.40542451420E+02 -0.56936044826E+01  0.32099811504E+03  0.32359835808E+03  0.00000000000E+00 0.  1.
         -2    1    1    2    0  503 -0.46003792799E+02  0.31388980166E+02  0.21130754192E+01  0.55732235874E+02  0.00000000000E+00 0.  1.
<scales pt_clust_5="13000.00000" pt_clust_6="13000.00000" pt_clust_7="13000.00000" pt_clust_8="13000.00000" pt_clust_9="40.94029" pt_clust_10="13000.00000"></scales>
<clustering>
<clus scale="   40.940">  1  9  2 -1</clus>
<clus scale="   79.880">  5  6 -1 -1</clus>
<clus scale="   91.289">  7  8 -1 -1</clus>
<clus scale="   51.341">  7 10 -1 -1</clus>
<clus scale="  134.050">  2  5  1 -1</clus>
<clus scale="   40.940">  1  5  2 -1</clus>
</clustering>
</event>
<event>
10    4  0.2759992E-005  0.1958391E+03  0.7546771E-02  0.1180806E+00
          2   -1    0    0  502    0 -0.00000000000E+00  0.00000000000E+00  0.10288842356E+04  0.10288842356E+04  0.00000000000E+00 0. -1.
         21   -1    0    0  503  502  0.00000000000E+00 -0.00000000000E+00 -0.37671393735E+02  0.37671393735E+02  0.00000000000E+00 0. -1.
         24    2    1    2    0    0 -0.32318217988E+02  0.57901972789E+02  0.58262530808E+03  0.59185947116E+03  0.80301172600E+02 0.  0.
         23    2    1    2    0    0  0.97231302792E+02  0.12861136343E+02  0.22709059108E+03  0.26353534588E+03  0.90892281842E+02 0.  0.
        -11    1    3    3    0    0  0.96336184710E+01  0.56371815716E+02  0.24244493014E+03  0.24909863983E+03  0.00000000000E+00 0.  1.
         12    1    3    3    0    0 -0.41951836459E+02  0.15301570730E+01  0.34018037793E+03  0.34276083133E+03  0.00000000000E+00 0. -1.
        -11    1    4    4    0    0  0.92797732297E+02 -0.23809882836E+02  0.17744234814E+03  0.20165345658E+03  0.00000000000E+00 0. -1.
         11    1    4    4    0    0  0.44335704956E+01  0.36671019179E+02  0.49648242944E+02  0.61881889293E+02  0.00000000000E+00 0.  1.
         21    1    1    2  503  501 -0.29825520317E+02 -0.19578675903E+02  0.27234689355E+02  0.44884457405E+02  0.00000000000E+00 0. -1.
          1    1    1    2  501    0 -0.35087564487E+02 -0.51184433228E+02  0.15426225332E+03  0.16627635486E+03  0.00000000000E+00 0. -1.
<scales pt_clust_5="13000.00000" pt_clust_6="13000.00000" pt_clust_7="13000.00000" pt_clust_8="13000.00000" pt_clust_9="35.67753" pt_clust_10="13000.00000"></scales>
<clustering>
<clus scale="   35.678">  2  9  1 -1</clus>
<clus scale="   80.301">  5  6 -1 -1</clus>
<clus scale="   90.892">  7  8 -1 -1</clus>
<clus scale="   68.988">  7 10 -1 -1</clus>
<clus scale="  104.037">  1  5  2 -1</clus>
<clus scale="   35.678">  2  5  1 -1</clus>
</clustering>
</event>
<event>
10    4  0.2759992E-005  0.1900123E+03  0.7546771E-02  0.1192556E+00
         21   -1    0    0  501  502  0.00000000000E+00  0.00000000000E+00  0.18897702072E+03  0.18897702072E+03  0.00000000000E+00 0.  1.
          2   -1    0    0  503    0 -0.00000000000E+00 -0.00000000000E+00 -0.26404387223E+03  0.26404387223E+03  0.00000000000E+00 0. -1.
         24    2    1    2    0    0 -0.43603805801E+02  0.21937364740E+02 -0.12687839391E+02  0.94305763326E+02  0.79687237850E+02 0.  0.
         23    2    1    2    0    0 -0.63812185257E+02 -0.14776372241E+02 -0.67295824056E+02  0.12982924227E+03  0.89646907643E+02 0.  0.
        -11    1    3    3    0    0 -0.48961541397E+02  0.43696390526E+02  0.49168013188E+01  0.65808677363E+02  0.00000000000E+00 0.  1.
         12    1    3    3    0    0  0.53577355963E+01 -0.21759025786E+02 -0.17604640710E+02  0.28497085964E+02  0.00000000000E+00 0. -1.
        -11    1    4    4    0    0 -0.84614810012E+02 -0.11014341349E+02 -0.67322753607E+02  0.10868916663E+03  0.00000000000E+00 0.  1.
         11    1    4    4    0    0  0.20802624755E+02 -0.37620308918E+01  0.26929551673E-01  0.21140075646E+02  0.00000000000E+00 0. -1.
         21    1    1    2  503  502  0.37372153986E+02  0.92540379523E+01  0.10144069304E+03  0.10850128717E+03  0.00000000000E+00 0.  1.
          1    1    1    2  501    0  0.70043837072E+02 -0.16415030452E+02 -0.96523881103E+02  0.12038460018E+03  0.00000000000E+00 0. -1.
<scales pt_clust_5="13000.00000" pt_clust_6="13000.00000" pt_clust_7="13000.00000" pt_clust_8="13000.00000" pt_clust_9="38.50085" pt_clust_10="13000.00000"></scales>
<clustering>
<clus scale="   38.501">  1  9  2 -1</clus>
<clus scale="   79.687">  5  6 -1 -1</clus>
<clus scale="   87.729">  2  5  1 -1</clus>
<clus scale="   89.647">  7  8 -1 -1</clus>
<clus scale="   60.475">  7 10 -1 -1</clus>
<clus scale="   38.501">  1  5  2 -1</clus>
</clustering>
</event>
<event>
10    4  0.2759992E-005  0.1476168E+03  0.7546771E-02  0.1219184E+00
          2   -1    0    0  502    0 -0.00000000000E+00  0.00000000000E+00  0.68307866721E+03  0.68307866721E+03  0.00000000000E+00 0. -1.
         21   -1    0    0  503  502  0.00000000000E+00 -0.00000000000E+00 -0.13079535646E+03  0.13079535646E+03  0.00000000000E+00 0. -1.
         24    2    1    2    0    0  0.10895948784E+02 -0.55404609949E+02  0.31853599334E+03  0.33343028608E+03  0.80760040356E+02 0.  0.
         23    2    1    2    0    0  0.72138447113E+01  0.67582132672E+02  0.29546853347E+03  0.32020046225E+03  0.10299173529E+03 0.  0.
        -13    1    3    3    0    0  0.31860753920E+02 -0.26339620844E+02  0.62729606617E+02  0.75125806571E+02  0.00000000000E+00 0.  1.
         14    1    3    3    0    0 -0.20964805136E+02 -0.29064989105E+02  0.25580638672E+03  0.25830447950E+03  0.00000000000E+00 0. -1.
        -13    1    4    4    0    0  0.48796112880E+02  0.65201410159E+02  0.18456404277E+03  0.20173291849E+03  0.00000000000E+00 0. -1.
         13    1    4    4    0    0 -0.41582268169E+02  0.23807225123E+01  0.11090449070E+03  0.11846754376E+03  0.00000000000E+00 0.  1.
         21    1    1    2  503  501  0.23775184641E+00 -0.41067153116E+02 -0.10047337973E+03  0.10854246923E+03  0.00000000000E+00 0. -1.
          1    1    1    2  501    0 -0.18347545342E+02  0.28889630394E+02  0.38752163674E+02  0.51700806123E+02  0.00000000000E+00 0. -1.
<scales pt_clust_5="13000.00000" pt_clust_6="13000.00000" pt_clust_7="13000.00000" pt_clust_8="13000.00000" pt_clust_9="41.06784" pt_clust_10="13000.00000"></scales>
<clustering>
<clus scale="   41.068">  2  9  1 -1</clus>
<clus scale="   80.760">  5  6 -1 -1</clus>
<clus scale="  102.992">  7  8 -1 -1</clus>
<clus scale="   26.211">  7 10 -1 -1</clus>
<clus scale="  105.530">  1  5  2 -1</clus>
<clus scale="   41.068">  2  5  1 -1</clus>
</clustering>
</event>
<event>
10    4  0.2759992E-005  0.3730845E+03  0.7546771E-02  0.1107357E+00
         21   -1    0    0  503  502  0.00000000000E+00  0.00000000000E+00  0.13506196622E+03  0.13506196622E+03  0.00000000000E+00 0. -1.
          2   -1    0    0  502    0 -0.00000000000E+00 -0.00000000000E+00 -0.81238655904E+03  0.81238655904E+03  0.00000000000E+00 0. -1.
         24    2    1    2    0    0  0.10301497945E+02  0.30381981478E+02 -0.89856253959E+01  0.87977704115E+02  0.81425728729E+02 0.  0.
         23    2    1    2    0    0  0.32764725023E+02 -0.10915589272E+03 -0.35331914414E+03  0.38353004552E+03  0.96293001205E+02 0.  0.
        -13    1    3    3    0    0 -0.32757168088E+02 -0.29201121853E+01 -0.53448732311E+00  0.32891409107E+02  0.00000000000E+00 0.  1.
         14    1    3    3    0    0  0.43058666033E+02  0.33302093664E+02 -0.84511380728E+01  0.55086295008E+02  0.00000000000E+00 0. -1.
        -13    1    4    4    0    0 -0.10636178968E+02 -0.10465873618E+03 -0.26166315862E+03  0.28201806314E+03  0.00000000000E+00 0. -1.
         13    1    4    4    0    0  0.43400903991E+02 -0.44971565388E+01 -0.91655985521E+02  0.10151198238E+03  0.00000000000E+00 0.  1.
         21    1    1    2  503  501  0.79193716248E+01 -0.12140256455E+03 -0.32442254295E+02  0.12591186994E+03  0.00000000000E+00 0. -1.
          1    1    1    2  501    0 -0.50985594593E+02  0.20017647579E+03 -0.28257756899E+03  0.35002890568E+03  0.00000000000E+00 0. -1.
<scales pt_clust_5="13000.00000" pt_clust_6="13000.00000" pt_clust_7="13000.00000" pt_clust_8="13000.00000" pt_clust_9="118.59455" pt_clust_10="13000.00000"></scales>
<clustering>
<clus scale="   81.426">  5  6 -1 -1</clus>
<clus scale="   87.518">  2  5  1 -1</clus>
<clus scale="   96.293">  7  8 -1 -1</clus>
<clus scale="  118.595">  1  9  2 -1</clus>
<clus scale="  152.250">  7 10 -1 -1</clus>
<clus scale="  118.595">  1  5  2 -1</clus>
</clustering>
</event>
<event>
10    4  0.2759992E-005  0.3560809E+03  0.7546771E-02  0.1088891E+00
         21   -1    0    0  503  502  0.00000000000E+00  0.00000000000E+00  0.27084305827E+03  0.27084305827E+03  0.00000000000E+00 0. -1.
          2   -1    0    0  502    0 -0.00000000000E+00 -0.00000000000E+00 -0.13669706549E+04  0.13669706549E+04  0.00000000000E+00 0. -1.
         24    2    1    2    0    0  0.62851603752E+02  0.10176223072E+03 -0.15333608099E+03  0.21065006078E+03  0.80966775135E+02 0.  0.
         23    2    1    2    0    0 -0.19882618990E+03 -0.16300431029E+03 -0.94045240268E+03  0.97838979670E+03  0.81814507334E+02 0.  0.
        -11    1    3    3    0    0  0.42898811571E+02  0.43712677314E+02 -0.13225494360E+03  0.14574798900E+03  0.00000000000E+00 0.  1.
         12    1    3    3    0    0  0.19952792181E+02  0.58049553408E+02 -0.21081137392E+02  0.64902071773E+02  0.00000000000E+00 0. -1.
        -11    1    4    4    0    0 -0.12161387773E+03 -0.68486969123E+02 -0.61919866388E+03  0.63473410618E+03  0.00000000000E+00 0.  1.
         11    1    4    4    0    0 -0.77212312167E+02 -0.94517341171E+02 -0.32125373880E+03  0.34365569052E+03  0.00000000000E+00 0. -1.
         21    1    1    2  503  501  0.89524486214E+02 -0.19874342001E+02  0.20322373565E+03  0.22295629579E+03  0.00000000000E+00 0. -1.
          1    1    1    2  501    0  0.46450099933E+02  0.81116421573E+02 -0.20556284856E+03  0.22581755986E+03  0.00000000000E+00 0. -1.
<scales pt_clust_5="13000.00000" pt_clust_6="13000.00000" pt_clust_7="13000.00000" pt_clust_8="13000.00000" pt_clust_9="91.70400" pt_clust_10="13000.00000"></scales>
<clustering>
<clus scale="   80.967">  5  6 -1 -1</clus>
<clus scale="   81.815">  7  8 -1 -1</clus>
<clus scale="   91.704">  1  9  2 -1</clus>
<clus scale="   99.444">  7 10 -1 -1</clus>
<clus scale="  162.816">  2  5  1 -1</clus>
<clus scale="   91.704">  1  5  2 -1</clus>
</clustering>
</event>
<event>
10    4  0.2759992E-005  0.4047591E+03  0.7546771E-02  0.1075603E+00
          2   -1    0    0  503    0 -0.00000000000E+00  0.00000000000E+00  0.16741201747E+04  0.16741201747E+04  0.00000000000E+00 0. -1.
         21   -1    0    0  501  502  0.00000000000E+00 -0.00000000000E+00 -0.79906777947E+02  0.79906777947E+02  0.00000000000E+00 0. -1.
         24    2    1    2    0    0 -0.10337603234E+03  0.63485735616E+02  0.23002415125E+03  0.27247977850E+03  0.81345416854E+02 0.  0.
         23    2    1    2    0    0  0.12678827371E+03  0.61077373029E+01  0.20158456074E+03  0.25530495658E+03  0.91824369964E+02 0.  0.
        -13    1    3    3    0    0 -0.59111497256E+02  0.13299612685E+01  0.15313543983E+03  0.16415358917E+03  0.00000000000E+00 0.  1.
         14    1    3    3    0    0 -0.44264535082E+02  0.62155774347E+02  0.76888711419E+02  0.10832618933E+03  0.00000000000E+00 0. -1.
        -11    1    4    4    0    0  0.42452374261E+02 -0.66527010913E+01  0.14906915660E+03  0.15513889249E+03  0.00000000000E+00 0.  1.
         11    1    4    4    0    0  0.84335899451E+02  0.12760438394E+02  0.52515404144E+02  0.10016606410E+03  0.00000000000E+00 0. -1.
         21    1    1    2  503  502  0.64379537590E+01  0.68130382675E+02  0.15052614303E+02  0.70069804405E+02  0.00000000000E+00 0. -1.
          1    1    1    2  501    0 -0.29850195134E+02 -0.13772385559E+03  0.11475520704E+04  0.11561724132E+04  0.00000000000E+00 0. -1.
<scales pt_clust_5="13000.00000" pt_clust_6="13000.00000" pt_clust_7="13000.00000" pt_clust_8="13000.00000" pt_clust_9="68.43388" pt_clust_10="13000.00000"></scales>
<clustering>
<clus scale="   68.434">  2  9  1 -1</clus>
<clus scale="   81.345">  5  6 -1 -1</clus>
<clus scale="   91.824">  7  8 -1 -1</clus>
<clus scale="  135.334">  7 10 -1 -1</clus>
<clus scale="  158.329">  1  5  2 -1</clus>
<clus scale="   68.434">  2  5  1 -1</clus>
</clustering>
</event>
<event>
10    4  0.2759992E-005  0.3734789E+03  0.7546771E-02  0.1093302E+00
         -1   -1    0    0    0  501 -0.00000000000E+00  0.00000000000E+00  0.36518963560E+03  0.36518963560E+03  0.00000000000E+00 0.  1.
         21   -1    0    0  501  502  0.00000000000E+00 -0.00000000000E+00 -0.32687382364E+03  0.32687382364E+03  0.00000000000E+00 0.  1.
         24    2    1    2    0    0  0.55296018887E+02  0.64040009064E+02  0.95485661572E+02  0.15073944979E+03  0.80287593627E+02 0.  0.
         23    2    1    2    0    0  0.10657862699E+03 -0.36779888403E+02 -0.13279400425E+02  0.14909169812E+03  0.96644855273E+02 0.  0.
        -13    1    3    3    0    0  0.32764345835E+02  0.37547771750E+02  0.10365769270E+03  0.11501415033E+03  0.00000000000E+00 0.  1.
         14    1    3    3    0    0  0.22531673051E+02  0.26492237313E+02 -0.81720311250E+01  0.35725299454E+02  0.00000000000E+00 0. -1.
        -13    1    4    4    0    0 -0.23885871444E+01 -0.38815031981E+02  0.25018092291E+01  0.38968847887E+02  0.00000000000E+00 0. -1.
         13    1    4    4    0    0  0.10896721413E+03  0.20351435779E+01 -0.15781209654E+02  0.11012285023E+03  0.00000000000E+00 0.  1.
         21    1    1    2  503  502  0.70613027841E+02  0.56902984496E+02 -0.10378946756E+03  0.13782743893E+03  0.00000000000E+00 0.  1.
         -2    1    1    2    0  503 -0.23248767371E+03 -0.84163105156E+02  0.59899018382E+02  0.25440487240E+03  0.00000000000E+00 0.  1.
<scales pt_clust_5="13000.00000" pt_clust_6="13000.00000" pt_clust_7="13000.00000" pt_clust_8="13000.00000" pt_clust_9="90.68710" pt_clust_10="13000.00000"></scales>
<clustering>
<clus scale="   80.288">  5  6 -1 -1</clus>
<clus scale="   90.687">  2  9  1 -1</clus>
<clus scale="   96.645">  7  8 -1 -1</clus>
<clus scale="  125.606">  1  5  2 -1</clus>
<clus scale="  164.776">  7 10 -1 -1</clus>
<clus scale="   90.687">  2  5  1 -1</clus>
</clustering>
</event>
<event>
10    4  0.2759992E-005  0.2609141E+03  0.7546771E-02  0.1151438E+00
         21   -1    0    0  503  502  0.00000000000E+00  0.00000000000E+00  0.97009551874E+02  0.97009551874E+02  0.00000000000E+00 0. -1.
          2   -1    0    0  502    0 -0.00000000000E+00 -0.00000000000E+00 -0.80114285410E+03  0.80114285410E+03  0.00000000000E+00 0. -1.
         24    2    1    2    0    0 -0.23319791309E+02 -0.29432014775E+02 -0.22930458841E+03  0.24573730377E+03  0.79976071680E+02 0.  0.
         23    2    1    2    0    0  0.11645118467E+03 -0.88813003008E+01 -0.39106775786E+03  0.41795353129E+03  0.90063350873E+02 0.  0.
        -13    1    3    3    0    0 -0.23338896390E+02  0.24713335914E+02 -0.96915065352E+02  0.10270337360E+03  0.00000000000E+00 0.  1.
         14    1    3    3    0    0  0.19105080851E-01 -0.54145350689E+02 -0.13238952305E+03  0.14303393017E+03  0.00000000000E+00 0. -1.
        -11    1    4    4    0    0 -0.50126751597E+01  0.21576537876E+02 -0.64675676817E+02  0.68363857928E+02  0.00000000000E+00 0.  1.
         11    1    4    4    0    0  0.12146385983E+03 -0.30457838177E+02 -0.32639208105E+03  0.34958967336E+03  0.00000000000E+00 0. -1.
         21    1    1    2  503  501  0.72933777479E+01  0.21241548759E+02  0.56679997971E+02  0.60967359486E+02  0.00000000000E+00 0. -1.
          1    1    1    2  501    0 -0.10042477111E+03  0.17071766316E+02 -0.14044095393E+03  0.17349421143E+03  0.00000000000E+00 0. -1.
<scales pt_clust_5="13000.00000" pt_clust_6="13000.00000" pt_clust_7="13000.00000" pt_clust_8="13000.00000" pt_clust_9="22.45878" pt_clust_10="13000.00000"></scales>
<clustering>
<clus scale="   22.459">  1  9  2 -1</clus>
<clus scale="   79.976">  5  6 -1 -1</clus>
<clus scale="   86.529">  2  5  1 -1</clus>
<clus scale="   90.063">  7  8 -1 -1</clus>
<clus scale="  105.026">  7 10 -1 -1</clus>
<clus scale="   22.459">  1  5  2 -1</clus>
</clustering>
</event>
<event>
10    4  0.2759992E-005  0.3460611E+03  0.7546771E-02  0.1098501E+00
         21   -1    0    0  503  502  0.00000000000E+00  0.00000000000E+00  0.56275667469E+02  0.56275667469E+02  0.00000000000E+00 0. -1.
          2   -1    0    0  502    0 -0.00000000000E+00 -0.00000000000E+00 -0.12583817792E+04  0.12583817792E+04  0.00000000000E+00 0. -1.
         24    2    1    2    0    0 -0.41482329841E+02 -0.11679075790E+03 -0.40676849347E+03  0.43241351861E+03  0.78485533540E+02 0.  0.
         23    2    1    2    0    0  0.45259401955E+02 -0.91388955356E+02 -0.15302482342E+03  0.20635420095E+03  0.93622139679E+02 0.  0.
        -13    1    3    3    0    0  0.18858361737E+02 -0.26376202338E+02 -0.51224623859E+02  0.60624285123E+02  0.00000000000E+00 0.  1.
         14    1    3    3    0    0 -0.60340691577E+02 -0.90414555566E+02 -0.35554386961E+03  0.37178923348E+03  0.00000000000E+00 0. -1.
        -11    1    4    4    0    0  0.15166645186E+02 -0.21613285674E+02 -0.12107796439E+03  0.12392350344E+03  0.00000000000E+00 0.  1.
         11    1    4    4    0    0  0.30092756769E+02 -0.69775669682E+02 -0.31946859034E+02  0.82430697508E+02  0.00000000000E+00 0. -1.
         21    1    1    2  503  501  0.36898303016E+01  0.44393741266E+02 -0.10338541868E+03  0.11257425952E+03  0.00000000000E+00 0. -1.
          1    1    1    2  501    0 -0.74669024162E+01  0.16378597199E+03 -0.53892737614E+03  0.56331546758E+03  0.00000000000E+00 0. -1.
<scales pt_clust_5="13000.00000" pt_clust_6="13000.00000" pt_clust_7="13000.00000" pt_clust_8="13000.00000" pt_clust_9="44.54684" pt_clust_10="13000.00000"></scales>
<clustering>
<clus scale="   44.547">  1  9  2 -1</clus>
<clus scale="   78.486">  5  6 -1 -1</clus>
<clus scale="   93.622">  7  8 -1 -1</clus>
<clus scale="  137.820">  2  5  1 -1</clus>
<clus scale="  102.328">  7 10 -1 -1</clus>
<clus scale="   44.547">  1  5  2 -1</clus>
</clustering>
</event>
<event>
10    4  0.2759992E-005  0.2142313E+03  0.7546771E-02  0.1163357E+00
         21   -1    0    0  501  502  0.00000000000E+00  0.00000000000E+00  0.53707315909E+03  0.53707315909E+03  0.00000000000E+00 0.  1.
         -1   -1    0    0    0  501 -0.00000000000E+00 -0.00000000000E+00 -0.16053165239E+03  0.16053165239E+03  0.00000000000E+00 0.  1.
         24    2    1    2    0    0  0.81612548131E+02 -0.25892103058E+02  0.14192250898E+03  0.18475493456E+03  0.81617267021E+02 0.  0.
         23    2    1    2    0    0  0.83767640033E+02  0.93739768915E+02 -0.45654995775E+02  0.16146249140E+03  0.90452173526E+02 0.  0.
        -11    1    3    3    0    0  0.64123459870E+02 -0.50787112539E+02  0.73896648252E+02  0.11023549124E+03  0.00000000000E+00 0.  1.
         12    1    3    3    0    0  0.17489088262E+02  0.24895009481E+02  0.68025860723E+02  0.74519443318E+02  0.00000000000E+00 0. -1.
        -13    1    4    4    0    0  0.59623585052E+02  0.11039553909E+03 -0.38946031323E+02  0.13137328610E+03  0.00000000000E+00 0.  1.
         13    1    4    4    0    0  0.24144054980E+02 -0.16655770177E+02 -0.67089644516E+01  0.30089205292E+02  0.00000000000E+00 0. -1.
         21    1    1    2  503  502 -0.12846587581E+03 -0.77731175548E+02  0.27430141474E+03  0.31270894299E+03  0.00000000000E+00 0.  1.
         -2    1    1    2    0  503 -0.36914312355E+02  0.98835096909E+01  0.59725787598E+01  0.38678442543E+02  0.00000000000E+00 0.  1.
<scales pt_clust_5="13000.00000" pt_clust_6="13000.00000" pt_clust_7="13000.00000" pt_clust_8="13000.00000" pt_clust_9="142.64076" pt_clust_10="13000.00000"></scales>
<clustering>
<clus scale="   81.617">  5  6 -1 -1</clus>
<clus scale="   90.452">  7  8 -1 -1</clus>
<clus scale="   38.215">  7 10 -1 -1</clus>
<clus scale="  118.289">  2  5  1 -1</clus>
<clus scale="  142.641">  1  9  2 -1</clus>
<clus scale="  142.641">  1  5  2 -1</clus>
</clustering>
</event>
<event>
10    4  0.2759992E-005  0.1689856E+03  0.7546771E-02  0.1206356E+00
         21   -1    0    0  503  502  0.00000000000E+00  0.00000000000E+00  0.48602460822E+03  0.48602460822E+03  0.00000000000E+00 0. -1.
          2   -1    0    0  502    0 -0.00000000000E+00 -0.00000000000E+00 -0.66731280125E+02  0.66731280125E+02  0.00000000000E+00 0. -1.
         24    2    1    2    0    0 -0.41665954607E+02 -0.23466503045E+02  0.18358518189E+03  0.20672243555E+03  0.82121360278E+02 0.  0.
         23    2    1    2    0    0 -0.57892698096E+01  0.33775053504E+02 -0.66150709624E+01  0.97772058194E+02  0.91330971283E+02 0.  0.
        -11    1    3    3    0    0 -0.67155513564E+01 -0.42315536007E+02  0.43256858060E+02  0.60883979722E+02  0.00000000000E+00 0.  1.
         12    1    3    3    0    0 -0.34950403251E+02  0.18849032962E+02  0.14032832383E+03  0.14583845583E+03  0.00000000000E+00 0. -1.
        -13    1    4    4    0    0 -0.48403284590E+02  0.22017472664E+02 -0.77145463573E+00  0.53181220406E+02  0.00000000000E+00 0.  1.
         13    1    4    4    0    0  0.42614014780E+02  0.11757580841E+02 -0.58436163267E+01  0.44590837789E+02  0.00000000000E+00 0. -1.
         21    1    1    2  503  501  0.27351162168E+02 -0.17494542189E+02  0.15529071369E+03  0.15864851350E+03  0.00000000000E+00 0. -1.
          1    1    1    2  501    0  0.20104062249E+02  0.71859917299E+01  0.87032503484E+02  0.89612881099E+02  0.00000000000E+00 0. -1.
<scales pt_clust_5="13000.00000" pt_clust_6="13000.00000" pt_clust_7="13000.00000" pt_clust_8="13000.00000" pt_clust_9="32.46760" pt_clust_10="13000.00000"></scales>
<clustering>
<clus scale="   32.468">  1  9  2 -1</clus>
<clus scale="   82.121">  5  6 -1 -1</clus>
<clus scale="   91.331">  7  8 -1 -1</clus>
<clus scale="   27.558">  7 10 -1 -1</clus>
<clus scale="   92.394">  2  5  1 -1</clus>
<clus scale="   32.468">  1  5  2 -1</clus>
</clustering>
</event>
<event>
10    4  0.5910524E-005  0.2637732E+03  0.7546771E-02  0.1144880E+00
         21   -1    0    0  501  502  0.00000000000E+00  0.00000000000E+00  0.54807243146E+03  0.54807243146E+03  0.00000000000E+00 0.  1.
         -1   -1    0    0    0  501 -0.00000000000E+00 -0.00000000000E+00 -0.91801685033E+03  0.91801685033E+03  0.00000000000E+00 0.  1.
         24    2    1    2    0    0 -0.22593602910E+02  0.51538588510E+02 -0.11172502044E+03  0.14853283448E+03  0.80080120672E+02 0.  0.
         23    2    1    2    0    0  0.45506152904E+02 -0.39548594963E+02 -0.16910068759E+03  0.20168189126E+03  0.91900170857E+02 0.  0.
        -13    1    3    3    0    0 -0.35867990244E+02 -0.99431592005E+00 -0.74806351536E+02  0.82966810343E+02  0.00000000000E+00 0.  1.
         14    1    3    3    0    0  0.13274387334E+02  0.52532904430E+02 -0.36918668906E+02  0.65566024134E+02  0.00000000000E+00 0. -1.
        -13    1    4    4    0    0  0.70146240171E+02 -0.46617568336E+02 -0.13225888611E+03  0.15679957156E+03  0.00000000000E+00 0. -1.
         13    1    4    4    0    0 -0.24640087267E+02  0.70689733731E+01 -0.36841801483E+02  0.44882319699E+02  0.00000000000E+00 0.  1.
         21    1    1    2  503  502  0.85250284599E+02  0.78220300622E+02  0.49842916460E+03  0.51168120795E+03  0.00000000000E+00 0.  1.
         -2    1    1    2    0  503 -0.10816283459E+03 -0.90210294169E+02 -0.58754787544E+03  0.60419334810E+03  0.00000000000E+00 0.  1.
<scales pt_clust_5="13000.00000" pt_clust_6="13000.00000" pt_clust_7="13000.00000" pt_clust_8="13000.00000" pt_clust_9="115.85189" pt_clust_10="13000.00000"></scales>
<clustering>
<clus scale="   80.080">  5  6 -1 -1</clus>
<clus scale="   91.900">  7  8 -1 -1</clus>
<clus scale="   97.875">  2  5  1 -1</clus>
<clus scale="  115.852">  1  9  2 -1</clus>
<clus scale="   85.848">  7 10 -1 -1</clus>
<clus scale="  115.852">  1  5  2 -1</clus>
</clustering>
</event>
<event>
10    4  0.7124909E-005  0.1495331E+03  0.7546771E-02  0.1222374E+00
          2   -1    0    0  502    0 -0.00000000000E+00  0.00000000000E+00  0.90424082319E+03  0.90424082319E+03  0.00000000000E+00 0. -1.
         21   -1    0    0  503  502  0.00000000000E+00 -0.00000000000E+00 -0.98314282920E+02  0.98314282920E+02  0.00000000000E+00 0. -1.
         24    2    1    2    0    0  0.21024471332E+02  0.44488301768E+02  0.55892175895E+03  0.56697708606E+03  0.81536777609E+02 0.  0.
         23    2    1    2    0    0 -0.10551031691E+02 -0.54610228532E+02  0.26904652861E+03  0.29138943551E+03  0.97098749959E+02 0.  0.
        -13    1    3    3    0    0 -0.22878783183E+02  0.30663537625E+02  0.12775744811E+03  0.13336287642E+03  0.00000000000E+00 0.  1.
         14    1    3    3    0    0  0.43903254515E+02  0.13824764142E+02  0.43116431084E+03  0.43361420964E+03  0.00000000000E+00 0. -1.
        -13    1    4    4    0    0 -0.16572947618E+02 -0.81101640167E+02  0.17667309349E+03  0.19510387129E+03  0.00000000000E+00 0. -1.
         13    1    4    4    0    0  0.60219159273E+01  0.26491411635E+02  0.92373435116E+02  0.96285564219E+02  0.00000000000E+00 0.  1.
         21    1    1    2  503  501  0.17489786216E+02 -0.12304506608E+02 -0.76254915896E+02  0.79196626842E+02  0.00000000000E+00 0. -1.
          1    1    1    2  501    0 -0.27963225857E+02  0.22426433372E+02  0.54213168613E+02  0.64991957696E+02  0.00000000000E+00 0. -1.
<scales pt_clust_5="13000.00000" pt_clust_6="13000.00000" pt_clust_7="13000.00000" pt_clust_8="13000.00000" pt_clust_9="21.38442" pt_clust_10="13000.00000"></scales>
<clustering>
<clus scale="   21.384">  2  9  1 -1</clus>
<clus scale="   81.537">  5  6 -1 -1</clus>
<clus scale="   94.956">  1  5  2 -1</clus>
<clus scale="   97.099">  7  8 -1 -1</clus>
<clus scale="   31.893">  7 10 -1 -1</clus>
<clus scale="   21.384">  2  5  1 -1</clus>
</clustering>
</event>
<event>
10    4  0.2759992E-005  0.1721824E+03  0.7546771E-02  0.1191837E+00
         21   -1    0    0  503  502  0.00000000000E+00  0.00000000000E+00  0.38178549590E+03  0.38178549590E+03  0.00000000000E+00 0.  1.
          2   -1    0    0  502    0 -0.00000000000E+00 -0.00000000000E+00 -0.37955314343E+03  0.37955314343E+03  0.00000000000E+00 0. -1.
         24    2    1    2    0    0 -0.53434106448E+02  0.30316749471E+02  0.33066723262E+03  0.34604528548E+03  0.81438392930E+02 0.  0.
         23    2    1    2    0    0  0.51205950547E+02 -0.57419362157E+02 -0.18824472745E+03  0.22213799366E+03  0.89387797223E+02 0.  0.
        -11    1    3    3    0    0 -0.70551662595E+02  0.70527992141E+01  0.26470828127E+03  0.27403969282E+03  0.00000000000E+00 0.  1.
         12    1    3    3    0    0  0.17117556146E+02  0.23263950257E+02  0.65958951352E+02  0.72005592654E+02  0.00000000000E+00 0. -1.
        -13    1    4    4    0    0  0.33832818080E+01 -0.63860782474E+02 -0.13994218577E+03  0.15386182597E+03  0.00000000000E+00 0.  1.
         13    1    4    4    0    0  0.47822668739E+02  0.64414203176E+01 -0.48302541679E+02  0.68276167685E+02  0.00000000000E+00 0. -1.
         21    1    1    2  503  501 -0.33043514712E+02 -0.69415366323E+01  0.99619083610E+01  0.35203670456E+02  0.00000000000E+00 0. -1.
          1    1    1    2  501    0  0.35271670613E+02  0.34044149318E+02 -0.15015206106E+03  0.15795168974E+03  0.00000000000E+00 0. -1.
<scales pt_clust_5="13000.00000" pt_clust_6="13000.00000" pt_clust_7="13000.00000" pt_clust_8="13000.00000" pt_clust_9="33.76476" pt_clust_10="13000.00000"></scales>
<clustering>
<clus scale="   33.765">  1  9  2 -1</clus>
<clus scale="   81.438">  5  6 -1 -1</clus>
<clus scale="   89.388">  7  8 -1 -1</clus>
<clus scale="   48.711">  7 10 -1 -1</clus>
<clus scale="  119.783">  2  5  1 -1</clus>
<clus scale="   33.765">  1  5  2 -1</clus>
</clustering>
</event>
<event>
10    4  0.2759992E-005  0.2173071E+03  0.7546771E-02  0.1159009E+00
         21   -1    0    0  501  502  0.00000000000E+00  0.00000000000E+00  0.28314588403E+03  0.28314588403E+03  0.00000000000E+00 0. -1.
          2   -1    0    0  503    0 -0.00000000000E+00 -0.00000000000E+00 -0.39881113812E+03  0.39881113812E+03  0.00000000000E+00 0. -1.
         24    2    1    2    0    0 -0.96668406136E+02  0.12434245140E+00 -0.27911828058E+03  0.30613211179E+03  0.80405591265E+02 0.  0.
         23    2    1    2    0    0  0.52878570998E+02  0.30701953913E+02  0.87720711336E+02  0.13697007691E+03  0.85598630404E+02 0.  0.
        -11    1    3    3    0    0 -0.47468440371E+02  0.16613708883E+02 -0.48927438791E+02  0.70165250807E+02  0.00000000000E+00 0.  1.
         12    1    3    3    0    0 -0.49199965764E+02 -0.16489366432E+02 -0.23019084179E+03  0.23596686098E+03  0.00000000000E+00 0. -1.
        -13    1    4    4    0    0  0.65495796758E+02 -0.57543669823E+01  0.63579178674E+02  0.91461052330E+02  0.00000000000E+00 0.  1.
         13    1    4    4    0    0 -0.12617225761E+02  0.36456320896E+02  0.24141532662E+02  0.45509024582E+02  0.00000000000E+00 0. -1.
         21    1    1    2  503  502  0.55242228830E+01 -0.45844862977E+02  0.14837130896E+03  0.15539084214E+03  0.00000000000E+00 0. -1.
          1    1    1    2  501    0  0.38265612255E+02  0.15018566612E+02 -0.72638993807E+02  0.83463991311E+02  0.00000000000E+00 0. -1.
<scales pt_clust_5="13000.00000" pt_clust_6="13000.00000" pt_clust_7="13000.00000" pt_clust_8="13000.00000" pt_clust_9="46.17649" pt_clust_10="13000.00000"></scales>
<clustering>
<clus scale="   46.176">  1  9  2 -1</clus>
<clus scale="   80.406">  5  6 -1 -1</clus>
<clus scale="   85.599">  7  8 -1 -1</clus>
<clus scale="   40.671">  7 10 -1 -1</clus>
<clus scale="  125.385">  2  5  1 -1</clus>
<clus scale="   46.176">  1  5  2 -1</clus>
</clustering>
</event>
<event>
10    4  0.2759992E-005  0.3199047E+03  0.7546771E-02  0.1120055E+00
         21   -1    0    0  501  502  0.00000000000E+00  0.00000000000E+00  0.51871669603E+03  0.51871669603E+03  0.00000000000E+00 0. -1.
          4   -1    0    0  503    0 -0.00000000000E+00 -0.00000000000E+00 -0.14453294084E+03  0.14453294084E+03  0.00000000000E+00 0. -1.
         24    2    1    2    0    0 -0.45554871773E+02  0.35274915057E+02  0.84116313173E+02  0.12968689151E+03  0.80147175324E+02 0.  0.
         23    2    1    2    0    0 -0.51814685909E+02 -0.92383678752E+02 -0.25192828802E+02  0.14038779685E+03  0.88625894098E+02 0.  0.
        -13    1    3    3    0    0  0.17296131496E+02  0.30033609171E+02  0.21342861332E+02  0.40702476268E+02  0.00000000000E+00 0.  1.
         14    1    3    3    0    0 -0.62851003269E+02  0.52413058858E+01  0.62773451841E+02  0.88984415238E+02  0.00000000000E+00 0. -1.
        -13    1    4    4    0    0 -0.55699408190E+02 -0.14708236753E+02 -0.24526699007E+02  0.62612421014E+02  0.00000000000E+00 0.  1.
         13    1    4    4    0    0  0.38847222811E+01 -0.77675441998E+02 -0.66612979554E+00  0.77775375831E+02  0.00000000000E+00 0. -1.
         21    1    1    2  503  502 -0.29569550660E+02 -0.29341128083E+02  0.19137505445E+03  0.19585625236E+03  0.00000000000E+00 0. -1.
          3    1    1    2  501    0  0.12693910834E+03  0.86449891778E+02  0.12388521638E+03  0.19731869615E+03  0.00000000000E+00 0. -1.
<scales pt_clust_5="13000.00000" pt_clust_6="13000.00000" pt_clust_7="13000.00000" pt_clust_8="13000.00000" pt_clust_9="41.65645" pt_clust_10="13000.00000"></scales>
<clustering>
<clus scale="   41.656">  1  9  2 -1</clus>
<clus scale="   80.147">  5  6 -1 -1</clus>
<clus scale="   88.626">  7  8 -1 -1</clus>
<clus scale="  100.678">  2  5  1 -1</clus>
<clus scale="  126.016">  7 10 -1 -1</clus>
<clus scale="   41.656">  1  5  2 -1</clus>
</clustering>
</event>
<event>
10    4  0.2759992E-005  0.1267418E+03  0.7546771E-02  0.1251068E+00
         -1   -1    0    0    0  501 -0.00000000000E+00  0.00000000000E+00  0.24244855134E+03  0.24244855134E+03  0.00000000000E+00 0.  1.
         21   -1    0    0  503  502  0.00000000000E+00 -0.00000000000E+00 -0.20286881249E+03  0.20286881249E+03  0.00000000000E+00 0. -1.
         24    2    1    2    0    0  0.22854256244E+02 -0.55460073523E+01 -0.27318129013E+02  0.88385342086E+02  0.80700763918E+02 0.  0.
         23    2    1    2    0    0 -0.26506673376E+02  0.46214993959E+02  0.17205477409E+03  0.20198358469E+03  0.91411672108E+02 0.  0.
        -11    1    3    3    0    0  0.38219178794E+02  0.99579210311E+01  0.13796697012E+02  0.41835567014E+02  0.00000000000E+00 0.  1.
         12    1    3    3    0    0 -0.15364922550E+02 -0.15503928383E+02 -0.41114826025E+02  0.46549775073E+02  0.00000000000E+00 0. -1.
        -13    1    4    4    0    0  0.14518553796E+02  0.45157936620E+02  0.14566107051E+03  0.15318999676E+03  0.00000000000E+00 0.  1.
         13    1    4    4    0    0 -0.41025227172E+02  0.10570573390E+01  0.26393703576E+02  0.48793587931E+02  0.00000000000E+00 0. -1.
         21    1    1    2  503  501  0.19473756717E+01 -0.20232962855E+02 -0.12486369683E+03  0.12650734304E+03  0.00000000000E+00 0. -1.
         -2    1    1    2    0  502  0.17050414607E+01 -0.20436023752E+02  0.19706790599E+02  0.28441094017E+02  0.00000000000E+00 0.  1.
<scales pt_clust_5="13000.00000" pt_clust_6="13000.00000" pt_clust_7="13000.00000" pt_clust_8="13000.00000" pt_clust_9="20.32646" pt_clust_10="13000.00000"></scales>
<clustering>
<clus scale="   20.326">  2  9  1 -1</clus>
<clus scale="   80.701">  5  6 -1 -1</clus>
<clus scale="   86.791">  1  5  2 -1</clus>
<clus scale="   91.412">  7  8 -1 -1</clus>
<clus scale="   24.771">  7 10 -1 -1</clus>
<clus scale="   20.326">  2  5  1 -1</clus>
</clustering>
</event>
<event>
10    4  0.2759992E-005  0.3190937E+03  0.7546771E-02  0.1128439E+00
         -3   -1    0    0    0  501 -0.00000000000E+00  0.00000000000E+00  0.97394243575E+03  0.97394243575E+03  0.00000000000E+00 0.  1.
         21   -1    0    0  503  502  0.00000000000E+00 -0.00000000000E+00 -0.12812702808E+03  0.12812702808E+03  0.00000000000E+00 0. -1.
         24    2    1    2    0    0 -0.64820589431E+01  0.93218942727E+01  0.69906126656E+03  0.70388825077E+03  0.81505216746E+02 0.  0.
         23    2    1    2    0    0  0.46865641114E+02  0.64377071539E+02 -0.59543827048E+02  0.13407162463E+03  0.89938520865E+02 0.  0.
        -13    1    3    3    0    0  0.26119380091E+02  0.26510818119E+02  0.19757778751E+03  0.20105230069E+03  0.00000000000E+00 0.  1.
         14    1    3    3    0    0 -0.32601439034E+02 -0.17188923846E+02  0.50148347905E+03  0.50283595008E+03  0.00000000000E+00 0. -1.
        -11    1    4    4    0    0  0.70272524300E+02  0.44852559922E+02 -0.61395504165E+02  0.10353447607E+03  0.00000000000E+00 0. -1.
         11    1    4    4    0    0 -0.23406883186E+02  0.19524511617E+02  0.18516771170E+01  0.30537148565E+02  0.00000000000E+00 0.  1.
         21    1    1    2  503  501  0.92908569964E+00  0.41565992698E+02  0.40912447645E+02  0.58330295058E+02  0.00000000000E+00 0.  1.
         -4    1    1    2    0  502 -0.41312667870E+02 -0.11526495851E+03  0.16538552051E+03  0.20577929337E+03  0.00000000000E+00 0.  1.
<scales pt_clust_5="13000.00000" pt_clust_6="13000.00000" pt_clust_7="13000.00000" pt_clust_8="13000.00000" pt_clust_9="41.57637" pt_clust_10="13000.00000"></scales>
<clustering>
<clus scale="   41.576">  2  9  1 -1</clus>
<clus scale="   81.505">  5  6 -1 -1</clus>
<clus scale="   82.390">  1  5  2 -1</clus>
<clus scale="   89.939">  7  8 -1 -1</clus>
<clus scale="  111.315">  7 10 -1 -1</clus>
<clus scale="   41.576">  2  5  1 -1</clus>
</clustering>
</event>
<event>
10    4  0.2759992E-005  0.4095317E+03  0.7546771E-02  0.1087773E+00
         21   -1    0    0  503  502  0.00000000000E+00  0.00000000000E+00  0.11496478307E+03  0.11496478307E+03  0.00000000000E+00 0.  1.
          2   -1    0    0  502    0 -0.00000000000E+00 -0.00000000000E+00 -0.76245547706E+03  0.76245547706E+03  0.00000000000E+00 0. -1.
         24    2    1    2    0    0 -0.66181312748E+02  0.47391511678E+02 -0.18578322425E+03  0.21809606260E+03  0.80153381554E+02 0.  0.
         23    2    1    2    0    0  0.12658959912E+03  0.11096719076E+03 -0.13883266436E+03  0.23651029206E+03  0.91235768890E+02 0.  0.
        -11    1    3    3    0    0 -0.23333185004E+02  0.51472791533E+02 -0.15554629143E+03  0.16549481734E+03  0.00000000000E+00 0.  1.
         12    1    3    3    0    0 -0.42848127744E+02 -0.40812798545E+01 -0.30236932819E+02  0.52601245258E+02  0.00000000000E+00 0. -1.
        -11    1    4    4    0    0  0.70337088873E+02  0.87831196432E+02 -0.38026824146E+02  0.11877568982E+03  0.00000000000E+00 0.  1.
         11    1    4    4    0    0  0.56252510251E+02  0.23135994330E+02 -0.10080584021E+03  0.11773460224E+03  0.00000000000E+00 0. -1.
         21    1    1    2  503  501  0.48961547461E+02  0.88043698295E+01 -0.86896404346E+01  0.50500098106E+02  0.00000000000E+00 0.  1.
          1    1    1    2  501    0 -0.10936983384E+03 -0.16716307227E+03 -0.31418516495E+03  0.37231380737E+03  0.00000000000E+00 0. -1.
<scales pt_clust_5="13000.00000" pt_clust_6="13000.00000" pt_clust_7="13000.00000" pt_clust_8="13000.00000" pt_clust_9="49.74686" pt_clust_10="13000.00000"></scales>
<clustering>
<clus scale="   49.747">  1  9  2 -1</clus>
<clus scale="   80.153">  5  6 -1 -1</clus>
<clus scale="   91.236">  7  8 -1 -1</clus>
<clus scale="  110.244">  2  5  1 -1</clus>
<clus scale="  186.588">  7 10 -1 -1</clus>
<clus scale="   49.747">  1  5  2 -1</clus>
</clustering>
</event>
<event>
10    4  0.2759992E-005  0.1855186E+03  0.7546771E-02  0.1178478E+00
          2   -1    0    0  503    0 -0.00000000000E+00  0.00000000000E+00  0.17025899128E+03  0.17025899128E+03  0.00000000000E+00 0. -1.
         21   -1    0    0  501  502  0.00000000000E+00 -0.00000000000E+00 -0.19006801473E+03  0.19006801473E+03  0.00000000000E+00 0. -1.
         24    2    1    2    0    0  0.94177041172E+02 -0.63513001132E+02 -0.43416774426E+02  0.14484149604E+03  0.78681803984E+02 0.  0.
         23    2    1    2    0    0 -0.55843625327E+02  0.95519899000E+01 -0.19442889102E+02  0.10899321034E+03  0.91059008139E+02 0.  0.
        -13    1    3    3    0    0 -0.53079072043E+01 -0.25072474874E+02  0.74359378095E+01  0.26685127811E+02  0.00000000000E+00 0.  1.
         14    1    3    3    0    0  0.99484948377E+02 -0.38440526258E+02 -0.50852712236E+02  0.11815636823E+03  0.00000000000E+00 0. -1.
        -11    1    4    4    0    0 -0.17697154107E+02 -0.38846778688E+02 -0.20509681529E+02  0.47359355088E+02  0.00000000000E+00 0.  1.
         11    1    4    4    0    0 -0.38146471221E+02  0.48398768588E+02  0.10667924268E+01  0.61633855254E+02  0.00000000000E+00 0. -1.
         21    1    1    2  503  502 -0.12529714663E+02  0.17588286227E+02 -0.19886563646E+02  0.29356719429E+02  0.00000000000E+00 0. -1.
          1    1    1    2  501    0 -0.25803701182E+02  0.36372725005E+02  0.62937203731E+02  0.77135580198E+02  0.00000000000E+00 0. -1.
<scales pt_clust_5="13000.00000" pt_clust_6="13000.00000" pt_clust_7="13000.00000" pt_clust_8="13000.00000" pt_clust_9="21.59494" pt_clust_10="13000.00000"></scales>
<clustering>
<clus scale="   21.595">  2  9  1 -1</clus>
<clus scale="   78.682">  5  6 -1 -1</clus>
<clus scale="   91.059">  7  8 -1 -1</clus>
<clus scale="   45.523">  7 10 -1 -1</clus>
<clus scale="  128.962">  1  5  2 -1</clus>
<clus scale="   21.595">  2  5  1 -1</clus>
</clustering>
</event>
<event>
10    4  0.2759992E-005  0.2923276E+03  0.7546771E-02  0.1139020E+00
         21   -1    0    0  503  502  0.00000000000E+00  0.00000000000E+00  0.10405071009E+03  0.10405071009E+03  0.00000000000E+00 0. -1.
          2   -1    0    0  502    0 -0.00000000000E+00 -0.00000000000E+00 -0.44109932441E+03  0.44109932441E+03  0.00000000000E+00 0. -1.
         24    2    1    2    0    0 -0.11191095401E+02  0.14110169711E+02 -0.71302419982E+02  0.10928014066E+03  0.80831779275E+02 0.  0.
         23    2    1    2    0    0  0.66542357261E+02  0.11461047273E+03 -0.22822783050E+03  0.27928046758E+03  0.91357491125E+02 0.  0.
        -11    1    3    3    0    0 -0.44201061925E+02  0.80260594408E+01 -0.23025246498E+02  0.50480822910E+02  0.00000000000E+00 0.  1.
         12    1    3    3    0    0  0.33009966524E+02  0.60841102700E+01 -0.48277173484E+02  0.58799317745E+02  0.00000000000E+00 0. -1.
        -11    1    4    4    0    0  0.24167832950E+02 -0.51707469046E+01 -0.81610530817E+02  0.85270742422E+02  0.00000000000E+00 0.  1.
         11    1    4    4    0    0  0.42374524311E+02  0.11978121963E+03 -0.14661729969E+03  0.19400972515E+03  0.00000000000E+00 0. -1.
         21    1    1    2  503  501 -0.17075047031E+02 -0.20116040709E+02  0.14640162017E+02  0.30175265845E+02  0.00000000000E+00 0. -1.
          1    1    1    2  501    0 -0.38276214830E+02 -0.10860460173E+03 -0.52158525846E+02  0.12641416043E+03  0.00000000000E+00 0. -1.
<scales pt_clust_5="13000.00000" pt_clust_6="13000.00000" pt_clust_7="13000.00000" pt_clust_8="13000.00000" pt_clust_9="26.38584" pt_clust_10="13000.00000"></scales>
<clustering>
<clus scale="   26.386">  1  9  2 -1</clus>
<clus scale="   80.832">  5  6 -1 -1</clus>
<clus scale="   82.781">  2  5  1 -1</clus>
<clus scale="   91.357">  7  8 -1 -1</clus>
<clus scale="  125.512">  7 10 -1 -1</clus>
<clus scale="   26.386">  1  5  2 -1</clus>
</clustering>
</event>
<event>
10    4  0.2759992E-005  0.2780307E+03  0.7546771E-02  0.1138665E+00
         21   -1    0    0  501  502  0.00000000000E+00  0.00000000000E+00  0.68098688447E+02  0.68098688447E+02  0.00000000000E+00 0.  1.
          2   -1    0    0  503    0 -0.00000000000E+00 -0.00000000000E+00 -0.69677430158E+03  0.69677430158E+03  0.00000000000E+00 0. -1.
         24    2    1    2    0    0  0.25853213948E+02 -0.57431417929E+02 -0.74022439185E+02  0.12586633024E+03  0.79976591256E+02 0.  0.
         23    2    1    2    0    0 -0.29821990152E+02 -0.39573738406E+02 -0.59857517856E+02  0.11942216912E+03  0.90682413754E+02 0.  0.
        -13    1    3    3    0    0  0.49822558482E+02 -0.56954247678E+02 -0.44315587780E+02  0.87692331378E+02  0.00000000000E+00 0.  1.
         14    1    3    3    0    0 -0.23969344534E+02 -0.47717025083E+00 -0.29706851406E+02  0.38173998864E+02  0.00000000000E+00 0. -1.
        -13    1    4    4    0    0  0.52819275676E+01 -0.32281631427E+02 -0.73978934155E+02  0.80888102866E+02  0.00000000000E+00 0. -1.
         13    1    4    4    0    0 -0.35103917719E+02 -0.72921069784E+01  0.14121416299E+02  0.38534066250E+02  0.00000000000E+00 0.  1.
         21    1    1    2  503  502  0.24465725702E+01  0.21497003419E+02 -0.27886271473E+01  0.21814749934E+02  0.00000000000E+00 0.  1.
          1    1    1    2  501    0  0.15222036336E+01  0.75508152916E+02 -0.49200702895E+03  0.49776974074E+03  0.00000000000E+00 0. -1.
<scales pt_clust_5="13000.00000" pt_clust_6="13000.00000" pt_clust_7="13000.00000" pt_clust_8="13000.00000" pt_clust_9="21.63578" pt_clust_10="13000.00000"></scales>
<clustering>
<clus scale="   21.636">  1  9  2 -1</clus>
<clus scale="   79.977">  5  6 -1 -1</clus>
<clus scale="   90.682">  7  8 -1 -1</clus>
<clus scale="   76.583">  7 10 -1 -1</clus>
<clus scale="   97.047">  2  5  1 -1</clus>
<clus scale="   21.636">  1  5  2 -1</clus>
</clustering>
</event>
<event>
10    4  0.2759992E-005  0.2472801E+03  0.7546771E-02  0.1137537E+00
         21   -1    0    0  503  502  0.00000000000E+00  0.00000000000E+00  0.36043748167E+03  0.36043748167E+03  0.00000000000E+00 0. -1.
          2   -1    0    0  502    0 -0.00000000000E+00 -0.00000000000E+00 -0.70098645395E+03  0.70098645395E+03  0.00000000000E+00 0. -1.
         24    2    1    2    0    0 -0.69751141442E+02  0.78409341445E+02 -0.28474530976E+03  0.31529994318E+03  0.85562352614E+02 0.  0.
         23    2    1    2    0    0 -0.69309742920E+01 -0.10130753869E+03 -0.85164170294E+02  0.16138296273E+03  0.92088375790E+02 0.  0.
        -13    1    3    3    0    0 -0.73750567963E+02  0.19408338857E+02 -0.16181527942E+03  0.17888547885E+03  0.00000000000E+00 0.  1.
         14    1    3    3    0    0  0.39994265216E+01  0.59001002588E+02 -0.12293003034E+03  0.13641446433E+03  0.00000000000E+00 0. -1.
        -11    1    4    4    0    0  0.31944316118E+02 -0.42852793225E+01 -0.24941160167E+02  0.40753704391E+02  0.00000000000E+00 0.  1.
         11    1    4    4    0    0 -0.38875290410E+02 -0.97022259370E+02 -0.60223010127E+02  0.12062925833E+03  0.00000000000E+00 0. -1.
         21    1    1    2  503  501  0.11621982665E+02  0.48630528624E+02  0.30054552401E+03  0.30467623930E+03  0.00000000000E+00 0. -1.
          1    1    1    2  501    0  0.65060133069E+02 -0.25732331377E+02 -0.27118501623E+03  0.28006479040E+03  0.00000000000E+00 0. -1.
<scales pt_clust_5="13000.00000" pt_clust_6="13000.00000" pt_clust_7="13000.00000" pt_clust_8="13000.00000" pt_clust_9="49.99999" pt_clust_10="13000.00000"></scales>
<clustering>
<clus scale="   50.000">  1  9  2 -1</clus>
<clus scale="   85.562">  5  6 -1 -1</clus>
<clus scale="   92.088">  7  8 -1 -1</clus>
<clus scale="   69.525">  7 10 -1 -1</clus>
<clus scale="  141.757">  2  5  1 -1</clus>
<clus scale="   50.000">  1  5  2 -1</clus>
</clustering>
</event>
<event>
10    4  0.2759992E-005  0.2010359E+03  0.7546771E-02  0.1176538E+00
          2   -1    0    0  502    0 -0.00000000000E+00  0.00000000000E+00  0.20359269923E+03  0.20359269923E+03  0.00000000000E+00 0. -1.
         21   -1    0    0  503  502  0.00000000000E+00 -0.00000000000E+00 -0.46061213514E+03  0.46061213514E+03  0.00000000000E+00 0.  1.
         24    2    1    2    0    0 -0.67667877168E+02 -0.52263833510E+01  0.52049475182E+02  0.11798389870E+03  0.81269894811E+02 0.  0.
         23    2    1    2    0    0  0.20560775681E+02  0.44922908827E+02  0.11876650010E+01  0.10551754206E+03  0.93229436877E+02 0.  0.
        -13    1    3    3    0    0 -0.34296061286E+02  0.29392050913E+02  0.53324101075E+02  0.69882560286E+02  0.00000000000E+00 0.  1.
         14    1    3    3    0    0 -0.33371815881E+02 -0.34618434264E+02 -0.12746258935E+01  0.48101338414E+02  0.00000000000E+00 0. -1.
        -11    1    4    4    0    0 -0.12635661762E+02  0.48225229428E+02 -0.31371105895E+02  0.58902283374E+02  0.00000000000E+00 0.  1.
         11    1    4    4    0    0  0.33196437443E+02 -0.33023206005E+01  0.32558770896E+02  0.46615258688E+02  0.00000000000E+00 0. -1.
         21    1    1    2  503  501  0.89885698068E+02 -0.10883078984E+03 -0.32836023050E+03  0.35741295515E+03  0.00000000000E+00 0.  1.
          1    1    1    2  501    0 -0.42778596582E+02  0.69134264365E+02  0.18103654417E+02  0.83290438455E+02  0.00000000000E+00 0. -1.
<scales pt_clust_5="13000.00000" pt_clust_6="13000.00000" pt_clust_7="13000.00000" pt_clust_8="13000.00000" pt_clust_9="136.53500" pt_clust_10="13000.00000"></scales>
<clustering>
<clus scale="   81.270">  5  6 -1 -1</clus>
<clus scale="   93.229">  7  8 -1 -1</clus>
<clus scale="   81.299">  7 10 -1 -1</clus>
<clus scale="  105.882">  1  5  2 -1</clus>
<clus scale="  136.535">  2  9  1 -1</clus>
<clus scale="  136.535">  2  5  1 -1</clus>
</clustering>
</event>
<event>
10    4  0.2759992E-005  0.2508062E+03  0.7546771E-02  0.1138569E+00
         21   -1    0    0  503  502  0.00000000000E+00  0.00000000000E+00  0.10264967989E+04  0.10264967989E+04  0.00000000000E+00 0.  1.
          2   -1    0    0  502    0 -0.00000000000E+00 -0.00000000000E+00 -0.54136493860E+02  0.54136493860E+02  0.00000000000E+00 0. -1.
         24    2    1    2    0    0 -0.81489630711E+02  0.93725411157E+02  0.25859936136E+03  0.29776333598E+03  0.79776951249E+02 0.  0.
         23    2    1    2    0    0 -0.29490276976E+02  0.44756344442E+02  0.25031550571E+03  0.27050768637E+03  0.87428537571E+02 0.  0.
        -11    1    3    3    0    0 -0.60822119934E+02  0.20136311115E+02  0.73507576809E+02  0.97509820772E+02  0.00000000000E+00 0.  1.
         12    1    3    3    0    0 -0.20667510777E+02  0.73589100042E+02  0.18509178455E+03  0.20025351521E+03  0.00000000000E+00 0. -1.
        -13    1    4    4    0    0 -0.32331199050E+02 -0.55473879167E+01  0.18567660186E+03  0.18855206290E+03  0.00000000000E+00 0.  1.
         13    1    4    4    0    0  0.28409220743E+01  0.50303732359E+02  0.64638903845E+02  0.81955623466E+02  0.00000000000E+00 0. -1.
         21    1    1    2  503  501  0.16000160118E+02 -0.50927677194E+02  0.29654300459E+03  0.30130945389E+03  0.00000000000E+00 0.  1.
          1    1    1    2  501    0  0.94979747568E+02 -0.87554078406E+02  0.16690243337E+03  0.21105281651E+03  0.00000000000E+00 0. -1.
<scales pt_clust_5="13000.00000" pt_clust_6="13000.00000" pt_clust_7="13000.00000" pt_clust_8="13000.00000" pt_clust_9="53.38196" pt_clust_10="13000.00000"></scales>
<clustering>
<clus scale="   53.382">  1  9  2 -1</clus>
<clus scale="   79.777">  5  6 -1 -1</clus>
<clus scale="   87.429">  7  8 -1 -1</clus>
<clus scale="  132.510">  2  5  1 -1</clus>
<clus scale="   64.667">  7 10 -1 -1</clus>
<clus scale="   53.382">  1  5  2 -1</clus>
</clustering>
</event>
<event>
10    4  0.2759992E-005  0.3205689E+03  0.7546771E-02  0.1103591E+00
         21   -1    0    0  503  502  0.00000000000E+00  0.00000000000E+00  0.13319563110E+03  0.13319563110E+03  0.00000000000E+00 0.  1.
         -1   -1    0    0    0  501 -0.00000000000E+00 -0.00000000000E+00 -0.92146821357E+03  0.92146821357E+03  0.00000000000E+00 0.  1.
         24    2    1    2    0    0  0.60829535763E+02 -0.90595689215E+02 -0.57775501567E+03  0.59683295928E+03  0.10247395686E+03 0.  0.
         23    2    1    2    0    0 -0.60964707221E+02  0.15099410099E+03 -0.21575186567E+02  0.18765101649E+03  0.90727621226E+02 0.  0.
        -13    1    3    3    0    0  0.67737729183E+00 -0.56332049165E+02 -0.10613988451E+03  0.12016419470E+03  0.00000000000E+00 0.  1.
         14    1    3    3    0    0  0.60152158472E+02 -0.34263640050E+02 -0.47161513115E+03  0.47666876459E+03  0.00000000000E+00 0. -1.
        -13    1    4    4    0    0 -0.30084869338E+02  0.93153112949E+02 -0.56845252721E+02  0.11319887178E+03  0.00000000000E+00 0. -1.
         13    1    4    4    0    0 -0.30879837883E+02  0.57840988037E+02  0.35270066154E+02  0.74452144706E+02  0.00000000000E+00 0.  1.
         21    1    1    2  503  501  0.51611511119E+01 -0.33011935868E+02  0.32725864665E+02  0.46769729619E+02  0.00000000000E+00 0.  1.
         -2    1    1    2    0  502 -0.50259796544E+01 -0.27386475904E+02 -0.22166824491E+03  0.22341013928E+03  0.00000000000E+00 0.  1.
<scales pt_clust_5="13000.00000" pt_clust_6="13000.00000" pt_clust_7="13000.00000" pt_clust_8="13000.00000" pt_clust_9="33.41295" pt_clust_10="13000.00000"></scales>
<clustering>
<clus scale="   33.413">  1  9  2 -1</clus>
<clus scale="   90.728">  7  8 -1 -1</clus>
<clus scale="   28.138">  7 10 -1 -1</clus>
<clus scale="  102.474">  5  6 -1 -1</clus>
<clus scale="  151.970">  2  5  1 -1</clus>
<clus scale="   33.413">  1  5  2 -1</clus>
</clustering>
</event>
<event>
10    4  0.2759992E-005  0.4331011E+03  0.7546771E-02  0.1052120E+00
          2   -1    0    0  502    0 -0.00000000000E+00  0.00000000000E+00  0.15420049914E+04  0.15420049914E+04  0.00000000000E+00 0. -1.
         21   -1    0    0  503  502  0.00000000000E+00 -0.00000000000E+00 -0.10079323856E+03  0.10079323856E+03  0.00000000000E+00 0. -1.
         24    2    1    2    0    0 -0.69976844329E+01  0.22965553218E+03  0.59634964363E+03  0.64410229631E+03  0.80276021410E+02 0.  0.
         23    2    1    2    0    0  0.32514650316E+02  0.67062770507E+02  0.31000998498E+03  0.33152907084E+03  0.90833453947E+02 0.  0.
        -13    1    3    3    0    0 -0.34838299133E+02  0.82748648909E+02  0.16930812306E+03  0.19164103558E+03  0.00000000000E+00 0.  1.
         14    1    3    3    0    0  0.27840614700E+02  0.14690688327E+03  0.42704152056E+03  0.45246126073E+03  0.00000000000E+00 0. -1.
        -11    1    4    4    0    0 -0.30329395946E+02  0.20285878349E+02  0.68234739245E+02  0.77378089654E+02  0.00000000000E+00 0. -1.
         11    1    4    4    0    0  0.62844046262E+02  0.46776892158E+02  0.24177524573E+03  0.25415098119E+03  0.00000000000E+00 0.  1.
         21    1    1    2  503  501  0.16631380860E+02  0.16502055145E+02 -0.18546157200E+02  0.29881107748E+02  0.00000000000E+00 0. -1.
          1    1    1    2  501    0 -0.42148346744E+02 -0.31322035783E+03  0.55339828145E+03  0.63728575506E+03  0.00000000000E+00 0. -1.
<scales pt_clust_5="13000.00000" pt_clust_6="13000.00000" pt_clust_7="13000.00000" pt_clust_8="13000.00000" pt_clust_9="23.42906" pt_clust_10="13000.00000"></scales>
<clustering>
<clus scale="   23.429">  2  9  1 -1</clus>
<clus scale="   80.276">  5  6 -1 -1</clus>
<clus scale="   90.833">  7  8 -1 -1</clus>
<clus scale="  248.151">  1  5  2 -1</clus>
<clus scale="  160.904">  7 10 -1 -1</clus>
<clus scale="   23.429">  2  5  1 -1</clus>
</clustering>
</event>
<event>
10    4  0.2759992E-005  0.2779627E+03  0.7546771E-02  0.1111806E+00
         21   -1    0    0  503  502  0.00000000000E+00  0.00000000000E+00  0.73227739149E+02  0.73227739149E+02  0.00000000000E+00 0.  1.
          2   -1    0    0  502    0 -0.00000000000E+00 -0.00000000000E+00 -0.14051070930E+04  0.14051070930E+04  0.00000000000E+00 0. -1.
         24    2    1    2    0    0 -0.27814442018E+02  0.17843822988E+03 -0.90283001493E+03  0.92425511168E+03  0.80818503738E+02 0.  0.
         23    2    1    2    0    0 -0.22429971837E+02  0.21238158879E+02 -0.52762884474E+02  0.11301029521E+03  0.95043368075E+02 0.  0.
        -11    1    3    3    0    0 -0.53692918356E+02  0.12632378633E+03 -0.69548677855E+03  0.70890231176E+03  0.00000000000E+00 0.  1.
         12    1    3    3    0    0  0.25878476338E+02  0.52114443552E+02 -0.20734323638E+03  0.21535279993E+03  0.00000000000E+00 0. -1.
        -11    1    4    4    0    0  0.34679629506E+02  0.85018938849E+01 -0.39047332455E+02  0.52911747979E+02  0.00000000000E+00 0.  1.
         11    1    4    4    0    0 -0.57109601343E+02  0.12736264994E+02 -0.13715552019E+02  0.60098547227E+02  0.00000000000E+00 0. -1.
         21    1    1    2  503  501  0.47898391894E+02 -0.55228982092E+02 -0.20123848457E+03  0.21410610473E+03  0.00000000000E+00 0.  1.
          1    1    1    2  501    0  0.23460219603E+01 -0.14444740666E+03 -0.17504796989E+03  0.22696332054E+03  0.00000000000E+00 0. -1.
<scales pt_clust_5="13000.00000" pt_clust_6="13000.00000" pt_clust_7="13000.00000" pt_clust_8="13000.00000" pt_clust_9="73.10610" pt_clust_10="13000.00000"></scales>
<clustering>
<clus scale="   73.106">  1  9  2 -1</clus>
<clus scale="   80.819">  5  6 -1 -1</clus>
<clus scale="   95.043">  7  8 -1 -1</clus>
<clus scale="  167.230">  7 10 -1 -1</clus>
<clus scale="  188.930">  2  5  1 -1</clus>
<clus scale="   73.106">  1  5  2 -1</clus>
</clustering>
</event>
<event>
10    4  0.2759992E-005  0.1959697E+03  0.7546771E-02  0.1186922E+00
         21   -1    0    0  501  502  0.00000000000E+00  0.00000000000E+00  0.22922833021E+03  0.22922833021E+03  0.00000000000E+00 0. -1.
          2   -1    0    0  503    0 -0.00000000000E+00 -0.00000000000E+00 -0.17334734767E+03  0.17334734767E+03  0.00000000000E+00 0. -1.
         24    2    1    2    0    0 -0.41587576286E+01 -0.64301859549E+02  0.13295328945E+02  0.99398728951E+02  0.74507161662E+02 0.  0.
         23    2    1    2    0    0 -0.88807365451E+02  0.50099730803E+02 -0.38429512590E+02  0.14156389228E+03  0.90370221720E+02 0.  0.
        -13    1    3    3    0    0  0.26267393622E+02  0.11844836838E+01  0.32721017673E+01  0.26496898295E+02  0.00000000000E+00 0.  1.
         14    1    3    3    0    0 -0.30426151251E+02 -0.65486343233E+02  0.10023227178E+02  0.72901830656E+02  0.00000000000E+00 0. -1.
        -11    1    4    4    0    0 -0.25088185068E+02  0.11661469114E+02 -0.58308608217E+02  0.64539140714E+02  0.00000000000E+00 0.  1.
         11    1    4    4    0    0 -0.63719180382E+02  0.38438261689E+02  0.19879095627E+02  0.77024751562E+02  0.00000000000E+00 0. -1.
         21    1    1    2  503  502  0.38329371945E+02  0.33599487429E+02  0.89520656478E+02  0.10301463122E+03  0.00000000000E+00 0. -1.
          1    1    1    2  501    0  0.54636751134E+02 -0.19397358683E+02 -0.85054902857E+01  0.58598425434E+02  0.00000000000E+00 0. -1.
<scales pt_clust_5="13000.00000" pt_clust_6="13000.00000" pt_clust_7="13000.00000" pt_clust_8="13000.00000" pt_clust_9="50.97123" pt_clust_10="13000.00000"></scales>
<clustering>
<clus scale="   50.971">  1  9  2 -1</clus>
<clus scale="   74.507">  5  6 -1 -1</clus>
<clus scale="   90.370">  7  8 -1 -1</clus>
<clus scale="   63.222">  7 10 -1 -1</clus>
<clus scale="   90.574">  2  5  1 -1</clus>
<clus scale="   50.971">  1  5  2 -1</clus>
</clustering>
</event>
<event>
10    4  0.2759992E-005  0.4583411E+03  0.7546771E-02  0.1081501E+00
          2   -1    0    0  503    0 -0.00000000000E+00  0.00000000000E+00  0.12875707586E+04  0.12875707586E+04  0.00000000000E+00 0. -1.
         21   -1    0    0  501  502  0.00000000000E+00 -0.00000000000E+00 -0.19206077178E+03  0.19206077178E+03  0.00000000000E+00 0.  1.
         24    2    1    2    0    0  0.44738804357E+02  0.11780454398E+02  0.28349286260E+03  0.29835104555E+03  0.80652362113E+02 0.  0.
         23    2    1    2    0    0 -0.10618929885E+03 -0.46558945203E+02  0.11473722322E+03  0.18724802666E+03  0.91941777934E+02 0.  0.
        -13    1    3    3    0    0 -0.23579706391E+02  0.45598371801E+01  0.63975965383E+02  0.68335340895E+02  0.00000000000E+00 0.  1.
         14    1    3    3    0    0  0.68318510748E+02  0.72206172178E+01  0.21951689722E+03  0.23001570466E+03  0.00000000000E+00 0. -1.
        -13    1    4    4    0    0 -0.11159128964E+03 -0.26566441995E+02  0.61568821102E+02  0.13018875334E+03  0.00000000000E+00 0. -1.
         13    1    4    4    0    0  0.54019907916E+01 -0.19992503208E+02  0.53168402116E+02  0.57059273327E+02  0.00000000000E+00 0.  1.
         21    1    1    2  503  502 -0.13254412748E+03 -0.82889237316E+02 -0.86090375398E+02  0.17846603074E+03  0.00000000000E+00 0.  1.
          1    1    1    2  501    0  0.19399462196E+03  0.11766772812E+03  0.78337027641E+03  0.81556642743E+03  0.00000000000E+00 0. -1.
<scales pt_clust_5="13000.00000" pt_clust_6="13000.00000" pt_clust_7="13000.00000" pt_clust_8="13000.00000" pt_clust_9="154.28236" pt_clust_10="13000.00000"></scales>
<clustering>
<clus scale="   80.652">  5  6 -1 -1</clus>
<clus scale="   91.942">  7  8 -1 -1</clus>
<clus scale="   92.979">  1  5  2 -1</clus>
<clus scale="  154.282">  2  9  1 -1</clus>
<clus scale="  199.014">  7 10 -1 -1</clus>
<clus scale="  154.282">  2  5  1 -1</clus>
</clustering>
</event>
<event>
10    4  0.2759992E-005  0.5432063E+03  0.7546771E-02  0.1054652E+00
          2   -1    0    0  503    0 -0.00000000000E+00  0.00000000000E+00  0.26669734746E+04  0.26669734746E+04  0.00000000000E+00 0. -1.
         21   -1    0    0  501  502  0.00000000000E+00 -0.00000000000E+00 -0.58558352336E+02  0.58558352336E+02  0.00000000000E+00 0.  1.
         24    2    1    2    0    0 -0.73020091462E+02  0.45352561674E+02  0.63814806654E+03  0.64856031460E+03  0.77516051484E+02 0.  0.
         23    2    1    2    0    0 -0.23411940280E+03 -0.55301195141E+02  0.77970876585E+03  0.82103906029E+03  0.91045384395E+02 0.  0.
        -13    1    3    3    0    0 -0.14487974038E+02  0.15061634893E+02  0.28399088635E+02  0.35259927293E+02  0.00000000000E+00 0.  1.
         14    1    3    3    0    0 -0.58532117424E+02  0.30290926781E+02  0.60974897790E+03  0.61330038730E+03  0.00000000000E+00 0. -1.
        -11    1    4    4    0    0 -0.20048772961E+03 -0.99871033973E+01  0.61505422254E+03  0.64698281942E+03  0.00000000000E+00 0.  1.
         11    1    4    4    0    0 -0.33631673190E+02 -0.45314091743E+02  0.16465454331E+03  0.17405624087E+03  0.00000000000E+00 0. -1.
         21    1    1    2  503  502  0.24460798880E+02  0.61975401835E+02  0.60849647302E+02  0.90232813828E+02  0.00000000000E+00 0. -1.
          1    1    1    2  501    0  0.28267869539E+03 -0.52026768369E+02  0.11297086426E+04  0.11656996383E+04  0.00000000000E+00 0. -1.
<scales pt_clust_5="13000.00000" pt_clust_6="13000.00000" pt_clust_7="13000.00000" pt_clust_8="13000.00000" pt_clust_9="66.62793" pt_clust_10="13000.00000"></scales>
<clustering>
<clus scale="   66.628">  2  9  1 -1</clus>
<clus scale="   77.516">  5  6 -1 -1</clus>
<clus scale="   91.045">  7  8 -1 -1</clus>
<clus scale="  117.061">  1  5  2 -1</clus>
<clus scale="  249.539">  7 10 -1 -1</clus>
<clus scale="   66.628">  2  5  1 -1</clus>
</clustering>
</event>
<event>
10    4  0.2759992E-005  0.4368018E+03  0.7546771E-02  0.1058271E+00
          2   -1    0    0  503    0 -0.00000000000E+00  0.00000000000E+00  0.10044071142E+04  0.10044071142E+04  0.00000000000E+00 0. -1.
         21   -1    0    0  501  502  0.00000000000E+00 -0.00000000000E+00 -0.58019407424E+03  0.58019407424E+03  0.00000000000E+00 0.  1.
         24    2    1    2    0    0  0.12411685969E+03 -0.13073214170E+03  0.46783123432E+03  0.50923604479E+03  0.89215457015E+02 0.  0.
         23    2    1    2    0    0  0.13212308785E+03  0.27309213647E+03  0.29401833121E+03  0.43212744333E+03  0.90837893233E+02 0.  0.
        -13    1    3    3    0    0  0.81151099091E+02 -0.40096021586E+02  0.14272142276E+03  0.16900472285E+03  0.00000000000E+00 0.  1.
         14    1    3    3    0    0  0.42965760595E+02 -0.90636120114E+02  0.32510981157E+03  0.34023132194E+03  0.00000000000E+00 0. -1.
        -13    1    4    4    0    0  0.93698864919E+02  0.24413677514E+03  0.27739972986E+03  0.38122546136E+03  0.00000000000E+00 0. -1.
         13    1    4    4    0    0  0.38424222934E+02  0.28955361333E+02  0.16618601352E+02  0.50901981974E+02  0.00000000000E+00 0.  1.
         21    1    1    2  503  502 -0.11253535516E+03 -0.11221996578E+03 -0.43762858693E+03  0.46559242582E+03  0.00000000000E+00 0.  1.
          1    1    1    2  501    0 -0.14370459238E+03 -0.30140028991E+02  0.99992061365E+02  0.17764527451E+03  0.00000000000E+00 0. -1.
<scales pt_clust_5="13000.00000" pt_clust_6="13000.00000" pt_clust_7="13000.00000" pt_clust_8="13000.00000" pt_clust_9="158.92617" pt_clust_10="13000.00000"></scales>
<clustering>
<clus scale="   89.215">  5  6 -1 -1</clus>
<clus scale="   90.838">  7  8 -1 -1</clus>
<clus scale="  146.831">  7 10 -1 -1</clus>
<clus scale="  158.926">  2  9  1 -1</clus>
<clus scale="  203.314">  1  5  2 -1</clus>
<clus scale="  158.926">  2  5  1 -1</clus>
</clustering>
</event>
<event>
10    4  0.2759992E-005  0.1807603E+03  0.7546771E-02  0.1184698E+00
          2   -1    0    0  503    0 -0.00000000000E+00  0.00000000000E+00  0.70128116990E+03  0.70128116990E+03  0.00000000000E+00 0. -1.
         21   -1    0    0  501  502  0.00000000000E+00 -0.00000000000E+00 -0.57572723786E+02  0.57572723786E+02  0.00000000000E+00 0. -1.
         24    2    1    2    0    0 -0.80614047067E+02 -0.17232088742E+02  0.30309257004E+03  0.32463330866E+03  0.82012862504E+02 0.  0.
         23    2    1    2    0    0  0.69317579265E+02 -0.29664119932E+02  0.26223000551E+03  0.28791482888E+03  0.91899325877E+02 0.  0.
        -13    1    3    3    0    0 -0.39682727167E+02 -0.47655544128E+02  0.20354193303E+03  0.21277943562E+03  0.00000000000E+00 0.  1.
         14    1    3    3    0    0 -0.40931319900E+02  0.30423455386E+02  0.99550637006E+02  0.11185387304E+03  0.00000000000E+00 0. -1.
        -11    1    4    4    0    0  0.12539097127E+02 -0.38635319088E+02  0.35290255711E+02  0.53808168395E+02  0.00000000000E+00 0.  1.
         11    1    4    4    0    0  0.56778482138E+02  0.89711991565E+01  0.22693974980E+03  0.23410666049E+03  0.00000000000E+00 0. -1.
         21    1    1    2  503  502 -0.35073787475E+02  0.58864274145E+02  0.69500481224E+02  0.97598617966E+02  0.00000000000E+00 0.  1.
          1    1    1    2  501    0  0.46370255277E+02 -0.11968065471E+02  0.88853893523E+01  0.48707138178E+02  0.00000000000E+00 0. -1.
<scales pt_clust_5="13000.00000" pt_clust_6="13000.00000" pt_clust_7="13000.00000" pt_clust_8="13000.00000" pt_clust_9="68.52133" pt_clust_10="13000.00000"></scales>
<clustering>
<clus scale="   68.521">  2  9  1 -1</clus>
<clus scale="   82.013">  5  6 -1 -1</clus>
<clus scale="   91.899">  7  8 -1 -1</clus>
<clus scale="   33.815">  7 10 -1 -1</clus>
<clus scale="  121.270">  1  5  2 -1</clus>
<clus scale="   68.521">  2  5  1 -1</clus>
</clustering>
</event>
<event>
10    4  0.2759992E-005  0.3810929E+03  0.7546771E-02  0.1104163E+00
         21   -1    0    0  501  502  0.00000000000E+00  0.00000000000E+00  0.10195618640E+03  0.10195618640E+03  0.00000000000E+00 0.  1.
          2   -1    0    0  503    0 -0.00000000000E+00 -0.00000000000E+00 -0.73022550223E+03  0.73022550223E+03  0.00000000000E+00 0. -1.
         24    2    1    2    0    0 -0.45829956493E+02  0.54193696075E+01 -0.25417794333E+03  0.26984477270E+03  0.77974482999E+02 0.  0.
         23    2    1    2    0    0 -0.74155487823E+02  0.15529059113E+03 -0.18414735779E+03  0.26816714117E+03  0.91592369498E+02 0.  0.
        -11    1    3    3    0    0 -0.11910801962E+02 -0.34918325287E+02 -0.12494885309E+03  0.13028189641E+03  0.00000000000E+00 0.  1.
         12    1    3    3    0    0 -0.33919154531E+02  0.40337694895E+02 -0.12922909024E+03  0.13956287629E+03  0.00000000000E+00 0. -1.
        -11    1    4    4    0    0  0.55539119754E+01  0.22013944647E+02  0.51904589441E+01  0.23289494653E+02  0.00000000000E+00 0. -1.
         11    1    4    4    0    0 -0.79709399799E+02  0.13327664649E+03 -0.18933781674E+03  0.24487764651E+03  0.00000000000E+00 0.  1.
         21    1    1    2  503  502  0.33854759120E+02  0.17567830859E+01 -0.66737763709E+01  0.34550981070E+02  0.00000000000E+00 0. -1.
          1    1    1    2  501    0  0.86130685197E+02 -0.16246674383E+03 -0.18327023834E+03  0.25961879370E+03  0.00000000000E+00 0. -1.
<scales pt_clust_5="13000.00000" pt_clust_6="13000.00000" pt_clust_7="13000.00000" pt_clust_8="13000.00000" pt_clust_9="33.90031" pt_clust_10="13000.00000"></scales>
<clustering>
<clus scale="   33.900">  1  9  2 -1</clus>
<clus scale="   77.974">  5  6 -1 -1</clus>
<clus scale="   89.131">  2  5  1 -1</clus>
<clus scale="   91.592">  7  8 -1 -1</clus>
<clus scale="  177.161">  7 10 -1 -1</clus>
<clus scale="   33.900">  1  5  2 -1</clus>
</clustering>
</event>
<event>
10    4  0.2759992E-005  0.4555764E+03  0.7546771E-02  0.1047345E+00
          2   -1    0    0  503    0 -0.00000000000E+00  0.00000000000E+00  0.13913618991E+04  0.13913618991E+04  0.00000000000E+00 0. -1.
         21   -1    0    0  501  502  0.00000000000E+00 -0.00000000000E+00 -0.10654588015E+03  0.10654588015E+03  0.00000000000E+00 0. -1.
         24    2    1    2    0    0  0.62900885695E+02  0.21369906635E+03  0.23510260901E+03  0.33452865682E+03  0.83739913340E+02 0.  0.
         23    2    1    2    0    0  0.11838279009E+03 -0.38574673005E+02  0.14308478562E+03  0.21009360902E+03  0.90352522297E+02 0.  0.
        -11    1    3    3    0    0  0.53030005238E+02  0.57842575613E+02  0.53309050394E+02  0.94867274984E+02  0.00000000000E+00 0.  1.
         12    1    3    3    0    0  0.98708804575E+01  0.15585649074E+03  0.18179355862E+03  0.23966138183E+03  0.00000000000E+00 0. -1.
        -11    1    4    4    0    0  0.54303512216E+02 -0.34497600026E+02  0.13881656616E+02  0.65815319166E+02  0.00000000000E+00 0.  1.
         11    1    4    4    0    0  0.64079277879E+02 -0.40770729790E+01  0.12920312900E+03  0.14427828985E+03  0.00000000000E+00 0. -1.
         21    1    1    2  503  502 -0.34018584716E+02  0.22665920061E+02  0.69887463859E+02  0.80964594996E+02  0.00000000000E+00 0.  1.
          1    1    1    2  501    0 -0.14726509107E+03 -0.19779031341E+03  0.83674116050E+03  0.87232091847E+03  0.00000000000E+00 0. -1.
<scales pt_clust_5="13000.00000" pt_clust_6="13000.00000" pt_clust_7="13000.00000" pt_clust_8="13000.00000" pt_clust_9="40.87799" pt_clust_10="13000.00000"></scales>
<clustering>
<clus scale="   40.878">  2  9  1 -1</clus>
<clus scale="   83.740">  5  6 -1 -1</clus>
<clus scale="   90.353">  7  8 -1 -1</clus>
<clus scale="  244.341">  1  5  2 -1</clus>
<clus scale="  115.397">  7 10 -1 -1</clus>
<clus scale="   40.878">  2  5  1 -1</clus>
</clustering>
</event>
<event>
10    4  0.4119908E-005  0.3216040E+04  0.7546771E-02  0.8956815E-01
         21   -1    0    0  501  502  0.00000000000E+00  0.00000000000E+00  0.13025984059E+04  0.13025984059E+04  0.00000000000E+00 0.  1.
          2   -1    0    0  503    0 -0.00000000000E+00 -0.00000000000E+00 -0.21674142999E+04  0.21674142999E+04  0.00000000000E+00 0. -1.
         24    2    1    2    0    0  0.44400893306E+02  0.66194677086E+02 -0.91938604226E+01  0.11390486138E+03  0.80849339982E+02 0.  0.
         23    2    1    2    0    0  0.91253094674E+03 -0.56508245231E+03  0.81159015510E+03  0.13489012328E+04  0.93941733127E+02 0.  0.
        -13    1    3    3    0    0  0.71969590885E+01  0.72374927513E+02  0.65722862153E+01  0.73028222618E+02  0.00000000000E+00 0.  1.
         14    1    3    3    0    0  0.37203934217E+02 -0.61802504272E+01 -0.15766146638E+02  0.40876638761E+02  0.00000000000E+00 0. -1.
        -13    1    4    4    0    0  0.89469250983E+03 -0.55470376368E+03  0.77615544326E+03  0.13078945770E+04  0.00000000000E+00 0.  1.
         13    1    4    4    0    0  0.17838436911E+02 -0.10378688638E+02  0.35434711846E+02  0.41006655714E+02  0.00000000000E+00 0. -1.
         21    1    1    2  503  502 -0.24423430039E+01  0.26808208410E+02  0.22916752961E+01  0.27016603287E+02  0.00000000000E+00 0.  1.
          1    1    1    2  501    0 -0.95448949704E+03  0.47207956682E+03 -0.16695038640E+04  0.19801900084E+04  0.00000000000E+00 0. -1.
<scales pt_clust_5="13000.00000" pt_clust_6="13000.00000" pt_clust_7="13000.00000" pt_clust_8="13000.00000" pt_clust_9="26.91923" pt_clust_10="13000.00000"></scales>
<clustering>
<clus scale="   26.919">  1  9  2 -1</clus>
<clus scale="   80.849">  5  6 -1 -1</clus>
<clus scale="   93.942">  7  8 -1 -1</clus>
<clus scale="  114.134">  2  5  1 -1</clus>
<clus scale=" 1060.420">  7 10 -1 -1</clus>
<clus scale="   26.919">  1  5  2 -1</clus>
</clustering>
</event>
<event>
10    4  0.2759992E-005  0.1833512E+03  0.7546771E-02  0.1178877E+00
          2   -1    0    0  503    0 -0.00000000000E+00  0.00000000000E+00  0.79923598867E+03  0.79923598867E+03  0.00000000000E+00 0. -1.
         21   -1    0    0  501  502  0.00000000000E+00 -0.00000000000E+00 -0.36095071553E+02  0.36095071553E+02  0.00000000000E+00 0.  1.
         24    2    1    2    0    0 -0.97937897935E+02 -0.10611064650E+02  0.28864864956E+03  0.31735355840E+03  0.87697272409E+02 0.  0.
         23    2    1    2    0    0  0.10358651593E+03  0.27814491401E+02  0.29175678178E+03  0.32381125609E+03  0.90707759531E+02 0.  0.
        -11    1    3    3    0    0 -0.52928824691E+02 -0.36102341384E+02  0.80552501282E+02  0.10292494838E+03  0.00000000000E+00 0.  1.
         12    1    3    3    0    0 -0.45009073243E+02  0.25491276734E+02  0.20809614828E+03  0.21442861002E+03  0.00000000000E+00 0. -1.
        -11    1    4    4    0    0 -0.61463340824E+01 -0.19317180734E+02  0.55475273846E+02  0.59062990971E+02  0.00000000000E+00 0. -1.
         11    1    4    4    0    0  0.10973285001E+03  0.47131672135E+02  0.23628150794E+03  0.26474826512E+03  0.00000000000E+00 0.  1.
         21    1    1    2  503  502 -0.28233938880E+01  0.21178085508E+02  0.31160145576E+02  0.37781444270E+02  0.00000000000E+00 0.  1.
          1    1    1    2  501    0 -0.28252241064E+01 -0.38381512260E+02  0.15157534019E+03  0.15638480146E+03  0.00000000000E+00 0. -1.
<scales pt_clust_5="13000.00000" pt_clust_6="13000.00000" pt_clust_7="13000.00000" pt_clust_8="13000.00000" pt_clust_9="21.36546" pt_clust_10="13000.00000"></scales>
<clustering>
<clus scale="   21.365">  2  9  1 -1</clus>
<clus scale="   87.697">  5  6 -1 -1</clus>
<clus scale="   90.708">  7  8 -1 -1</clus>
<clus scale="   36.953">  7 10 -1 -1</clus>
<clus scale="  132.394">  1  5  2 -1</clus>
<clus scale="   21.365">  2  5  1 -1</clus>
</clustering>
</event>
<event>
10    4  0.2759992E-005  0.4734757E+03  0.7546771E-02  0.1074102E+00
          2   -1    0    0  502    0 -0.00000000000E+00  0.00000000000E+00  0.22620883514E+03  0.22620883514E+03  0.00000000000E+00 0. -1.
         21   -1    0    0  503  502  0.00000000000E+00 -0.00000000000E+00 -0.44683142813E+03  0.44683142813E+03  0.00000000000E+00 0.  1.
         24    2    1    2    0    0  0.48462114339E+01  0.62609429892E+02 -0.20490530914E+02  0.10383910433E+03  0.80120354806E+02 0.  0.
         23    2    1    2    0    0 -0.14680274691E+03 -0.18230429779E+03 -0.22459062467E+01  0.25075014832E+03  0.89914900289E+02 0.  0.
        -13    1    3    3    0    0  0.30944317683E+02  0.27347047123E+02  0.18402516103E+02  0.45211330241E+02  0.00000000000E+00 0.  1.
         14    1    3    3    0    0 -0.26098106249E+02  0.35262382769E+02 -0.38893047018E+02  0.58627774089E+02  0.00000000000E+00 0. -1.
        -13    1    4    4    0    0 -0.74412968692E+02 -0.15538452414E+03  0.99000071290E+01  0.17256781390E+03  0.00000000000E+00 0.  1.
         13    1    4    4    0    0 -0.72389778219E+02 -0.26919773647E+02 -0.12145913376E+02  0.78182334421E+02  0.00000000000E+00 0. -1.
         21    1    1    2  503  501 -0.33003898748E+02  0.13170677100E+02 -0.65612852828E+02  0.74617494758E+02  0.00000000000E+00 0.  1.
          1    1    1    2  501    0  0.17496043423E+03  0.10652419080E+03 -0.13227330300E+03  0.24383351586E+03  0.00000000000E+00 0. -1.
<scales pt_clust_5="13000.00000" pt_clust_6="13000.00000" pt_clust_7="13000.00000" pt_clust_8="13000.00000" pt_clust_9="35.53483" pt_clust_10="13000.00000"></scales>
<clustering>
<clus scale="   35.535">  2  9  1 -1</clus>
<clus scale="   80.120">  5  6 -1 -1</clus>
<clus scale="   89.915">  7  8 -1 -1</clus>
<clus scale="  103.036">  1  5  2 -1</clus>
<clus scale="  206.145">  7 10 -1 -1</clus>
<clus scale="   35.535">  2  5  1 -1</clus>
</clustering>
</event>
<event>
10    4  0.2759992E-005  0.2593965E+03  0.7546771E-02  0.1141941E+00
          2   -1    0    0  502    0 -0.00000000000E+00  0.00000000000E+00  0.11089702773E+04  0.11089702773E+04  0.00000000000E+00 0. -1.
         21   -1    0    0  503  502  0.00000000000E+00 -0.00000000000E+00 -0.41190202616E+02  0.41190202616E+02  0.00000000000E+00 0. -1.
         24    2    1    2    0    0  0.14280483972E+02  0.84678480387E+02  0.38995280523E+03  0.40698717243E+03  0.78746371048E+02 0.  0.
         23    2    1    2    0    0  0.65391006985E+01  0.77517684479E+02  0.28447659832E+03  0.30894222037E+03  0.92014179840E+02 0.  0.
        -13    1    3    3    0    0 -0.11035082361E+02  0.23940233242E+02  0.25620903325E+02  0.36760556275E+02  0.00000000000E+00 0.  1.
         14    1    3    3    0    0  0.25315566332E+02  0.60738247145E+02  0.36433190191E+03  0.37022661616E+03  0.00000000000E+00 0. -1.
        -11    1    4    4    0    0  0.44539492107E+02  0.59310415998E+02  0.21763820120E+03  0.22993015989E+03  0.00000000000E+00 0. -1.
         11    1    4    4    0    0 -0.38000391409E+02  0.18207268480E+02  0.66838397112E+02  0.79012060480E+02  0.00000000000E+00 0.  1.
         21    1    1    2  503  501 -0.23044394988E+02 -0.29451239305E+02  0.31844999968E+02  0.49117447612E+02  0.00000000000E+00 0.  1.
          1    1    1    2  501    0  0.22248103178E+01 -0.13274492556E+03  0.36150567112E+03  0.38511363946E+03  0.00000000000E+00 0. -1.
<scales pt_clust_5="13000.00000" pt_clust_6="13000.00000" pt_clust_7="13000.00000" pt_clust_8="13000.00000" pt_clust_9="37.39545" pt_clust_10="13000.00000"></scales>
<clustering>
<clus scale="   37.395">  2  9  1 -1</clus>
<clus scale="   78.746">  5  6 -1 -1</clus>
<clus scale="   92.014">  7  8 -1 -1</clus>
<clus scale="  110.426">  1  5  2 -1</clus>
<clus scale="   96.782">  7 10 -1 -1</clus>
<clus scale="   37.395">  2  5  1 -1</clus>
</clustering>
</event>
<event>
10    4  0.2759992E-005  0.1209036E+04  0.7546771E-02  0.9494490E-01
         21   -1    0    0  501  502  0.00000000000E+00  0.00000000000E+00  0.23214763241E+03  0.23214763241E+03  0.00000000000E+00 0. -1.
         -3   -1    0    0    0  501 -0.00000000000E+00 -0.00000000000E+00 -0.37163160191E+04  0.37163160191E+04  0.00000000000E+00 0.  1.
         24    2    1    2    0    0  0.16603856370E+03  0.26444086619E+03 -0.35877522234E+03  0.48266219211E+03  0.82130111262E+02 0.  0.
         23    2    1    2    0    0  0.20746834328E+03  0.24242481405E+03 -0.23569777740E+03  0.40679711084E+03  0.90097409478E+02 0.  0.
        -11    1    3    3    0    0  0.13909865635E+03  0.16164484845E+03 -0.27090590554E+03  0.34477166775E+03  0.00000000000E+00 0.  1.
         12    1    3    3    0    0  0.26939907353E+02  0.10279601775E+03 -0.87869316805E+02  0.13789052436E+03  0.00000000000E+00 0. -1.
        -11    1    4    4    0    0  0.15982312818E+03  0.23325182469E+03 -0.19508349868E+03  0.34352207714E+03  0.00000000000E+00 0. -1.
         11    1    4    4    0    0  0.47645215096E+02  0.91729893571E+01 -0.40614278712E+02  0.63275033707E+02  0.00000000000E+00 0.  1.
         21    1    1    2  503  502 -0.74518954980E+02 -0.61998488653E+02  0.21151948417E+02  0.99218406399E+02  0.00000000000E+00 0.  1.
         -4    1    1    2    0  503 -0.29898795200E+03 -0.44486719159E+03 -0.29108473354E+04  0.29597859422E+04  0.00000000000E+00 0.  1.
<scales pt_clust_5="13000.00000" pt_clust_6="13000.00000" pt_clust_7="13000.00000" pt_clust_8="13000.00000" pt_clust_9="96.93754" pt_clust_10="13000.00000"></scales>
<clustering>
<clus scale="   82.130">  5  6 -1 -1</clus>
<clus scale="   90.097">  7  8 -1 -1</clus>
<clus scale="   96.938">  1  9  2 -1</clus>
<clus scale="  291.097">  2  5  1 -1</clus>
<clus scale="  293.827">  7 10 -1 -1</clus>
<clus scale="   96.938">  1  5  2 -1</clus>
</clustering>
</event>
<event>
10    4  0.2759992E-005  0.6638614E+03  0.7546771E-02  0.1039325E+00
         21   -1    0    0  503  502  0.00000000000E+00  0.00000000000E+00  0.92411125179E+03  0.92411125179E+03  0.00000000000E+00 0. -1.
         -1   -1    0    0    0  501 -0.00000000000E+00 -0.00000000000E+00 -0.18114556870E+03  0.18114556870E+03  0.00000000000E+00 0.  1.
         24    2    1    2    0    0 -0.40134089319E+02  0.26365004186E+02  0.96310325404E+02  0.13843588760E+03  0.87080179285E+02 0.  0.
         23    2    1    2    0    0 -0.10290280833E+03 -0.22593901563E+03  0.51451351816E+03  0.57858652324E+03  0.91655756862E+02 0.  0.
        -13    1    3    3    0    0  0.24218694065E+02 -0.90065244642E+01  0.28701660760E+02  0.38619269225E+02  0.00000000000E+00 0.  1.
         14    1    3    3    0    0 -0.64352783384E+02  0.35371528650E+02  0.67608664644E+02  0.99816618372E+02  0.00000000000E+00 0. -1.
        -13    1    4    4    0    0 -0.11020385362E+03 -0.14538673985E+03  0.38223298201E+03  0.42353777401E+03  0.00000000000E+00 0. -1.
         13    1    4    4    0    0  0.73010452887E+01 -0.80552275774E+02  0.13228053614E+03  0.15504874923E+03  0.00000000000E+00 0.  1.
         21    1    1    2  503  501 -0.18406430868E+02 -0.27742486704E+02  0.10259294220E+03  0.10785988159E+03  0.00000000000E+00 0.  1.
         -2    1    1    2    0  502  0.16144332852E+03  0.22731649814E+03  0.29548897326E+02  0.28037452806E+03  0.00000000000E+00 0.  1.
<scales pt_clust_5="13000.00000" pt_clust_6="13000.00000" pt_clust_7="13000.00000" pt_clust_8="13000.00000" pt_clust_9="33.29328" pt_clust_10="13000.00000"></scales>
<clustering>
<clus scale="   33.293">  1  9  2 -1</clus>
<clus scale="   87.080">  5  6 -1 -1</clus>
<clus scale="   91.656">  7  8 -1 -1</clus>
<clus scale="   99.568">  2  5  1 -1</clus>
<clus scale="  269.998">  7 10 -1 -1</clus>
<clus scale="   33.293">  1  5  2 -1</clus>
</clustering>
</event>
<event>
10    4  0.2759992E-005  0.5560255E+03  0.7546771E-02  0.1049055E+00
          2   -1    0    0  503    0 -0.00000000000E+00  0.00000000000E+00  0.80009518845E+03  0.80009518845E+03  0.00000000000E+00 0. -1.
         21   -1    0    0  501  502  0.00000000000E+00 -0.00000000000E+00 -0.19378744363E+03  0.19378744363E+03  0.00000000000E+00 0.  1.
         24    2    1    2    0    0  0.67273863973E+02 -0.61311692140E+02  0.20530003386E+03  0.24201746613E+03  0.90218920640E+02 0.  0.
         23    2    1    2    0    0  0.17191862795E+02 -0.15025501031E+03 -0.33772808233E+02  0.18035961029E+03  0.92286825591E+02 0.  0.
        -13    1    3    3    0    0  0.78657461010E+02 -0.15066409896E+02  0.13830041866E+03  0.15981551452E+03  0.00000000000E+00 0.  1.
         14    1    3    3    0    0 -0.11383597037E+02 -0.46245282244E+02  0.66999615200E+02  0.82201951608E+02  0.00000000000E+00 0. -1.
        -11    1    4    4    0    0 -0.18584084442E+02 -0.11444420154E+03 -0.51308453355E+02  0.12678880410E+03  0.00000000000E+00 0.  1.
         11    1    4    4    0    0  0.35775947236E+02 -0.35810808779E+02  0.17535645122E+02  0.53570806190E+02  0.00000000000E+00 0. -1.
         21    1    1    2  503  502 -0.40232881583E+02 -0.37998048735E+02 -0.13112482560E+02  0.56872433278E+02  0.00000000000E+00 0.  1.
          1    1    1    2  501    0 -0.44232845185E+02  0.24956475119E+03  0.44789300175E+03  0.51463312238E+03  0.00000000000E+00 0. -1.
<scales pt_clust_5="13000.00000" pt_clust_6="13000.00000" pt_clust_7="13000.00000" pt_clust_8="13000.00000" pt_clust_9="55.34019" pt_clust_10="13000.00000"></scales>
<clustering>
<clus scale="   55.340">  2  9  1 -1</clus>
<clus scale="   90.219">  5  6 -1 -1</clus>
<clus scale="   92.287">  7  8 -1 -1</clus>
<clus scale="  127.977">  1  5  2 -1</clus>
<clus scale="  188.731">  7 10 -1 -1</clus>
<clus scale="   55.340">  2  5  1 -1</clus>
</clustering>
</event>
<event>
10    4  0.2759992E-005  0.3280852E+03  0.7546771E-02  0.1111583E+00
         -1   -1    0    0    0  501 -0.00000000000E+00  0.00000000000E+00  0.60259229719E+03  0.60259229719E+03  0.00000000000E+00 0.  1.
         21   -1    0    0  501  502  0.00000000000E+00 -0.00000000000E+00 -0.29488870854E+03  0.29488870854E+03  0.00000000000E+00 0. -1.
         24    2    1    2    0    0 -0.95669533846E+01  0.77135084364E+02  0.12400095177E+03  0.16530512579E+03  0.76864821199E+02 0.  0.
         23    2    1    2    0    0 -0.43443319403E+02 -0.14458518137E+03  0.39009946773E+03  0.42774461037E+03  0.89418456186E+02 0.  0.
        -11    1    3    3    0    0 -0.26059843193E+02  0.17573261731E+02  0.58571319299E+01  0.31972503023E+02  0.00000000000E+00 0.  1.
         12    1    3    3    0    0  0.16492889808E+02  0.59561822633E+02  0.11814381984E+03  0.13333262277E+03  0.00000000000E+00 0. -1.
        -13    1    4    4    0    0 -0.30317937511E+01 -0.85379231310E+02  0.30366093975E+03  0.31545010896E+03  0.00000000000E+00 0.  1.
         13    1    4    4    0    0 -0.40411525652E+02 -0.59205950062E+02  0.86438527976E+02  0.11229450141E+03  0.00000000000E+00 0. -1.
         21    1    1    2  503  502 -0.28957331950E+02  0.29990313234E+02 -0.21013662325E+03  0.21423199199E+03  0.00000000000E+00 0. -1.
         -2    1    1    2    0  503  0.81967604738E+02  0.37459783773E+02  0.37397923997E+01  0.90199277569E+02  0.00000000000E+00 0.  1.
<scales pt_clust_5="13000.00000" pt_clust_6="13000.00000" pt_clust_7="13000.00000" pt_clust_8="13000.00000" pt_clust_9="41.68868" pt_clust_10="13000.00000"></scales>
<clustering>
<clus scale="   41.689">  2  9  1 -1</clus>
<clus scale="   76.865">  5  6 -1 -1</clus>
<clus scale="   89.418">  7  8 -1 -1</clus>
<clus scale="   85.381">  7 10 -1 -1</clus>
<clus scale="  115.549">  1  5  2 -1</clus>
<clus scale="   41.689">  2  5  1 -1</clus>
</clustering>
</event>
<event>
10    4  0.2759992E-005  0.3145274E+03  0.7546771E-02  0.1098779E+00
          2   -1    0    0  503    0 -0.00000000000E+00  0.00000000000E+00  0.81947761652E+03  0.81947761652E+03  0.00000000000E+00 0. -1.
         21   -1    0    0  501  502  0.00000000000E+00 -0.00000000000E+00 -0.11933682824E+03  0.11933682824E+03  0.00000000000E+00 0. -1.
         24    2    1    2    0    0  0.15860312306E+03  0.41157618056E+02  0.42662003978E+03  0.46391397253E+03  0.79766003979E+02 0.  0.
         23    2    1    2    0    0 -0.78505505578E+02  0.37788805956E+02  0.15122303819E+01  0.12679334256E+03  0.92104053202E+02 0.  0.
        -11    1    3    3    0    0  0.80556493019E+02 -0.23826488113E+01  0.12012364387E+03  0.14465377769E+03  0.00000000000E+00 0.  1.
         12    1    3    3    0    0  0.78046630044E+02  0.43540266868E+02  0.30649639591E+03  0.31926019484E+03  0.00000000000E+00 0. -1.
        -13    1    4    4    0    0 -0.41741415029E+02 -0.28776306665E+02 -0.99688088972E+00  0.50709124676E+02  0.00000000000E+00 0.  1.
         13    1    4    4    0    0 -0.36764090549E+02  0.66565112622E+02  0.25091112716E+01  0.76084217888E+02  0.00000000000E+00 0. -1.
         21    1    1    2  503  502  0.10347291708E+02 -0.45246936213E+02 -0.12170761453E+02  0.47984154850E+02  0.00000000000E+00 0. -1.
          1    1    1    2  501    0 -0.90444909193E+02 -0.33699487800E+02  0.28417927956E+03  0.30012297481E+03  0.00000000000E+00 0. -1.
<scales pt_clust_5="13000.00000" pt_clust_6="13000.00000" pt_clust_7="13000.00000" pt_clust_8="13000.00000" pt_clust_9="46.41499" pt_clust_10="13000.00000"></scales>
<clustering>
<clus scale="   46.415">  2  9  1 -1</clus>
<clus scale="   79.766">  5  6 -1 -1</clus>
<clus scale="   92.104">  7  8 -1 -1</clus>
<clus scale="   97.151">  7 10 -1 -1</clus>
<clus scale="  182.245">  1  5  2 -1</clus>
<clus scale="   46.415">  2  5  1 -1</clus>
</clustering>
</event>
<event>
10    4  0.2759992E-005  0.8075634E+03  0.7546771E-02  0.9903030E-01
         21   -1    0    0  503  502  0.00000000000E+00  0.00000000000E+00  0.60642323397E+03  0.60642323397E+03  0.00000000000E+00 0.  1.
         -1   -1    0    0    0  501 -0.00000000000E+00 -0.00000000000E+00 -0.17814554381E+04  0.17814554381E+04  0.00000000000E+00 0.  1.
         24    2    1    2    0    0  0.21898333522E+03  0.84055452545E+02 -0.77456264387E+03  0.81328621599E+03  0.80424869469E+02 0.  0.
         23    2    1    2    0    0  0.55483984324E+02  0.35622112639E+02 -0.15945654371E+03  0.19519205154E+03  0.91247686150E+02 0.  0.
        -11    1    3    3    0    0  0.15388911505E+03  0.35786594356E+02 -0.40032387720E+03  0.43037396149E+03  0.00000000000E+00 0.  1.
         12    1    3    3    0    0  0.65094220170E+02  0.48268858189E+02 -0.37423876667E+03  0.38291225450E+03  0.00000000000E+00 0. -1.
        -13    1    4    4    0    0 -0.14201125144E+02  0.18075193170E+02 -0.97927080245E+02  0.10058875488E+03  0.00000000000E+00 0.  1.
         13    1    4    4    0    0  0.69685109468E+02  0.17546919468E+02 -0.61529463464E+02  0.94603296659E+02  0.00000000000E+00 0. -1.
         21    1    1    2  503  501 -0.73978923126E+02 -0.71659651926E+03 -0.53517396523E+02  0.72239017450E+03  0.00000000000E+00 0.  1.
         -2    1    1    2    0  502 -0.20048839642E+03  0.59691895408E+03 -0.18749562001E+03  0.65701023003E+03  0.00000000000E+00 0.  1.
<scales pt_clust_5="13000.00000" pt_clust_6="13000.00000" pt_clust_7="13000.00000" pt_clust_8="13000.00000" pt_clust_9="683.68133" pt_clust_10="13000.00000"></scales>
<clustering>
<clus scale="   80.425">  5  6 -1 -1</clus>
<clus scale="   91.248">  7  8 -1 -1</clus>
<clus scale="  247.966">  2  5  1 -1</clus>
<clus scale="  641.818">  7 10 -1 -1</clus>
<clus scale="  683.681">  1  9  2 -1</clus>
<clus scale="  683.681">  1  5  2 -1</clus>
</clustering>
</event>
<event>
10    4  0.2759992E-005  0.6239972E+03  0.7546771E-02  0.1004859E+00
         21   -1    0    0  503  502  0.00000000000E+00  0.00000000000E+00  0.45313528097E+03  0.45313528097E+03  0.00000000000E+00 0.  1.
          2   -1    0    0  502    0 -0.00000000000E+00 -0.00000000000E+00 -0.13751467546E+04  0.13751467546E+04  0.00000000000E+00 0. -1.
         24    2    1    2    0    0 -0.24394886077E+03  0.32250995202E+03  0.15066133728E+03  0.43909501647E+03  0.81128781043E+02 0.  0.
         23    2    1    2    0    0 -0.10215512560E+03  0.29365837805E+02 -0.67857686239E+02  0.15614712194E+03  0.92082767068E+02 0.  0.
        -13    1    3    3    0    0 -0.17069551043E+03  0.16130679421E+03  0.96756026544E+02  0.25400505469E+03  0.00000000000E+00 0.  1.
         14    1    3    3    0    0 -0.73253350349E+02  0.16120315780E+03  0.53905310738E+02  0.18508996177E+03  0.00000000000E+00 0. -1.
        -13    1    4    4    0    0  0.11172048242E+02  0.17123313863E+02  0.47626502880E+01  0.20992984002E+02  0.00000000000E+00 0.  1.
         13    1    4    4    0    0 -0.11332717384E+03  0.12242523942E+02 -0.72620336527E+02  0.13515413793E+03  0.00000000000E+00 0. -1.
         21    1    1    2  503  501 -0.64193877873E+02 -0.22709708888E+03 -0.15853402508E+03  0.28430085973E+03  0.00000000000E+00 0. -1.
          1    1    1    2  501    0  0.41029786425E+03 -0.12477870094E+03 -0.84628109958E+03  0.94873903742E+03  0.00000000000E+00 0. -1.
<scales pt_clust_5="13000.00000" pt_clust_6="13000.00000" pt_clust_7="13000.00000" pt_clust_8="13000.00000" pt_clust_9="235.99576" pt_clust_10="13000.00000"></scales>
<clustering>
<clus scale="   81.129">  5  6 -1 -1</clus>
<clus scale="   92.083">  7  8 -1 -1</clus>
<clus scale="  235.996">  1  9  2 -1</clus>
<clus scale="  338.949">  2  5  1 -1</clus>
<clus scale="  154.788">  7 10 -1 -1</clus>
<clus scale="  235.996">  1  5  2 -1</clus>
</clustering>
</event>
<event>
10    4  0.2759992E-005  0.3641343E+03  0.7546771E-02  0.1097352E+00
         21   -1    0    0  503  502  0.00000000000E+00  0.00000000000E+00  0.14765509634E+03  0.14765509634E+03  0.00000000000E+00 0. -1.
          2   -1    0    0  502    0 -0.00000000000E+00 -0.00000000000E+00 -0.71171310855E+03  0.71171310855E+03  0.00000000000E+00 0. -1.
         24    2    1    2    0    0 -0.74581905566E+02 -0.59345937807E+02 -0.24525547729E+03  0.27497510226E+03  0.79853971422E+02 0.  0.
         23    2    1    2    0    0  0.12894166325E+03  0.21123364033E+02 -0.24734180584E+02  0.16016757694E+03  0.89273310602E+02 0.  0.
        -13    1    3    3    0    0 -0.72382573633E+02 -0.22013027796E+02 -0.21139709140E+03  0.22452737163E+03  0.00000000000E+00 0.  1.
         14    1    3    3    0    0 -0.21993319334E+01 -0.37332910010E+02 -0.33858385882E+02  0.50447730626E+02  0.00000000000E+00 0. -1.
        -11    1    4    4    0    0  0.48862817645E+02 -0.68998271582E+01  0.31351451089E+02  0.58464485360E+02  0.00000000000E+00 0.  1.
         11    1    4    4    0    0  0.80078845603E+02  0.28023191192E+02 -0.56085631673E+02  0.10170309158E+03  0.00000000000E+00 0. -1.
         21    1    1    2  503  501  0.19344973369E+02  0.60285418338E+01  0.58859256261E+02  0.62249364326E+02  0.00000000000E+00 0. -1.
          1    1    1    2  501    0 -0.73704731050E+02  0.32194031940E+02 -0.35292761060E+03  0.36197616136E+03  0.00000000000E+00 0. -1.
<scales pt_clust_5="13000.00000" pt_clust_6="13000.00000" pt_clust_7="13000.00000" pt_clust_8="13000.00000" pt_clust_9="20.26256" pt_clust_10="13000.00000"></scales>
<clustering>
<clus scale="   20.263">  1  9  2 -1</clus>
<clus scale="   79.854">  5  6 -1 -1</clus>
<clus scale="   89.273">  7  8 -1 -1</clus>
<clus scale="   79.637">  7 10 -1 -1</clus>
<clus scale="  121.896">  2  5  1 -1</clus>
<clus scale="   20.263">  1  5  2 -1</clus>
</clustering>
</event>
<event>
10    4  0.2759992E-005  0.4576645E+03  0.7546771E-02  0.1045942E+00
          2   -1    0    0  502    0 -0.00000000000E+00  0.00000000000E+00  0.56453847431E+03  0.56453847431E+03  0.00000000000E+00 0. -1.
         21   -1    0    0  503  502  0.00000000000E+00 -0.00000000000E+00 -0.31104648180E+03  0.31104648180E+03  0.00000000000E+00 0. -1.
         24    2    1    2    0    0  0.10965179397E+02 -0.27340150573E+03  0.27911458288E+02  0.28624657153E+03  0.79305937425E+02 0.  0.
         23    2    1    2    0    0 -0.13665290250E+03  0.82244907855E+02  0.30813814023E+00  0.18280024653E+03  0.89317381020E+02 0.  0.
        -11    1    3    3    0    0 -0.26579428868E+00 -0.92683102375E+02  0.47458458098E+02  0.10412748608E+03  0.00000000000E+00 0.  1.
         12    1    3    3    0    0  0.11230973686E+02 -0.18071840336E+03 -0.19546999810E+02  0.18211908545E+03  0.00000000000E+00 0. -1.
        -13    1    4    4    0    0 -0.11828860896E+03  0.27274435457E+02 -0.16370690196E+02  0.12249118065E+03  0.00000000000E+00 0. -1.
         13    1    4    4    0    0 -0.18364293542E+02  0.54970472398E+02  0.16678828336E+02  0.60309065882E+02  0.00000000000E+00 0.  1.
         21    1    1    2  503  501 -0.52648883094E+02  0.72675427258E+02 -0.77636720718E+01  0.90077173702E+02  0.00000000000E+00 0. -1.
          1    1    1    2  501    0  0.17833660620E+03  0.11848117062E+03  0.23303606815E+03  0.31646096435E+03  0.00000000000E+00 0. -1.
<scales pt_clust_5="13000.00000" pt_clust_6="13000.00000" pt_clust_7="13000.00000" pt_clust_8="13000.00000" pt_clust_9="89.74198" pt_clust_10="13000.00000"></scales>
<clustering>
<clus scale="   79.306">  5  6 -1 -1</clus>
<clus scale="   89.317">  7  8 -1 -1</clus>
<clus scale="   89.742">  2  9  1 -1</clus>
<clus scale="  214.005">  7 10 -1 -1</clus>
<clus scale="  250.923">  1  5  2 -1</clus>
<clus scale="   89.742">  2  5  1 -1</clus>
</clustering>
</event>
<event>
10    4  0.2759992E-005  0.1820374E+03  0.7546771E-02  0.1187781E+00
         21   -1    0    0  501  502  0.00000000000E+00  0.00000000000E+00  0.12686927881E+03  0.12686927881E+03  0.00000000000E+00 0. -1.
          2   -1    0    0  503    0 -0.00000000000E+00 -0.00000000000E+00 -0.59235743847E+03  0.59235743847E+03  0.00000000000E+00 0. -1.
         24    2    1    2    0    0  0.71772193752E+02 -0.45840546414E+02 -0.27492177822E+03  0.29965527280E+03  0.83418792165E+02 0.  0.
         23    2    1    2    0    0  0.10604643705E+02 -0.46131116790E+02 -0.15094485119E+03  0.18316882061E+03  0.92335964496E+02 0.  0.
        -13    1    3    3    0    0  0.46381245233E+02 -0.18965486670E+02 -0.46826779060E+02  0.68583211000E+02  0.00000000000E+00 0.  1.
         14    1    3    3    0    0  0.25390948519E+02 -0.26875059744E+02 -0.22809499916E+03  0.23107206180E+03  0.00000000000E+00 0. -1.
        -13    1    4    4    0    0  0.16555484854E+02  0.25746526501E+02 -0.33789720401E+02  0.45592904167E+02  0.00000000000E+00 0.  1.
         13    1    4    4    0    0 -0.59508411494E+01 -0.71877643291E+02 -0.11715513079E+03  0.13757591645E+03  0.00000000000E+00 0. -1.
         21    1    1    2  503  502 -0.90681327669E+01  0.71234966433E+02  0.71720122593E+02  0.10149102157E+03  0.00000000000E+00 0. -1.
          1    1    1    2  501    0 -0.73308704689E+02  0.20736696771E+02 -0.11134165284E+03  0.13491160229E+03  0.00000000000E+00 0. -1.
<scales pt_clust_5="13000.00000" pt_clust_6="13000.00000" pt_clust_7="13000.00000" pt_clust_8="13000.00000" pt_clust_9="71.80983" pt_clust_10="13000.00000"></scales>
<clustering>
<clus scale="   71.810">  1  9  2 -1</clus>
<clus scale="   83.419">  5  6 -1 -1</clus>
<clus scale="   92.336">  7  8 -1 -1</clus>
<clus scale="   86.602">  7 10 -1 -1</clus>
<clus scale="  110.869">  2  5  1 -1</clus>
<clus scale="   71.810">  1  5  2 -1</clus>
</clustering>
</event>
<event>
10    4  0.2759992E-005  0.6337497E+03  0.7546771E-02  0.1011964E+00
         21   -1    0    0  501  502  0.00000000000E+00  0.00000000000E+00  0.35924209374E+03  0.35924209374E+03  0.00000000000E+00 0. -1.
          2   -1    0    0  503    0 -0.00000000000E+00 -0.00000000000E+00 -0.14116980847E+04  0.14116980847E+04  0.00000000000E+00 0. -1.
         24    2    1    2    0    0 -0.13499536444E+03 -0.18090293008E+03  0.17634246348E+03  0.29759461471E+03  0.80723427479E+02 0.  0.
         23    2    1    2    0    0  0.31676137460E+03  0.26427746425E+03 -0.63588769777E+03  0.76342416448E+03  0.91010681664E+02 0.  0.
        -11    1    3    3    0    0 -0.25202685971E+02 -0.50117849323E+02  0.60328278925E+01  0.56421354231E+02  0.00000000000E+00 0.  1.
         12    1    3    3    0    0 -0.10979267847E+03 -0.13078508076E+03  0.17030963559E+03  0.24117326048E+03  0.00000000000E+00 0. -1.
        -11    1    4    4    0    0  0.14709328201E+03  0.70042914141E+02 -0.27934242944E+03  0.32338001843E+03  0.00000000000E+00 0.  1.
         11    1    4    4    0    0  0.16966809259E+03  0.19423455011E+03 -0.35654526834E+03  0.44004414605E+03  0.00000000000E+00 0. -1.
         21    1    1    2  503  502 -0.23157943274E+02 -0.17137166068E+02  0.42683430361E+02  0.51496097181E+02  0.00000000000E+00 0.  1.
          1    1    1    2  501    0 -0.15860806689E+03 -0.66237368097E+02 -0.63559418701E+03  0.65842530205E+03  0.00000000000E+00 0. -1.
<scales pt_clust_5="13000.00000" pt_clust_6="13000.00000" pt_clust_7="13000.00000" pt_clust_8="13000.00000" pt_clust_9="28.80925" pt_clust_10="13000.00000"></scales>
<clustering>
<clus scale="   28.809">  1  9  2 -1</clus>
<clus scale="   80.723">  5  6 -1 -1</clus>
<clus scale="   91.011">  7  8 -1 -1</clus>
<clus scale="  172.907">  7 10 -1 -1</clus>
<clus scale="  259.611">  2  5  1 -1</clus>
<clus scale="   28.809">  1  5  2 -1</clus>
</clustering>
</event>
<event>
10    4  0.2759992E-005  0.4589983E+03  0.7546771E-02  0.1045545E+00
         21   -1    0    0  501  502  0.00000000000E+00  0.00000000000E+00  0.67306681546E+02  0.67306681546E+02  0.00000000000E+00 0. -1.
          2   -1    0    0  503    0 -0.00000000000E+00 -0.00000000000E+00 -0.20937527467E+04  0.20937527467E+04  0.00000000000E+00 0. -1.
         24    2    1    2    0    0  0.21516827491E+03 -0.95031018692E+02 -0.72120036858E+03  0.76288540148E+03  0.80844808832E+02 0.  0.
         23    2    1    2    0    0  0.12858345960E+02  0.16721684096E+03 -0.41247349192E+03  0.45458201072E+03  0.91562077134E+02 0.  0.
        -13    1    3    3    0    0  0.39912338029E+02 -0.51413476425E+02 -0.14255359067E+03  0.15670949716E+03  0.00000000000E+00 0.  1.
         14    1    3    3    0    0  0.17525593688E+03 -0.43617542267E+02 -0.57864677790E+03  0.60617590432E+03  0.00000000000E+00 0. -1.
        -13    1    4    4    0    0 -0.28058331792E+02  0.77916426868E+02 -0.26292527675E+03  0.27565910235E+03  0.00000000000E+00 0.  1.
         13    1    4    4    0    0  0.40916677752E+02  0.89300414092E+02 -0.14954821518E+03  0.17892290836E+03  0.00000000000E+00 0. -1.
         21    1    1    2  503  502  0.17962669150E+02  0.19689205565E+02 -0.23526411304E+02  0.35550166351E+02  0.00000000000E+00 0. -1.
          1    1    1    2  501    0 -0.24598929002E+03 -0.91875027833E+02 -0.86924579333E+03  0.90804184967E+03  0.00000000000E+00 0. -1.
<scales pt_clust_5="13000.00000" pt_clust_6="13000.00000" pt_clust_7="13000.00000" pt_clust_8="13000.00000" pt_clust_9="26.65187" pt_clust_10="13000.00000"></scales>
<clustering>
<clus scale="   26.652">  1  9  2 -1</clus>
<clus scale="   80.845">  5  6 -1 -1</clus>
<clus scale="   91.562">  7  8 -1 -1</clus>
<clus scale="  251.599">  2  5  1 -1</clus>
<clus scale="  173.066">  7 10 -1 -1</clus>
<clus scale="   26.652">  1  5  2 -1</clus>
</clustering>
</event>
<event>
10    4  0.2759992E-005  0.1301396E+03  0.7546771E-02  0.1244678E+00
          2   -1    0    0  503    0 -0.00000000000E+00  0.00000000000E+00  0.62181215890E+03  0.62181215890E+03  0.00000000000E+00 0. -1.
         21   -1    0    0  501  502  0.00000000000E+00 -0.00000000000E+00 -0.76114173229E+02  0.76114173229E+02  0.00000000000E+00 0.  1.
         24    2    1    2    0    0  0.98802081916E+01  0.83017013305E+02  0.11071155599E+03  0.15994734373E+03  0.79603147702E+02 0.  0.
         23    2    1    2    0    0 -0.13874201288E+02 -0.19443029437E+01  0.35129266407E+03  0.36370959778E+03  0.93176509451E+02 0.  0.
        -11    1    3    3    0    0  0.36204426845E+02  0.71895184772E+02  0.10227020396E+03  0.13014942465E+03  0.00000000000E+00 0.  1.
         12    1    3    3    0    0 -0.26324218653E+02  0.11121828533E+02  0.84413520225E+01  0.29797919081E+02  0.00000000000E+00 0. -1.
        -11    1    4    4    0    0  0.36553571597E+02  0.16527361932E+02  0.13379544994E+03  0.13968013357E+03  0.00000000000E+00 0.  1.
         11    1    4    4    0    0 -0.50427772884E+02 -0.18471664876E+02  0.21749721413E+03  0.22402946422E+03  0.00000000000E+00 0. -1.
         21    1    1    2  503  502 -0.93647828264E+01 -0.52090980608E+02 -0.26753908776E+02  0.59303803022E+02  0.00000000000E+00 0.  1.
          1    1    1    2  501    0  0.13358775922E+02 -0.28981729754E+02  0.11044767439E+03  0.11496558760E+03  0.00000000000E+00 0. -1.
<scales pt_clust_5="13000.00000" pt_clust_6="13000.00000" pt_clust_7="13000.00000" pt_clust_8="13000.00000" pt_clust_9="52.92608" pt_clust_10="13000.00000"></scales>
<clustering>
<clus scale="   52.926">  2  9  1 -1</clus>
<clus scale="   79.603">  5  6 -1 -1</clus>
<clus scale="   91.126">  1  5  2 -1</clus>
<clus scale="   93.177">  7  8 -1 -1</clus>
<clus scale="   24.689">  7 10 -1 -1</clus>
<clus scale="   52.926">  2  5  1 -1</clus>
</clustering>
</event>
<event>
10    4  0.2759992E-005  0.2720949E+03  0.7546771E-02  0.1141427E+00
          2   -1    0    0  503    0 -0.00000000000E+00  0.00000000000E+00  0.69714216171E+03  0.69714216171E+03  0.00000000000E+00 0. -1.
         21   -1    0    0  501  502  0.00000000000E+00 -0.00000000000E+00 -0.21028362380E+03  0.21028362380E+03  0.00000000000E+00 0. -1.
         24    2    1    2    0    0 -0.55765841882E+01 -0.48125092583E+02  0.65499426499E+01  0.94077913617E+02  0.80378039628E+02 0.  0.
         23    2    1    2    0    0  0.11625844544E+03  0.26345671486E+02  0.21085267748E+03  0.25854832155E+03  0.90433746127E+02 0.  0.
        -11    1    3    3    0    0 -0.36823510698E+02 -0.25304221691E+01 -0.60052078634E+01  0.37395674857E+02  0.00000000000E+00 0.  1.
         12    1    3    3    0    0  0.31246926510E+02 -0.45594670414E+02  0.12555150513E+02  0.56682238760E+02  0.00000000000E+00 0. -1.
        -13    1    4    4    0    0  0.20454236510E+02 -0.16275815829E+02  0.10999548149E+03  0.11305876313E+03  0.00000000000E+00 0.  1.
         13    1    4    4    0    0  0.95804208926E+02  0.42621487315E+02  0.10085719599E+03  0.14548955843E+03  0.00000000000E+00 0. -1.
         21    1    1    2  503  502 -0.23257167156E+02 -0.37525402924E+01 -0.13661957575E+03  0.13863580295E+03  0.00000000000E+00 0. -1.
          1    1    1    2  501    0 -0.87424694093E+02  0.25531961390E+02  0.40607549353E+03  0.41616374738E+03  0.00000000000E+00 0. -1.
<scales pt_clust_5="13000.00000" pt_clust_6="13000.00000" pt_clust_7="13000.00000" pt_clust_8="13000.00000" pt_clust_9="23.55796" pt_clust_10="13000.00000"></scales>
<clustering>
<clus scale="   23.558">  2  9  1 -1</clus>
<clus scale="   80.378">  5  6 -1 -1</clus>
<clus scale="   90.434">  7  8 -1 -1</clus>
<clus scale="   92.556">  7 10 -1 -1</clus>
<clus scale="   96.865">  1  5  2 -1</clus>
<clus scale="   23.558">  2  5  1 -1</clus>
</clustering>
</event>
<event>
10    4  0.2759992E-005  0.3623379E+03  0.7546771E-02  0.1083596E+00
         21   -1    0    0  503  502  0.00000000000E+00  0.00000000000E+00  0.14193676276E+03  0.14193676276E+03  0.00000000000E+00 0. -1.
          2   -1    0    0  502    0 -0.00000000000E+00 -0.00000000000E+00 -0.64162923116E+03  0.64162923116E+03  0.00000000000E+00 0. -1.
         24    2    1    2    0    0 -0.15062961284E+03 -0.78569592925E+02 -0.20546805047E+03  0.27849851365E+03  0.80509882283E+02 0.  0.
         23    2    1    2    0    0 -0.85327086858E+02  0.20229858862E+02 -0.19285990182E+03  0.23246591246E+03  0.95684375862E+02 0.  0.
        -13    1    3    3    0    0 -0.49742693482E+02 -0.61315058221E+02 -0.12694529406E+03  0.14949575112E+03  0.00000000000E+00 0.  1.
         14    1    3    3    0    0 -0.10088691936E+03 -0.17254534704E+02 -0.78522756402E+02  0.12900276253E+03  0.00000000000E+00 0. -1.
        -11    1    4    4    0    0 -0.54097423568E+02  0.16089366090E+02 -0.25091784932E+02  0.61765658816E+02  0.00000000000E+00 0.  1.
         11    1    4    4    0    0 -0.31229663290E+02  0.41404927721E+01 -0.16776811689E+03  0.17070025365E+03  0.00000000000E+00 0. -1.
         21    1    1    2  503  501  0.38574938658E+02  0.44160020597E+01  0.93737593292E+01  0.39942387643E+02  0.00000000000E+00 0. -1.
          1    1    1    2  501    0  0.19738176104E+03  0.53923732004E+02 -0.11073827544E+03  0.23265918016E+03  0.00000000000E+00 0. -1.
<scales pt_clust_5="13000.00000" pt_clust_6="13000.00000" pt_clust_7="13000.00000" pt_clust_8="13000.00000" pt_clust_9="38.82688" pt_clust_10="13000.00000"></scales>
<clustering>
<clus scale="   38.827">  1  9  2 -1</clus>
<clus scale="   80.510">  5  6 -1 -1</clus>
<clus scale="   95.684">  7  8 -1 -1</clus>
<clus scale="  177.922">  2  5  1 -1</clus>
<clus scale="  148.195">  7 10 -1 -1</clus>
<clus scale="   38.827">  1  5  2 -1</clus>
</clustering>
</event>
<event>
10    4  0.2759992E-005  0.2743212E+03  0.7546771E-02  0.1142217E+00
          2   -1    0    0  502    0 -0.00000000000E+00  0.00000000000E+00  0.10123920487E+04  0.10123920487E+04  0.00000000000E+00 0. -1.
         21   -1    0    0  503  502  0.00000000000E+00 -0.00000000000E+00 -0.54839448894E+02  0.54839448894E+02  0.00000000000E+00 0. -1.
         24    2    1    2    0    0  0.29116830361E+02  0.35377437638E+02  0.21674614571E+03  0.23575635906E+03  0.80640041230E+02 0.  0.
         23    2    1    2    0    0 -0.10012187049E+03  0.12452781311E+03  0.31409176134E+03  0.36382238392E+03  0.90451795509E+02 0.  0.
        -11    1    3    3    0    0  0.48175578263E+02  0.61639574682E+01  0.71881373744E+02  0.86751441510E+02  0.00000000000E+00 0.  1.
         12    1    3    3    0    0 -0.19058747902E+02  0.29213480170E+02  0.14486477197E+03  0.14900491755E+03  0.00000000000E+00 0. -1.
        -11    1    4    4    0    0 -0.34254639404E+02  0.84667384768E+02  0.24074298686E+03  0.25748617843E+03  0.00000000000E+00 0.  1.
         11    1    4    4    0    0 -0.65867231088E+02  0.39860428339E+02  0.73348774483E+02  0.10633620548E+03  0.00000000000E+00 0. -1.
         21    1    1    2  503  501  0.15781236008E+02 -0.10656150042E+03  0.18546927334E+03  0.21448368734E+03  0.00000000000E+00 0.  1.
          1    1    1    2  501    0  0.55223804123E+02 -0.53343750328E+02  0.24124541942E+03  0.25316906729E+03  0.00000000000E+00 0. -1.
<scales pt_clust_5="13000.00000" pt_clust_6="13000.00000" pt_clust_7="13000.00000" pt_clust_8="13000.00000" pt_clust_9="100.27999" pt_clust_10="13000.00000"></scales>
<clustering>
<clus scale="   80.640">  5  6 -1 -1</clus>
<clus scale="   90.452">  7  8 -1 -1</clus>
<clus scale="   76.780">  7 10 -1 -1</clus>
<clus scale="   92.748">  1  5  2 -1</clus>
<clus scale="  100.280">  2  9  1 -1</clus>
<clus scale="  100.280">  2  5  1 -1</clus>
</clustering>
</event>
<event>
10    4  0.2759992E-005  0.1516417E+03  0.7546771E-02  0.1218536E+00
         21   -1    0    0  503  502  0.00000000000E+00  0.00000000000E+00  0.76377077963E+02  0.76377077963E+02  0.00000000000E+00 0.  1.
          2   -1    0    0  502    0 -0.00000000000E+00 -0.00000000000E+00 -0.10109376601E+04  0.10109376601E+04  0.00000000000E+00 0. -1.
         24    2    1    2    0    0 -0.20680347620E+02 -0.14871738984E+02 -0.23183011778E+03  0.24681527189E+03  0.80769607728E+02 0.  0.
         23    2    1    2    0    0  0.69070082273E+02  0.36626096054E+02 -0.40444611885E+03  0.42205648531E+03  0.91885072609E+02 0.  0.
        -11    1    3    3    0    0 -0.45765061592E+02  0.12576736295E+02 -0.12597387626E+03  0.13461809930E+03  0.00000000000E+00 0.  1.
         12    1    3    3    0    0  0.25084713972E+02 -0.27448475279E+02 -0.10585624152E+03  0.11219717260E+03  0.00000000000E+00 0. -1.
        -13    1    4    4    0    0  0.34794875797E+02 -0.28755347746E+02 -0.12068939875E+03  0.12885450856E+03  0.00000000000E+00 0. -1.
         13    1    4    4    0    0  0.34275206476E+02  0.65381443800E+02 -0.28375672010E+03  0.29320197675E+03  0.00000000000E+00 0.  1.
         21    1    1    2  503  501 -0.81883424968E+02  0.56393345009E+01  0.29948413124E+02  0.87370503185E+02  0.00000000000E+00 0.  1.
          1    1    1    2  501    0  0.33493690314E+02 -0.27393691571E+02 -0.32823275868E+03  0.33107247771E+03  0.00000000000E+00 0. -1.
<scales pt_clust_5="13000.00000" pt_clust_6="13000.00000" pt_clust_7="13000.00000" pt_clust_8="13000.00000" pt_clust_9="82.07739" pt_clust_10="13000.00000"></scales>
<clustering>
<clus scale="   80.770">  5  6 -1 -1</clus>
<clus scale="   82.077">  1  9  2 -1</clus>
<clus scale="   91.885">  7  8 -1 -1</clus>
<clus scale="   38.094">  7 10 -1 -1</clus>
<clus scale="   98.684">  2  5  1 -1</clus>
<clus scale="   82.077">  1  5  2 -1</clus>
</clustering>
</event>
<event>
10    4  0.2759992E-005  0.2264691E+03  0.7546771E-02  0.1164556E+00
         21   -1    0    0  503  502  0.00000000000E+00  0.00000000000E+00  0.49679324562E+02  0.49679324562E+02  0.00000000000E+00 0. -1.
          2   -1    0    0  502    0 -0.00000000000E+00 -0.00000000000E+00 -0.88286209769E+03  0.88286209769E+03  0.00000000000E+00 0. -1.
         24    2    1    2    0    0 -0.66757934037E+02  0.13734366104E+02 -0.13344776139E+03  0.17024382403E+03  0.80804703029E+02 0.  0.
         23    2    1    2    0    0  0.90590727124E+02  0.36926265506E+02 -0.29882547866E+03  0.32811835073E+03  0.93780362891E+02 0.  0.
        -11    1    3    3    0    0 -0.62713994642E+02  0.21895168281E+02 -0.14261209809E+03  0.15732340588E+03  0.00000000000E+00 0.  1.
         12    1    3    3    0    0 -0.40439393949E+01 -0.81608021770E+01  0.91643366974E+01  0.12920418147E+02  0.00000000000E+00 0. -1.
        -11    1    4    4    0    0  0.96380872851E+02  0.90041653685E+01 -0.16509250359E+03  0.19137889745E+03  0.00000000000E+00 0.  1.
         11    1    4    4    0    0 -0.57901457270E+01  0.27922100137E+02 -0.13373297507E+03  0.13673945329E+03  0.00000000000E+00 0. -1.
         21    1    1    2  503  501  0.26163771529E+02 -0.60173089084E+01  0.85645553570E+00  0.26860462826E+02  0.00000000000E+00 0. -1.
          1    1    1    2  501    0 -0.49996564616E+02 -0.44643322702E+02 -0.40176598861E+03  0.40731878467E+03  0.00000000000E+00 0. -1.
<scales pt_clust_5="13000.00000" pt_clust_6="13000.00000" pt_clust_7="13000.00000" pt_clust_8="13000.00000" pt_clust_9="26.84681" pt_clust_10="13000.00000"></scales>
<clustering>
<clus scale="   26.847">  1  9  2 -1</clus>
<clus scale="   80.805">  5  6 -1 -1</clus>
<clus scale="   93.780">  7  8 -1 -1</clus>
<clus scale="   65.847">  7 10 -1 -1</clus>
<clus scale="   97.395">  2  5  1 -1</clus>
<clus scale="   26.847">  1  5  2 -1</clus>
</clustering>
</event>
<event>
10    4  0.2759992E-005  0.1952954E+03  0.7546771E-02  0.1177996E+00
          2   -1    0    0  502    0 -0.00000000000E+00  0.00000000000E+00  0.11596751575E+04  0.11596751575E+04  0.00000000000E+00 0. -1.
         21   -1    0    0  503  502  0.00000000000E+00 -0.00000000000E+00 -0.20612611576E+03  0.20612611576E+03  0.00000000000E+00 0. -1.
         24    2    1    2    0    0  0.73120137825E+02  0.22809379279E+02  0.73681662348E+03  0.74472060120E+03  0.76440924050E+02 0.  0.
         23    2    1    2    0    0 -0.49460475677E+02 -0.75653421562E+02  0.32196047554E+03  0.34724266590E+03  0.93536850268E+02 0.  0.
        -13    1    3    3    0    0 -0.86325746012E+01  0.19742170299E+02  0.80844794070E+02  0.83666931105E+02  0.00000000000E+00 0.  1.
         14    1    3    3    0    0  0.81752712427E+02  0.30672089800E+01  0.65597182941E+03  0.66105367009E+03  0.00000000000E+00 0. -1.
        -13    1    4    4    0    0 -0.53511776302E+02 -0.35880307605E+02  0.28697215732E+03  0.29411549730E+03  0.00000000000E+00 0.  1.
         13    1    4    4    0    0  0.40513006255E+01 -0.39773113957E+02  0.34988318223E+02  0.53127168593E+02  0.00000000000E+00 0. -1.
         21    1    1    2  503  501  0.34772823788E+02  0.17436349985E+02 -0.17316901282E+03  0.17748431642E+03  0.00000000000E+00 0. -1.
          1    1    1    2  501    0 -0.58432485936E+02  0.35407692299E+02  0.67940955540E+02  0.96353689739E+02  0.00000000000E+00 0. -1.
<scales pt_clust_5="13000.00000" pt_clust_6="13000.00000" pt_clust_7="13000.00000" pt_clust_8="13000.00000" pt_clust_9="38.89956" pt_clust_10="13000.00000"></scales>
<clustering>
<clus scale="   38.900">  2  9  1 -1</clus>
<clus scale="   76.441">  5  6 -1 -1</clus>
<clus scale="   93.537">  7  8 -1 -1</clus>
<clus scale="   60.705">  7 10 -1 -1</clus>
<clus scale="  111.756">  1  5  2 -1</clus>
<clus scale="   38.900">  2  5  1 -1</clus>
</clustering>
</event>
<event>
10    4  0.2759992E-005  0.4143289E+03  0.7546771E-02  0.1096136E+00
         21   -1    0    0  501  502  0.00000000000E+00  0.00000000000E+00  0.79317862780E+03  0.79317862780E+03  0.00000000000E+00 0.  1.
          2   -1    0    0  503    0 -0.00000000000E+00 -0.00000000000E+00 -0.93113041183E+02  0.93113041183E+02  0.00000000000E+00 0. -1.
         24    2    1    2    0    0  0.12087353752E+02  0.22036046631E+02  0.15626754701E+03  0.17764570270E+03  0.80664477727E+02 0.  0.
         23    2    1    2    0    0 -0.59531627386E+02 -0.15898006439E+03  0.45128995095E+03  0.49062772462E+03  0.90742871948E+02 0.  0.
        -11    1    3    3    0    0  0.45739272290E+02  0.14546608055E+02  0.71294156274E+02  0.85944991444E+02  0.00000000000E+00 0.  1.
         12    1    3    3    0    0 -0.33651918538E+02  0.74894385761E+01  0.84973390739E+02  0.91700711257E+02  0.00000000000E+00 0. -1.
        -13    1    4    4    0    0  0.11886865208E+02 -0.25657040129E+02  0.23107037438E+02  0.36517344534E+02  0.00000000000E+00 0. -1.
         13    1    4    4    0    0 -0.71418492594E+02 -0.13332302426E+03  0.42818291351E+03  0.45411038009E+03  0.00000000000E+00 0.  1.
         21    1    1    2  503  502 -0.23831787473E+02  0.22576563481E+02  0.75324779665E+02  0.82167376399E+02  0.00000000000E+00 0. -1.
          1    1    1    2  501    0  0.71276061107E+02  0.11436745428E+03  0.17183308992E+02  0.13585086526E+03  0.00000000000E+00 0. -1.
<scales pt_clust_5="13000.00000" pt_clust_6="13000.00000" pt_clust_7="13000.00000" pt_clust_8="13000.00000" pt_clust_9="32.82766" pt_clust_10="13000.00000"></scales>
<clustering>
<clus scale="   32.828">  1  9  2 -1</clus>
<clus scale="   80.664">  5  6 -1 -1</clus>
<clus scale="   85.412">  2  5  1 -1</clus>
<clus scale="   90.743">  7  8 -1 -1</clus>
<clus scale="  155.615">  7 10 -1 -1</clus>
<clus scale="   32.828">  1  5  2 -1</clus>
</clustering>
</event>
<event>
10    4  0.2759992E-005  0.5966781E+03  0.7546771E-02  0.9979858E-01
          2   -1    0    0  503    0 -0.00000000000E+00  0.00000000000E+00  0.39393067840E+04  0.39393067840E+04  0.00000000000E+00 0. -1.
         21   -1    0    0  501  502  0.00000000000E+00 -0.00000000000E+00 -0.16321341922E+03  0.16321341922E+03  0.00000000000E+00 0. -1.
         24    2    1    2    0    0  0.44546271670E+03  0.17822648497E+03  0.29334590097E+04  0.29735485794E+04  0.81287640492E+02 0.  0.
         23    2    1    2    0    0 -0.14028117880E+03  0.66149939941E+02  0.11389390621E+03  0.21397679646E+03  0.93592862283E+02 0.  0.
        -11    1    3    3    0    0  0.17776635290E+03  0.33335562037E+02  0.98749957849E+03  0.10039260697E+04  0.00000000000E+00 0.  1.
         12    1    3    3    0    0  0.26769636380E+03  0.14489092293E+03  0.19459594312E+04  0.19696225097E+04  0.00000000000E+00 0. -1.
        -13    1    4    4    0    0 -0.34528808169E+02  0.38610529910E+02  0.87296703340E+02  0.10150727081E+03  0.00000000000E+00 0.  1.
         13    1    4    4    0    0 -0.10575237063E+03  0.27539410031E+02  0.26597202875E+02  0.11246952565E+03  0.00000000000E+00 0. -1.
         21    1    1    2  503  502 -0.37951420415E+01 -0.73418348599E+02 -0.31142573272E+02  0.79840571668E+02  0.00000000000E+00 0.  1.
          1    1    1    2  501    0 -0.30138639586E+03 -0.17095807631E+03  0.75988302207E+03  0.83515425563E+03  0.00000000000E+00 0. -1.
<scales pt_clust_5="13000.00000" pt_clust_6="13000.00000" pt_clust_7="13000.00000" pt_clust_8="13000.00000" pt_clust_9="73.51637" pt_clust_10="13000.00000"></scales>
<clustering>
<clus scale="   73.516">  2  9  1 -1</clus>
<clus scale="   81.288">  5  6 -1 -1</clus>
<clus scale="   93.593">  7  8 -1 -1</clus>
<clus scale="  360.957">  7 10 -1 -1</clus>
<clus scale="  481.142">  1  5  2 -1</clus>
<clus scale="   73.516">  2  5  1 -1</clus>
</clustering>
</event>
<event>
10    4  0.2759992E-005  0.6757904E+03  0.7546771E-02  0.9780504E-01
          2   -1    0    0  502    0 -0.00000000000E+00  0.00000000000E+00  0.28309621068E+04  0.28309621068E+04  0.00000000000E+00 0. -1.
         21   -1    0    0  503  502  0.00000000000E+00 -0.00000000000E+00 -0.17371309613E+03  0.17371309613E+03  0.00000000000E+00 0. -1.
         24    2    1    2    0    0 -0.63528668077E+03  0.18162282816E+03  0.12223515236E+04  0.13919802653E+04  0.83004777671E+02 0.  0.
         23    2    1    2    0    0  0.72289224862E+02 -0.30117459826E+01  0.16323484214E+03  0.19968677765E+03  0.89411368593E+02 0.  0.
        -11    1    3    3    0    0 -0.19469689747E+03  0.85540195542E+02  0.33895131295E+03  0.40013997487E+03  0.00000000000E+00 0.  1.
         12    1    3    3    0    0 -0.44058978330E+03  0.96082632621E+02  0.88340021066E+03  0.99184029039E+03  0.00000000000E+00 0. -1.
        -13    1    4    4    0    0 -0.12984955332E+01  0.33041328962E+02  0.45978568095E+02  0.56634302629E+02  0.00000000000E+00 0. -1.
         13    1    4    4    0    0  0.73587720395E+02 -0.36053074945E+02  0.11725627405E+03  0.14305247502E+03  0.00000000000E+00 0.  1.
         21    1    1    2  503  501  0.57894694936E+02 -0.38450082247E+02  0.56369686053E+02  0.89486010260E+02  0.00000000000E+00 0. -1.
          1    1    1    2  501    0  0.50510276097E+03 -0.14016099993E+03  0.12152929589E+04  0.13235221498E+04  0.00000000000E+00 0. -1.
<scales pt_clust_5="13000.00000" pt_clust_6="13000.00000" pt_clust_7="13000.00000" pt_clust_8="13000.00000" pt_clust_9="69.49967" pt_clust_10="13000.00000"></scales>
<clustering>
<clus scale="   69.500">  2  9  1 -1</clus>
<clus scale="   83.005">  5  6 -1 -1</clus>
<clus scale="   89.411">  7  8 -1 -1</clus>
<clus scale="  546.989">  7 10 -1 -1</clus>
<clus scale="  630.584">  1  5  2 -1</clus>
<clus scale="   69.500">  2  5  1 -1</clus>
</clustering>
</event>
<event>
10    4  0.2759992E-005  0.4543073E+03  0.7546771E-02  0.1078977E+00
         21   -1    0    0  501  502  0.00000000000E+00  0.00000000000E+00  0.14859841177E+04  0.14859841177E+04  0.00000000000E+00 0. -1.
          2   -1    0    0  503    0 -0.00000000000E+00 -0.00000000000E+00 -0.97448957862E+02  0.97448957862E+02  0.00000000000E+00 0. -1.
         24    2    1    2    0    0 -0.67551625486E+02  0.46263387792E+01  0.30296016087E+03  0.31973168137E+03  0.76543215755E+02 0.  0.
         23    2    1    2    0    0 -0.15957209868E+02 -0.69830188461E+02 -0.52916555533E+02  0.10721772195E+03  0.59704189839E+02 0.  0.
        -13    1    3    3    0    0 -0.88172612040E+01  0.33331792485E+02  0.13916547950E+03  0.14337288157E+03  0.00000000000E+00 0.  1.
         14    1    3    3    0    0 -0.58734364282E+02 -0.28705453705E+02  0.16379468137E+03  0.17635879980E+03  0.00000000000E+00 0. -1.
        -13    1    4    4    0    0  0.19064598206E+02 -0.29293670361E+02 -0.37958421719E+02  0.51598641527E+02  0.00000000000E+00 0.  1.
         13    1    4    4    0    0 -0.35021808074E+02 -0.40536518100E+02 -0.14958133814E+02  0.55619080428E+02  0.00000000000E+00 0. -1.
         21    1    1    2  503  502  0.10061669447E+03 -0.31150669506E+02  0.58361000464E+03  0.59303854928E+03  0.00000000000E+00 0. -1.
          1    1    1    2  501    0 -0.17107859115E+02  0.96354519188E+02  0.55488154982E+03  0.56344512292E+03  0.00000000000E+00 0. -1.
<scales pt_clust_5="13000.00000" pt_clust_6="13000.00000" pt_clust_7="13000.00000" pt_clust_8="13000.00000" pt_clust_9="101.84369" pt_clust_10="13000.00000"></scales>
<clustering>
<clus scale="   59.704">  7  8 -1 -1</clus>
<clus scale="   76.543">  5  6 -1 -1</clus>
<clus scale="   97.862">  7 10 -1 -1</clus>
<clus scale="  102.193">  2  5  1 -1</clus>
<clus scale="  101.844">  1  9  2 -1</clus>
<clus scale="  101.844">  1  5  2 -1</clus>
</clustering>
</event>
<event>
10    4  0.2759992E-005  0.3838309E+03  0.7546771E-02  0.1095717E+00
         21   -1    0    0  501  502  0.00000000000E+00  0.00000000000E+00  0.21704662171E+03  0.21704662171E+03  0.00000000000E+00 0. -1.
          2   -1    0    0  503    0 -0.00000000000E+00 -0.00000000000E+00 -0.57363036133E+03  0.57363036133E+03  0.00000000000E+00 0. -1.
         24    2    1    2    0    0 -0.13709639894E+02  0.87095436234E+02  0.69576823463E+02  0.13658523544E+03  0.77724017764E+02 0.  0.
         23    2    1    2    0    0  0.17619890809E+03  0.13986195317E+02 -0.35456949192E+03  0.40664346558E+03  0.91639045338E+02 0.  0.
        -11    1    3    3    0    0 -0.26297002560E+02  0.71700403940E+01 -0.35977807344E+01  0.27493378277E+02  0.00000000000E+00 0.  1.
         12    1    3    3    0    0  0.12587362666E+02  0.79925395840E+02  0.73174604197E+02  0.10909185716E+03  0.00000000000E+00 0. -1.
        -11    1    4    4    0    0  0.36395951796E+02  0.39217524256E+02 -0.65684438095E+02  0.84717913831E+02  0.00000000000E+00 0.  1.
         11    1    4    4    0    0  0.13980295629E+03 -0.25231328940E+02 -0.28888505382E+03  0.32192555175E+03  0.00000000000E+00 0. -1.
         21    1    1    2  503  502 -0.19423705311E+02 -0.25956426458E+02  0.39689419587E+02  0.51247111427E+02  0.00000000000E+00 0. -1.
          1    1    1    2  501    0 -0.14306556288E+03 -0.75125205093E+02 -0.11128049075E+03  0.19620117060E+03  0.00000000000E+00 0. -1.
<scales pt_clust_5="13000.00000" pt_clust_6="13000.00000" pt_clust_7="13000.00000" pt_clust_8="13000.00000" pt_clust_9="32.41938" pt_clust_10="13000.00000"></scales>
<clustering>
<clus scale="   32.419">  1  9  2 -1</clus>
<clus scale="   77.724">  5  6 -1 -1</clus>
<clus scale="   91.639">  7  8 -1 -1</clus>
<clus scale="  108.617">  2  5  1 -1</clus>
<clus scale="  166.671">  7 10 -1 -1</clus>
<clus scale="   32.419">  1  5  2 -1</clus>
</clustering>
</event>
<event>
10    4  0.2759992E-005  0.3433892E+03  0.7546771E-02  0.1113534E+00
         21   -1    0    0  503  502  0.00000000000E+00  0.00000000000E+00  0.16679552128E+04  0.16679552128E+04  0.00000000000E+00 0. -1.
          2   -1    0    0  502    0 -0.00000000000E+00 -0.00000000000E+00 -0.54785575969E+03  0.54785575969E+03  0.00000000000E+00 0. -1.
         24    2    1    2    0    0  0.44211390716E+01  0.56893427071E+02 -0.20490491643E+03  0.22624192699E+03  0.77090701378E+02 0.  0.
         23    2    1    2    0    0 -0.13633281432E+03 -0.10400042634E+03 -0.17705697359E+03  0.26737960808E+03  0.10363376854E+03 0.  0.
        -13    1    3    3    0    0  0.29100738669E+02 -0.42216919863E+01 -0.75364701924E+02  0.80898170377E+02  0.00000000000E+00 0.  1.
         14    1    3    3    0    0 -0.24679599597E+02  0.61115119057E+02 -0.12954021450E+03  0.14534375662E+03  0.00000000000E+00 0. -1.
        -11    1    4    4    0    0 -0.69463154034E+02 -0.51470636757E+02 -0.19935173189E+02  0.88722980939E+02  0.00000000000E+00 0. -1.
         11    1    4    4    0    0 -0.66869660287E+02 -0.52529789580E+02 -0.15712180040E+03  0.17865662714E+03  0.00000000000E+00 0.  1.
         21    1    1    2  503  501  0.45072968075E+02  0.18511887598E+03  0.15424745338E+04  0.15541969817E+04  0.00000000000E+00 0. -1.
          1    1    1    2  501    0  0.86838707175E+02 -0.13801187671E+03 -0.40413190676E+02  0.16799245566E+03  0.00000000000E+00 0. -1.
<scales pt_clust_5="13000.00000" pt_clust_6="13000.00000" pt_clust_7="13000.00000" pt_clust_8="13000.00000" pt_clust_9="191.52068" pt_clust_10="13000.00000"></scales>
<clustering>
<clus scale="   77.091">  5  6 -1 -1</clus>
<clus scale="   95.913">  2  5  1 -1</clus>
<clus scale="  103.634">  7  8 -1 -1</clus>
<clus scale="  149.079">  7 10 -1 -1</clus>
<clus scale="  191.521">  1  9  2 -1</clus>
<clus scale="  191.521">  1  5  2 -1</clus>
</clustering>
</event>
<event>
10    4  0.2759992E-005  0.3019568E+03  0.7546771E-02  0.1127629E+00
          2   -1    0    0  502    0 -0.00000000000E+00  0.00000000000E+00  0.31125386892E+03  0.31125386892E+03  0.00000000000E+00 0. -1.
         21   -1    0    0  503  502  0.00000000000E+00 -0.00000000000E+00 -0.17824821493E+03  0.17824821493E+03  0.00000000000E+00 0.  1.
         24    2    1    2    0    0 -0.48954950378E+02 -0.40835789185E+02 -0.13625716173E+02  0.10457180063E+03  0.81764616432E+02 0.  0.
         23    2    1    2    0    0  0.80434900901E+02 -0.10787467314E+03  0.13197795057E+03  0.20980509198E+03  0.92158986514E+02 0.  0.
        -11    1    3    3    0    0 -0.70781882813E+02 -0.37829862093E+02 -0.35260173856E+01  0.80334340099E+02  0.00000000000E+00 0.  1.
         12    1    3    3    0    0  0.21826932435E+02 -0.30059270918E+01 -0.10099698788E+02  0.24237460528E+02  0.00000000000E+00 0. -1.
        -11    1    4    4    0    0  0.33088457491E+02 -0.10507892667E+03  0.11545223280E+03  0.15957958800E+03  0.00000000000E+00 0. -1.
         11    1    4    4    0    0  0.47346443410E+02 -0.27957464724E+01  0.16525717775E+02  0.50225503978E+02  0.00000000000E+00 0.  1.
         21    1    1    2  503  501  0.58850529700E+01  0.23232956532E+02 -0.28533505383E+02  0.37263454578E+02  0.00000000000E+00 0.  1.
          1    1    1    2  501    0 -0.37365003494E+02  0.12547750579E+03  0.43186924972E+02  0.13786173666E+03  0.00000000000E+00 0. -1.
<scales pt_clust_5="13000.00000" pt_clust_6="13000.00000" pt_clust_7="13000.00000" pt_clust_8="13000.00000" pt_clust_9="23.96673" pt_clust_10="13000.00000"></scales>
<clustering>
<clus scale="   23.967">  2  9  1 -1</clus>
<clus scale="   81.765">  5  6 -1 -1</clus>
<clus scale="   92.159">  7  8 -1 -1</clus>
<clus scale="   99.191">  1  5  2 -1</clus>
<clus scale="  132.257">  7 10 -1 -1</clus>
<clus scale="   23.967">  2  5  1 -1</clus>
</clustering>
</event>
<event>
10    4  0.2759992E-005  0.1275547E+03  0.7546771E-02  0.1244585E+00
         21   -1    0    0  503  502  0.00000000000E+00  0.00000000000E+00  0.10643190675E+03  0.10643190675E+03  0.00000000000E+00 0.  1.
          2   -1    0    0  502    0 -0.00000000000E+00 -0.00000000000E+00 -0.43464101359E+03  0.43464101359E+03  0.00000000000E+00 0. -1.
         24    2    1    2    0    0  0.13333780006E+02 -0.52818730444E+02 -0.13577682866E+03  0.16676924474E+03  0.80056391480E+02 0.  0.
         23    2    1    2    0    0 -0.31978150747E+02  0.40782782848E+02 -0.21768847255E+03  0.24268582685E+03  0.93927109880E+02 0.  0.
        -13    1    3    3    0    0  0.32526311058E+02 -0.40067144774E+02 -0.13407460251E+03  0.14366396917E+03  0.00000000000E+00 0.  1.
         14    1    3    3    0    0 -0.19192531051E+02 -0.12751585670E+02 -0.17022261511E+01  0.23105275569E+02  0.00000000000E+00 0. -1.
        -11    1    4    4    0    0 -0.12556534049E+02  0.68225993779E+02 -0.11166267837E+03  0.13145724215E+03  0.00000000000E+00 0.  1.
         11    1    4    4    0    0 -0.19421616698E+02 -0.27443210931E+02 -0.10602579418E+03  0.11122858469E+03  0.00000000000E+00 0. -1.
         21    1    1    2  503  501  0.41641316526E+02  0.20089657274E+02  0.68110702383E+02  0.82320479533E+02  0.00000000000E+00 0.  1.
          1    1    1    2  501    0 -0.22996945785E+02 -0.80537096781E+01 -0.42854508014E+02  0.49297369221E+02  0.00000000000E+00 0. -1.
<scales pt_clust_5="13000.00000" pt_clust_6="13000.00000" pt_clust_7="13000.00000" pt_clust_8="13000.00000" pt_clust_9="46.23412" pt_clust_10="13000.00000"></scales>
<clustering>
<clus scale="   46.234">  1  9  2 -1</clus>
<clus scale="   80.056">  5  6 -1 -1</clus>
<clus scale="   93.927">  7  8 -1 -1</clus>
<clus scale="   19.633">  7 10 -1 -1</clus>
<clus scale="   96.960">  2  5  1 -1</clus>
<clus scale="   46.234">  1  5  2 -1</clus>
</clustering>
</event>
<event>
10    4  0.2759992E-005  0.1388557E+03  0.7546771E-02  0.1230857E+00
         21   -1    0    0  501  502  0.00000000000E+00  0.00000000000E+00  0.50974220315E+02  0.50974220315E+02  0.00000000000E+00 0.  1.
          2   -1    0    0  503    0 -0.00000000000E+00 -0.00000000000E+00 -0.89775764426E+03  0.89775764426E+03  0.00000000000E+00 0. -1.
         24    2    1    2    0    0 -0.53665474076E+02  0.15645449760E+02 -0.74042341573E+03  0.74699569309E+03  0.81553465486E+02 0.  0.
         23    2    1    2    0    0  0.48126447327E+02 -0.56667492041E+02 -0.10180056899E+03  0.15490541667E+03  0.90027621767E+02 0.  0.
        -13    1    3    3    0    0  0.10656044578E+02  0.24134833273E+02 -0.10480486392E+03  0.10807451579E+03  0.00000000000E+00 0.  1.
         14    1    3    3    0    0 -0.64321518655E+02 -0.84893835130E+01 -0.63561855182E+03  0.63892117730E+03  0.00000000000E+00 0. -1.
        -11    1    4    4    0    0  0.19086096849E+02  0.22445858072E+02 -0.12171743018E+02  0.31878628666E+02  0.00000000000E+00 0. -1.
         11    1    4    4    0    0  0.29040350478E+02 -0.79113350112E+02 -0.89628825974E+02  0.12302678801E+03  0.00000000000E+00 0.  1.
         21    1    1    2  503  502 -0.57736537780E+01  0.24249050996E+02 -0.82677841179E+01  0.26262288673E+02  0.00000000000E+00 0. -1.
          1    1    1    2  501    0  0.11312680528E+02  0.16772991285E+02  0.37083448939E+01  0.20568466137E+02  0.00000000000E+00 0. -1.
<scales pt_clust_5="13000.00000" pt_clust_6="13000.00000" pt_clust_7="13000.00000" pt_clust_8="13000.00000" pt_clust_9="24.92692" pt_clust_10="13000.00000"></scales>
<clustering>
<clus scale="   24.927">  1  9  2 -1</clus>
<clus scale="   81.553">  5  6 -1 -1</clus>
<clus scale="   90.028">  7  8 -1 -1</clus>
<clus scale="   25.666">  7 10 -1 -1</clus>
<clus scale="   99.436">  2  5  1 -1</clus>
<clus scale="   24.927">  1  5  2 -1</clus>
</clustering>
</event>
<event>
10    4  0.2759992E-005  0.2464477E+03  0.7546771E-02  0.1143234E+00
          2   -1    0    0  503    0 -0.00000000000E+00  0.00000000000E+00  0.89609347363E+03  0.89609347363E+03  0.00000000000E+00 0. -1.
         21   -1    0    0  501  502  0.00000000000E+00 -0.00000000000E+00 -0.86117461005E+02  0.86117461005E+02  0.00000000000E+00 0. -1.
         24    2    1    2    0    0  0.70523979092E+02 -0.84953395609E+02  0.33666900449E+03  0.35906462587E+03  0.58229510691E+02 0.  0.
         23    2    1    2    0    0  0.11672228787E+02 -0.66105728173E+01  0.14500518154E+03  0.17158485740E+03  0.90746460071E+02 0.  0.
        -11    1    3    3    0    0  0.75545395984E+02 -0.54349564082E+02  0.26854104454E+03  0.28420991287E+03  0.00000000000E+00 0.  1.
         12    1    3    3    0    0 -0.50214168920E+01 -0.30603831527E+02  0.68127959957E+02  0.74854713009E+02  0.00000000000E+00 0. -1.
        -11    1    4    4    0    0 -0.36322671672E+02 -0.17135957110E+02  0.46055974919E+02  0.61107530871E+02  0.00000000000E+00 0. -1.
         11    1    4    4    0    0  0.47994900458E+02  0.10525384293E+02  0.98949206625E+02  0.11047732653E+03  0.00000000000E+00 0.  1.
         21    1    1    2  503  502 -0.10132366825E+03 -0.82959931771E+02  0.10723032955E+03  0.16925477719E+03  0.00000000000E+00 0. -1.
          1    1    1    2  501    0  0.19127460368E+02  0.17452390020E+03  0.22107149704E+03  0.28230667417E+03  0.00000000000E+00 0. -1.
<scales pt_clust_5="13000.00000" pt_clust_6="13000.00000" pt_clust_7="13000.00000" pt_clust_8="13000.00000" pt_clust_9="133.69579" pt_clust_10="13000.00000"></scales>
<clustering>
<clus scale="   58.230">  5  6 -1 -1</clus>
<clus scale="   90.746">  7  8 -1 -1</clus>
<clus scale="  124.825">  1  5  2 -1</clus>
<clus scale="  133.696">  2  9  1 -1</clus>
<clus scale="   82.166">  7 10 -1 -1</clus>
<clus scale="  133.696">  2  5  1 -1</clus>
</clustering>
</event>
<event>
10    4  0.2759992E-005  0.1996751E+03  0.7546771E-02  0.1179164E+00
         21   -1    0    0  501  502  0.00000000000E+00  0.00000000000E+00  0.10372760711E+03  0.10372760711E+03  0.00000000000E+00 0. -1.
          2   -1    0    0  503    0 -0.00000000000E+00 -0.00000000000E+00 -0.87690662776E+03  0.87690662776E+03  0.00000000000E+00 0. -1.
         24    2    1    2    0    0  0.50660269202E+02  0.44885044059E+02 -0.63990318549E+03  0.64844069698E+03  0.80113173939E+02 0.  0.
         23    2    1    2    0    0 -0.78465369440E+01  0.74985280536E+02 -0.41158167795E+02  0.12476905229E+03  0.90492879240E+02 0.  0.
        -11    1    3    3    0    0 -0.30244184690E+01  0.25379365734E+02 -0.53818535745E+02  0.59579309343E+02  0.00000000000E+00 0.  1.
         12    1    3    3    0    0  0.53684687671E+02  0.19505678325E+02 -0.58608464975E+03  0.58886138764E+03  0.00000000000E+00 0. -1.
        -11    1    4    4    0    0  0.32909770469E+02  0.24649406535E+02 -0.43633869836E+02  0.59954656464E+02  0.00000000000E+00 0.  1.
         11    1    4    4    0    0 -0.40756307413E+02  0.50335874001E+02  0.24757020403E+01  0.64814395823E+02  0.00000000000E+00 0. -1.
         21    1    1    2  503  502 -0.75242474737E+02 -0.58471020665E+02 -0.99289690735E+02  0.13761806912E+03  0.00000000000E+00 0. -1.
          1    1    1    2  501    0  0.32428742479E+02 -0.61399303931E+02  0.71720233722E+01  0.69806416476E+02  0.00000000000E+00 0. -1.
<scales pt_clust_5="13000.00000" pt_clust_6="13000.00000" pt_clust_7="13000.00000" pt_clust_8="13000.00000" pt_clust_9="95.29056" pt_clust_10="13000.00000"></scales>
<clustering>
<clus scale="   80.113">  5  6 -1 -1</clus>
<clus scale="   90.493">  7  8 -1 -1</clus>
<clus scale="   69.437">  7 10 -1 -1</clus>
<clus scale="   95.291">  1  9  2 -1</clus>
<clus scale="  101.846">  2  5  1 -1</clus>
<clus scale="   95.291">  1  5  2 -1</clus>
</clustering>
</event>
<event>
10    4  0.2759992E-005  0.1823868E+03  0.7546771E-02  0.1202205E+00
         21   -1    0    0  501  502  0.00000000000E+00  0.00000000000E+00  0.20389606385E+03  0.20389606385E+03  0.00000000000E+00 0.  1.
         -1   -1    0    0    0  501 -0.00000000000E+00 -0.00000000000E+00 -0.17543602534E+03  0.17543602534E+03  0.00000000000E+00 0.  1.
         24    2    1    2    0    0  0.42690285466E+01 -0.17365804941E+01 -0.67988184798E+02  0.10512946389E+03  0.80053548267E+02 0.  0.
         23    2    1    2    0    0 -0.92990511980E+01  0.73517635870E+02 -0.36405881708E+01  0.13208452379E+03  0.10927832541E+03 0.  0.
        -11    1    3    3    0    0 -0.14205184561E+01  0.38997445263E+02 -0.31586430533E+02  0.50204792635E+02  0.00000000000E+00 0.  1.
         12    1    3    3    0    0  0.56895470027E+01 -0.40734025757E+02 -0.36401754265E+02  0.54924671260E+02  0.00000000000E+00 0. -1.
        -11    1    4    4    0    0 -0.10895374455E+02  0.35413247154E+02  0.52474065613E+02  0.64236553616E+02  0.00000000000E+00 0.  1.
         11    1    4    4    0    0  0.15963232568E+01  0.38104388717E+02 -0.56114653784E+02  0.67847970174E+02  0.00000000000E+00 0. -1.
         21    1    1    2  503  502  0.36276634347E+01 -0.21346035979E+02  0.87469330200E+02  0.90109360888E+02  0.00000000000E+00 0.  1.
         -2    1    1    2    0  503  0.14023592167E+01 -0.50435019398E+02  0.12619481285E+02  0.52008740620E+02  0.00000000000E+00 0.  1.
<scales pt_clust_5="13000.00000" pt_clust_6="13000.00000" pt_clust_7="13000.00000" pt_clust_8="13000.00000" pt_clust_9="21.65209" pt_clust_10="13000.00000"></scales>
<clustering>
<clus scale="   21.652">  1  9  2 -1</clus>
<clus scale="   80.054">  5  6 -1 -1</clus>
<clus scale="   80.368">  2  5  1 -1</clus>
<clus scale="  109.278">  7  8 -1 -1</clus>
<clus scale="   58.045">  7 10 -1 -1</clus>
<clus scale="   21.652">  1  5  2 -1</clus>
</clustering>
</event>
<event>
10    4  0.2759992E-005  0.7997507E+03  0.7546771E-02  0.9923333E-01
          2   -1    0    0  502    0 -0.00000000000E+00  0.00000000000E+00  0.32681305186E+04  0.32681305186E+04  0.00000000000E+00 0. -1.
         21   -1    0    0  503  502  0.00000000000E+00 -0.00000000000E+00 -0.26376640610E+03  0.26376640610E+03  0.00000000000E+00 0.  1.
         24    2    1    2    0    0  0.21709335384E+03 -0.59498362848E+02  0.69145760292E+03  0.73166419535E+03  0.80927737320E+02 0.  0.
         23    2    1    2    0    0  0.12222282325E+03 -0.11372504100E+03  0.48537216993E+03  0.52102816676E+03  0.89512031263E+02 0.  0.
        -13    1    3    3    0    0  0.80522848573E+02 -0.13357884093E+02  0.37706540060E+03  0.38579875394E+03  0.00000000000E+00 0.  1.
         14    1    3    3    0    0  0.13657050526E+03 -0.46140478755E+02  0.31439220231E+03  0.34586544141E+03  0.00000000000E+00 0. -1.
        -11    1    4    4    0    0  0.18651846391E+02  0.13514106220E+02  0.37011055121E+02  0.43592896691E+02  0.00000000000E+00 0. -1.
         11    1    4    4    0    0  0.10357097685E+03 -0.12723914722E+03  0.44836111481E+03  0.47743527007E+03  0.00000000000E+00 0.  1.
         21    1    1    2  503  501 -0.80561920583E+03  0.28127319236E+03  0.13882073578E+04  0.16294958060E+04  0.00000000000E+00 0.  1.
          1    1    1    2  501    0  0.46630302874E+03 -0.10804978851E+03  0.43932698185E+03  0.64970875659E+03  0.00000000000E+00 0. -1.
<scales pt_clust_5="13000.00000" pt_clust_6="13000.00000" pt_clust_7="13000.00000" pt_clust_8="13000.00000" pt_clust_9="720.82738" pt_clust_10="13000.00000"></scales>
<clustering>
<clus scale="   80.928">  5  6 -1 -1</clus>
<clus scale="   89.512">  7  8 -1 -1</clus>
<clus scale="  239.205">  1  5  2 -1</clus>
<clus scale="  526.567">  7 10 -1 -1</clus>
<clus scale="  720.827">  2  9  1 -1</clus>
<clus scale="  720.827">  2  5  1 -1</clus>
</clustering>
</event>
<event>
10    4  0.2759992E-005  0.1883271E+03  0.7546771E-02  0.1180737E+00
         21   -1    0    0  503  502  0.00000000000E+00  0.00000000000E+00  0.69948114516E+02  0.69948114516E+02  0.00000000000E+00 0. -1.
          2   -1    0    0  502    0 -0.00000000000E+00 -0.00000000000E+00 -0.66583720724E+03  0.66583720724E+03  0.00000000000E+00 0. -1.
         24    2    1    2    0    0  0.58769609212E+02 -0.82950320384E+02 -0.32758846569E+03  0.35228690360E+03  0.80356934858E+02 0.  0.
         23    2    1    2    0    0  0.58661547246E+02  0.13361548948E+02 -0.18822863056E+03  0.21721916093E+03  0.90191121510E+02 0.  0.
        -13    1    3    3    0    0  0.27350426862E+02  0.46978509296E+01 -0.14160250950E+03  0.14429617580E+03  0.00000000000E+00 0.  1.
         14    1    3    3    0    0  0.31419182350E+02 -0.87648171313E+02 -0.18598595618E+03  0.20799072780E+03  0.00000000000E+00 0. -1.
        -13    1    4    4    0    0 -0.85887750243E+01  0.21555120619E+02 -0.77812374008E+01  0.24473208552E+02  0.00000000000E+00 0.  1.
         13    1    4    4    0    0  0.67250322270E+02 -0.81935716709E+01 -0.18044739316E+03  0.19274595238E+03  0.00000000000E+00 0. -1.
         21    1    1    2  503  501 -0.74887858599E+02  0.20555634142E+02 -0.26318459180E+02  0.81996260611E+02  0.00000000000E+00 0. -1.
          1    1    1    2  501    0 -0.42543297859E+02  0.49033137293E+02 -0.53753537299E+02  0.84282996610E+02  0.00000000000E+00 0. -1.
<scales pt_clust_5="13000.00000" pt_clust_6="13000.00000" pt_clust_7="13000.00000" pt_clust_8="13000.00000" pt_clust_9="77.65775" pt_clust_10="13000.00000"></scales>
<clustering>
<clus scale="   77.658">  1  9  2 -1</clus>
<clus scale="   80.357">  5  6 -1 -1</clus>
<clus scale="   90.191">  7  8 -1 -1</clus>
<clus scale="   89.707">  7 10 -1 -1</clus>
<clus scale="  117.171">  2  5  1 -1</clus>
<clus scale="   77.658">  1  5  2 -1</clus>
</clustering>
</event>
<event>
10    4  0.2759992E-005  0.5385591E+03  0.7546771E-02  0.1047065E+00
          2   -1    0    0  502    0 -0.00000000000E+00  0.00000000000E+00  0.68852771512E+03  0.68852771512E+03  0.00000000000E+00 0. -1.
         21   -1    0    0  503  502  0.00000000000E+00 -0.00000000000E+00 -0.20552952399E+03  0.20552952399E+03  0.00000000000E+00 0. -1.
         24    2    1    2    0    0 -0.34512716214E+02 -0.12243548828E+03  0.42786149742E+02  0.15676679925E+03  0.81016037717E+02 0.  0.
         23    2    1    2    0    0  0.17386800734E+02 -0.20195174040E+03  0.17410508542E+03  0.28291317883E+03  0.92954180625E+02 0.  0.
        -11    1    3    3    0    0 -0.31761432526E+02 -0.68463701455E+02  0.63757814788E+02  0.98798410713E+02  0.00000000000E+00 0.  1.
         12    1    3    3    0    0 -0.27512836884E+01 -0.53971786827E+02 -0.20971665046E+02  0.57968388541E+02  0.00000000000E+00 0. -1.
        -11    1    4    4    0    0  0.38076250928E+02 -0.10967325186E+03  0.14116327335E+03  0.18277060158E+03  0.00000000000E+00 0.  1.
         11    1    4    4    0    0 -0.20689450194E+02 -0.92278488536E+02  0.32941812074E+02  0.10014257725E+03  0.00000000000E+00 0. -1.
         21    1    1    2  503  501 -0.17258089827E+02  0.12121317215E+02 -0.20294118019E+02  0.29268058044E+02  0.00000000000E+00 0. -1.
          1    1    1    2  501    0  0.34384005308E+02  0.31226591146E+03  0.28640107398E+03  0.42510920298E+03  0.00000000000E+00 0. -1.
<scales pt_clust_5="13000.00000" pt_clust_6="13000.00000" pt_clust_7="13000.00000" pt_clust_8="13000.00000" pt_clust_9="21.08952" pt_clust_10="13000.00000"></scales>
<clustering>
<clus scale="   21.090">  2  9  1 -1</clus>
<clus scale="   81.016">  5  6 -1 -1</clus>
<clus scale="   92.954">  7  8 -1 -1</clus>
<clus scale="  149.094">  1  5  2 -1</clus>
<clus scale="  243.263">  7 10 -1 -1</clus>
<clus scale="   21.090">  2  5  1 -1</clus>
</clustering>
</event>
<event>
10    4  0.2759992E-005  0.1407090E+03  0.7546771E-02  0.1226596E+00
         21   -1    0    0  503  502  0.00000000000E+00  0.00000000000E+00  0.13295861742E+03  0.13295861742E+03  0.00000000000E+00 0.  1.
          2   -1    0    0  502    0 -0.00000000000E+00 -0.00000000000E+00 -0.56786282347E+03  0.56786282347E+03  0.00000000000E+00 0. -1.
         24    2    1    2    0    0 -0.63343921801E+01 -0.74222455708E+02 -0.13618198440E+03  0.17522718980E+03  0.81301523450E+02 0.  0.
         23    2    1    2    0    0 -0.63676873790E+01  0.65211858678E+02 -0.33377560562E+03  0.35216533861E+03  0.91220265604E+02 0.  0.
        -13    1    3    3    0    0 -0.17032559325E+02 -0.87793870188E+02 -0.94516339042E+02  0.13011998335E+03  0.00000000000E+00 0.  1.
         14    1    3    3    0    0  0.10698167145E+02  0.13571414481E+02 -0.41665645359E+02  0.45107206458E+02  0.00000000000E+00 0. -1.
        -13    1    4    4    0    0  0.34412137247E+02  0.52683848445E+02 -0.25423095711E+03  0.26190296415E+03  0.00000000000E+00 0. -1.
         13    1    4    4    0    0 -0.40779824626E+02  0.12528010232E+02 -0.79544648511E+02  0.90262374463E+02  0.00000000000E+00 0.  1.
         21    1    1    2  503  501 -0.12209176534E+02  0.16451637452E+02  0.10073065194E+03  0.10279292100E+03  0.00000000000E+00 0.  1.
          1    1    1    2  501    0  0.24911256093E+02 -0.74410404216E+01 -0.65677267974E+02  0.70635991472E+02  0.00000000000E+00 0. -1.
<scales pt_clust_5="13000.00000" pt_clust_6="13000.00000" pt_clust_7="13000.00000" pt_clust_8="13000.00000" pt_clust_9="20.48708" pt_clust_10="13000.00000"></scales>
<clustering>
<clus scale="   20.487">  1  9  2 -1</clus>
<clus scale="   81.302">  5  6 -1 -1</clus>
<clus scale="   91.220">  7  8 -1 -1</clus>
<clus scale="   24.714">  7 10 -1 -1</clus>
<clus scale="  104.364">  2  5  1 -1</clus>
<clus scale="   20.487">  1  5  2 -1</clus>
</clustering>
</event>
<event>
10    4  0.2759992E-005  0.2840275E+03  0.7546771E-02  0.1109949E+00
          2   -1    0    0  503    0 -0.00000000000E+00  0.00000000000E+00  0.10897656003E+04  0.10897656003E+04  0.00000000000E+00 0. -1.
         21   -1    0    0  501  502  0.00000000000E+00 -0.00000000000E+00 -0.42058043718E+03  0.42058043718E+03  0.00000000000E+00 0. -1.
         24    2    1    2    0    0 -0.13497032505E+03  0.10390448448E+03  0.20811466410E+03  0.28050425166E+03  0.79735758910E+02 0.  0.
         23    2    1    2    0    0  0.11370059935E+03 -0.53079605478E+02  0.37557663299E+03  0.40650876539E+03  0.91903744627E+02 0.  0.
        -13    1    3    3    0    0 -0.59083907852E+02  0.56783575282E+02  0.15823491979E+03  0.17819532101E+03  0.00000000000E+00 0.  1.
         14    1    3    3    0    0 -0.75886417196E+02  0.47120909202E+02  0.49879744305E+02  0.10230893065E+03  0.00000000000E+00 0. -1.
        -11    1    4    4    0    0  0.88562251388E+02 -0.10254022853E+02  0.31902810391E+03  0.33125118632E+03  0.00000000000E+00 0.  1.
         11    1    4    4    0    0  0.25138347964E+02 -0.42825582625E+02  0.56548529085E+02  0.75257579068E+02  0.00000000000E+00 0. -1.
         21    1    1    2  503  502  0.81431248790E+02  0.66896220887E+02 -0.35140651869E+03  0.36686876949E+03  0.00000000000E+00 0. -1.
          1    1    1    2  501    0 -0.60161523094E+02 -0.11772109989E+03  0.43690038476E+03  0.45646425098E+03  0.00000000000E+00 0. -1.
<scales pt_clust_5="13000.00000" pt_clust_6="13000.00000" pt_clust_7="13000.00000" pt_clust_8="13000.00000" pt_clust_9="105.38573" pt_clust_10="13000.00000"></scales>
<clustering>
<clus scale="   79.736">  5  6 -1 -1</clus>
<clus scale="   91.904">  7  8 -1 -1</clus>
<clus scale="  105.386">  2  9  1 -1</clus>
<clus scale="  117.012">  7 10 -1 -1</clus>
<clus scale="  185.648">  1  5  2 -1</clus>
<clus scale="  105.386">  2  5  1 -1</clus>
</clustering>
</event>
<event>
10    4  0.2759992E-005  0.3948745E+03  0.7546771E-02  0.1047435E+00
          2   -1    0    0  502    0 -0.00000000000E+00  0.00000000000E+00  0.13322222522E+04  0.13322222522E+04  0.00000000000E+00 0. -1.
         21   -1    0    0  503  502  0.00000000000E+00 -0.00000000000E+00 -0.13445256218E+03  0.13445256218E+03  0.00000000000E+00 0. -1.
         24    2    1    2    0    0  0.34937814920E+03  0.15398436502E+03  0.38328419124E+03  0.54707740076E+03  0.81305813789E+02 0.  0.
         23    2    1    2    0    0 -0.22762858610E+03 -0.13372270868E+03  0.47751670159E+03  0.55356235883E+03  0.93341034863E+02 0.  0.
        -13    1    3    3    0    0  0.19460869254E+02  0.16050603619E+02  0.35493438678E+01  0.25474401869E+02  0.00000000000E+00 0.  1.
         14    1    3    3    0    0  0.32991727995E+03  0.13793376140E+03  0.37973484737E+03  0.52160299889E+03  0.00000000000E+00 0. -1.
        -11    1    4    4    0    0 -0.11452376574E+02 -0.17336700966E+02  0.10757892466E+03  0.10956707152E+03  0.00000000000E+00 0.  1.
         11    1    4    4    0    0 -0.21617620952E+03 -0.11638600771E+03  0.36993777693E+03  0.44399528731E+03  0.00000000000E+00 0. -1.
         21    1    1    2  503  501 -0.32313061536E+02  0.89619549207E+01  0.30082627392E+02  0.45049029431E+02  0.00000000000E+00 0. -1.
          1    1    1    2  501    0 -0.89436501569E+02 -0.29223611264E+02  0.30688616978E+03  0.32098602535E+03  0.00000000000E+00 0. -1.
<scales pt_clust_5="13000.00000" pt_clust_6="13000.00000" pt_clust_7="13000.00000" pt_clust_8="13000.00000" pt_clust_9="33.53283" pt_clust_10="13000.00000"></scales>
<clustering>
<clus scale="   33.533">  2  9  1 -1</clus>
<clus scale="   81.306">  5  6 -1 -1</clus>
<clus scale="   93.341">  7  8 -1 -1</clus>
<clus scale="   95.646">  7 10 -1 -1</clus>
<clus scale="  374.261">  1  5  2 -1</clus>
<clus scale="   33.533">  2  5  1 -1</clus>
</clustering>
</event>
<event>
10    4  0.2759992E-005  0.6036701E+03  0.7546771E-02  0.1050239E+00
          2   -1    0    0  502    0 -0.00000000000E+00  0.00000000000E+00  0.53226683586E+03  0.53226683586E+03  0.00000000000E+00 0. -1.
         21   -1    0    0  503  502  0.00000000000E+00 -0.00000000000E+00 -0.30353485425E+03  0.30353485425E+03  0.00000000000E+00 0. -1.
         24    2    1    2    0    0  0.10351936222E+02  0.47597342288E+02 -0.77996876029E+02  0.12156147617E+03  0.79504781248E+02 0.  0.
         23    2    1    2    0    0  0.35614370296E+02 -0.32711170303E+03  0.17570004335E+03  0.38382459622E+03  0.90445374659E+02 0.  0.
        -13    1    3    3    0    0 -0.30295415702E+02  0.29265887612E+02 -0.15704634651E+02  0.44954865586E+02  0.00000000000E+00 0.  1.
         14    1    3    3    0    0  0.40647351924E+02  0.18331454676E+02 -0.62292241378E+02  0.76606610582E+02  0.00000000000E+00 0. -1.
        -13    1    4    4    0    0  0.42012136681E+02 -0.30001501600E+03  0.12859330766E+03  0.32910525403E+03  0.00000000000E+00 0. -1.
         13    1    4    4    0    0 -0.63977663849E+01 -0.27096687038E+02  0.47106735686E+02  0.54719342194E+02  0.00000000000E+00 0.  1.
         21    1    1    2  503  501 -0.60451019842E+01  0.19106133320E+02 -0.18682991466E+02  0.27397842225E+02  0.00000000000E+00 0.  1.
          1    1    1    2  501    0 -0.39921204534E+02  0.26040822743E+03  0.14971180576E+03  0.30301777550E+03  0.00000000000E+00 0. -1.
<scales pt_clust_5="13000.00000" pt_clust_6="13000.00000" pt_clust_7="13000.00000" pt_clust_8="13000.00000" pt_clust_9="20.03965" pt_clust_10="13000.00000"></scales>
<clustering>
<clus scale="   20.040">  2  9  1 -1</clus>
<clus scale="   79.505">  5  6 -1 -1</clus>
<clus scale="   90.445">  7  8 -1 -1</clus>
<clus scale="   96.680">  1  5  2 -1</clus>
<clus scale="  293.517">  7 10 -1 -1</clus>
<clus scale="   20.040">  2  5  1 -1</clus>
</clustering>
</event>
<event>
10    4  0.2759992E-005  0.3190132E+03  0.7546771E-02  0.1123279E+00
          2   -1    0    0  502    0 -0.00000000000E+00  0.00000000000E+00  0.57937307235E+03  0.57937307235E+03  0.00000000000E+00 0. -1.
         21   -1    0    0  503  502  0.00000000000E+00 -0.00000000000E+00 -0.25723615241E+03  0.25723615241E+03  0.00000000000E+00 0. -1.
         24    2    1    2    0    0  0.29810723415E+02  0.47390851123E+02  0.25768737549E+03  0.27465362878E+03  0.76793621568E+02 0.  0.
         23    2    1    2    0    0 -0.70439631253E+02  0.11948515917E+03  0.68637263786E+02  0.17721532678E+03  0.86346703201E+02 0.  0.
        -13    1    3    3    0    0  0.31870376895E+02 -0.13101018059E+02  0.97844841960E+02  0.10373509867E+03  0.00000000000E+00 0.  1.
         14    1    3    3    0    0 -0.20596534803E+01  0.60491869182E+02  0.15984253353E+03  0.17091853011E+03  0.00000000000E+00 0. -1.
        -11    1    4    4    0    0 -0.44480654749E+02  0.14635177594E+02  0.48354615917E+02  0.67311855944E+02  0.00000000000E+00 0.  1.
         11    1    4    4    0    0 -0.25958976503E+02  0.10484998158E+03  0.20282647869E+02  0.10990347084E+03  0.00000000000E+00 0. -1.
         21    1    1    2  503  501  0.35202654491E+01 -0.31430397029E+02 -0.16686162760E+03  0.16983246124E+03  0.00000000000E+00 0. -1.
          1    1    1    2  501    0  0.37108642389E+02 -0.13544561327E+03  0.16267390826E+03  0.21490780796E+03  0.00000000000E+00 0. -1.
<scales pt_clust_5="13000.00000" pt_clust_6="13000.00000" pt_clust_7="13000.00000" pt_clust_8="13000.00000" pt_clust_9="31.62692" pt_clust_10="13000.00000"></scales>
<clustering>
<clus scale="   31.627">  2  9  1 -1</clus>
<clus scale="   76.794">  5  6 -1 -1</clus>
<clus scale="   86.347">  7  8 -1 -1</clus>
<clus scale="   93.684">  1  5  2 -1</clus>
<clus scale="  128.841">  7 10 -1 -1</clus>
<clus scale="   31.627">  2  5  1 -1</clus>
</clustering>
</event>
<event>
10    4  0.2759992E-005  0.3265068E+03  0.7546771E-02  0.1105188E+00
          2   -1    0    0  502    0 -0.00000000000E+00  0.00000000000E+00  0.46564306173E+03  0.46564306173E+03  0.00000000000E+00 0. -1.
         21   -1    0    0  503  502  0.00000000000E+00 -0.00000000000E+00 -0.33252344963E+03  0.33252344963E+03  0.00000000000E+00 0. -1.
         24    2    1    2    0    0  0.12454410117E+03 -0.67211418876E+02  0.10653187932E+03  0.19459136243E+03  0.80549047523E+02 0.  0.
         23    2    1    2    0    0  0.81070339820E+02 -0.48780563257E+02  0.23999092041E+02  0.13339877185E+03  0.90924873179E+02 0.  0.
        -11    1    3    3    0    0  0.21097514334E+02  0.12496958056E+02 -0.22531529906E+01  0.24624292277E+02  0.00000000000E+00 0.  1.
         12    1    3    3    0    0  0.10344658683E+03 -0.79708376933E+02  0.10878503231E+03  0.16996707015E+03  0.00000000000E+00 0. -1.
        -11    1    4    4    0    0  0.24803100048E+02 -0.28240565776E+02 -0.33514654849E+02  0.50358270592E+02  0.00000000000E+00 0. -1.
         11    1    4    4    0    0  0.56267239772E+02 -0.20539997481E+02  0.57513746891E+02  0.83040501260E+02  0.00000000000E+00 0.  1.
         21    1    1    2  503  501 -0.10594242235E+03 -0.71895972747E+01 -0.19189404169E+03  0.21931440992E+03  0.00000000000E+00 0. -1.
          1    1    1    2  501    0 -0.99672018636E+02  0.12318157941E+03  0.19448268243E+03  0.25086196716E+03  0.00000000000E+00 0. -1.
<scales pt_clust_5="13000.00000" pt_clust_6="13000.00000" pt_clust_7="13000.00000" pt_clust_8="13000.00000" pt_clust_9="106.18610" pt_clust_10="13000.00000"></scales>
<clustering>
<clus scale="   80.549">  5  6 -1 -1</clus>
<clus scale="   90.925">  7  8 -1 -1</clus>
<clus scale="  106.186">  2  9  1 -1</clus>
<clus scale="  138.038">  1  5  2 -1</clus>
<clus scale="   86.457">  7 10 -1 -1</clus>
<clus scale="  106.186">  2  5  1 -1</clus>
</clustering>
</event>
<event>
10    4  0.2759992E-005  0.1575810E+03  0.7546771E-02  0.1219504E+00
         21   -1    0    0  501  502  0.00000000000E+00  0.00000000000E+00  0.11239248084E+03  0.11239248084E+03  0.00000000000E+00 0. -1.
          2   -1    0    0  503    0 -0.00000000000E+00 -0.00000000000E+00 -0.12576626173E+04  0.12576626173E+04  0.00000000000E+00 0. -1.
         24    2    1    2    0    0 -0.27604474889E+02 -0.13089000367E+02 -0.10719348592E+04  0.10754530773E+04  0.81373523363E+02 0.  0.
         23    2    1    2    0    0 -0.35201025884E+02  0.63031379375E+02 -0.10173400060E+03  0.15612728994E+03  0.93882143019E+02 0.  0.
        -13    1    3    3    0    0 -0.32152785599E+02 -0.23927321142E+02 -0.23203189056E+03  0.23546786735E+03  0.00000000000E+00 0.  1.
         14    1    3    3    0    0  0.45483107097E+01  0.10838320775E+02 -0.83990296860E+03  0.83998520998E+03  0.00000000000E+00 0. -1.
        -13    1    4    4    0    0 -0.46731331762E+02  0.22419082400E+02 -0.10143368829E+03  0.11390884840E+03  0.00000000000E+00 0.  1.
         13    1    4    4    0    0  0.11530305879E+02  0.40612296974E+02 -0.30031231585E+00  0.42218441547E+02  0.00000000000E+00 0. -1.
         21    1    1    2  503  502  0.59164271276E+02 -0.88606559522E+01  0.61346423486E+02  0.85687256311E+02  0.00000000000E+00 0. -1.
          1    1    1    2  501    0  0.36412294966E+01 -0.41081723056E+02 -0.32947700159E+02  0.52787474529E+02  0.00000000000E+00 0. -1.
<scales pt_clust_5="13000.00000" pt_clust_6="13000.00000" pt_clust_7="13000.00000" pt_clust_8="13000.00000" pt_clust_9="59.82409" pt_clust_10="13000.00000"></scales>
<clustering>
<clus scale="   59.824">  1  9  2 -1</clus>
<clus scale="   81.374">  5  6 -1 -1</clus>
<clus scale="   86.168">  2  5  1 -1</clus>
<clus scale="   93.882">  7  8 -1 -1</clus>
<clus scale="   48.927">  7 10 -1 -1</clus>
<clus scale="   59.824">  1  5  2 -1</clus>
</clustering>
</event>
<event>
10    4  0.2759992E-005  0.5789851E+03  0.7546771E-02  0.1060311E+00
          2   -1    0    0  503    0 -0.00000000000E+00  0.00000000000E+00  0.19478418674E+04  0.19478418674E+04  0.00000000000E+00 0. -1.
         21   -1    0    0  501  502  0.00000000000E+00 -0.00000000000E+00 -0.13124676645E+03  0.13124676645E+03  0.00000000000E+00 0.  1.
         24    2    1    2    0    0  0.25964503755E+01 -0.55364091906E+01 -0.98967655489E+01  0.81421221134E+02  0.80585829408E+02 0.  0.
         23    2    1    2    0    0 -0.12905728391E+03 -0.16455226019E+03  0.34670337627E+03  0.41603772743E+03  0.95660496889E+02 0.  0.
        -13    1    3    3    0    0 -0.23190239011E+02  0.27356772494E+02 -0.15838144383E+02  0.39204935967E+02  0.00000000000E+00 0.  1.
         14    1    3    3    0    0  0.25786689386E+02 -0.32893181685E+02  0.59413788340E+01  0.42216285167E+02  0.00000000000E+00 0. -1.
        -13    1    4    4    0    0 -0.14116147840E+03 -0.12554599563E+03  0.29168150983E+03  0.34751469492E+03  0.00000000000E+00 0. -1.
         13    1    4    4    0    0  0.12104194489E+02 -0.39006264558E+02  0.55021866430E+02  0.68523032511E+02  0.00000000000E+00 0.  1.
         21    1    1    2  503  502 -0.16059660308E+02 -0.21557463069E+02 -0.37233020546E+02  0.45923139289E+02  0.00000000000E+00 0.  1.
          1    1    1    2  501    0  0.14252049385E+03  0.19164613245E+03  0.15170215107E+04  0.15357065460E+04  0.00000000000E+00 0. -1.
<scales pt_clust_5="13000.00000" pt_clust_6="13000.00000" pt_clust_7="13000.00000" pt_clust_8="13000.00000" pt_clust_9="26.88191" pt_clust_10="13000.00000"></scales>
<clustering>
<clus scale="   26.882">  2  9  1 -1</clus>
<clus scale="   80.586">  5  6 -1 -1</clus>
<clus scale="   82.450">  1  5  2 -1</clus>
<clus scale="   95.660">  7  8 -1 -1</clus>
<clus scale="  223.105">  7 10 -1 -1</clus>
<clus scale="   26.882">  2  5  1 -1</clus>
</clustering>
</event>
<event>
10    4  0.2759992E-005  0.6304223E+03  0.7546771E-02  0.1020055E+00
         21   -1    0    0  501  502  0.00000000000E+00  0.00000000000E+00  0.39303141714E+03  0.39303141714E+03  0.00000000000E+00 0.  1.
          2   -1    0    0  503    0 -0.00000000000E+00 -0.00000000000E+00 -0.16659193999E+04  0.16659193999E+04  0.00000000000E+00 0. -1.
         24    2    1    2    0    0 -0.13580734734E+02  0.17135297632E+03 -0.20614401882E+02  0.19076950346E+03  0.80135953452E+02 0.  0.
         23    2    1    2    0    0 -0.12718946420E+03  0.16046870814E+03 -0.32363652271E+03  0.39414725737E+03  0.93188494806E+02 0.  0.
        -13    1    3    3    0    0 -0.17927664205E+02  0.12795984808E+03 -0.49602792680E+02  0.13840361595E+03  0.00000000000E+00 0.  1.
         14    1    3    3    0    0  0.43469294704E+01  0.43393128232E+02  0.28988390798E+02  0.52365887510E+02  0.00000000000E+00 0. -1.
        -13    1    4    4    0    0 -0.10386122175E+03  0.73430118110E+02 -0.23788265698E+03  0.26975413643E+03  0.00000000000E+00 0.  1.
         13    1    4    4    0    0 -0.23328242456E+02  0.87038590026E+02 -0.85753865735E+02  0.12439312094E+03  0.00000000000E+00 0. -1.
         21    1    1    2  503  502  0.44193011473E+02  0.31929463821E+02  0.24009107636E+03  0.24620365121E+03  0.00000000000E+00 0.  1.
          1    1    1    2  501    0  0.96577187463E+02 -0.36375114827E+03 -0.11687281345E+04  0.12278304050E+04  0.00000000000E+00 0. -1.
<scales pt_clust_5="13000.00000" pt_clust_6="13000.00000" pt_clust_7="13000.00000" pt_clust_8="13000.00000" pt_clust_9="54.52076" pt_clust_10="13000.00000"></scales>
<clustering>
<clus scale="   54.521">  1  9  2 -1</clus>
<clus scale="   80.136">  5  6 -1 -1</clus>
<clus scale="   93.188">  7  8 -1 -1</clus>
<clus scale="  206.048">  2  5  1 -1</clus>
<clus scale="  241.181">  7 10 -1 -1</clus>
<clus scale="   54.521">  1  5  2 -1</clus>
</clustering>
</event>
<event>
10    4  0.2759992E-005  0.2063078E+03  0.7546771E-02  0.1182669E+00
          2   -1    0    0  502    0 -0.00000000000E+00  0.00000000000E+00  0.41534435054E+03  0.41534435054E+03  0.00000000000E+00 0. -1.
         21   -1    0    0  503  502  0.00000000000E+00 -0.00000000000E+00 -0.78130102163E+02  0.78130102163E+02  0.00000000000E+00 0.  1.
         24    2    1    2    0    0 -0.39599523331E+02 -0.17378106479E+02  0.81080063449E+02  0.12238626731E+03  0.80835022764E+02 0.  0.
         23    2    1    2    0    0 -0.55410983413E+02 -0.40542861576E+01  0.32335794963E+02  0.11197325609E+03  0.91682016366E+02 0.  0.
        -11    1    3    3    0    0 -0.10828713287E+02 -0.48169128338E+02  0.40089715942E+02  0.63598044629E+02  0.00000000000E+00 0.  1.
         12    1    3    3    0    0 -0.28770810044E+02  0.30791021859E+02  0.40990347507E+02  0.58788222685E+02  0.00000000000E+00 0. -1.
        -13    1    4    4    0    0 -0.52937812646E+02 -0.33322869573E+02 -0.69317133245E+01  0.62935477228E+02  0.00000000000E+00 0.  1.
         13    1    4    4    0    0 -0.24731707667E+01  0.29268583416E+02  0.39267508287E+02  0.49037778864E+02  0.00000000000E+00 0. -1.
         21    1    1    2  503  501  0.60717317271E+02 -0.49796204168E+01  0.46583589982E+02  0.76690417209E+02  0.00000000000E+00 0.  1.
          1    1    1    2  501    0  0.34293189473E+02  0.26412013053E+02  0.17721479999E+03  0.18242451209E+03  0.00000000000E+00 0. -1.
<scales pt_clust_5="13000.00000" pt_clust_6="13000.00000" pt_clust_7="13000.00000" pt_clust_8="13000.00000" pt_clust_9="60.92117" pt_clust_10="13000.00000"></scales>
<clustering>
<clus scale="   60.921">  2  9  1 -1</clus>
<clus scale="   80.835">  5  6 -1 -1</clus>
<clus scale="   85.349">  1  5  2 -1</clus>
<clus scale="   91.682">  7  8 -1 -1</clus>
<clus scale="   27.594">  7 10 -1 -1</clus>
<clus scale="   60.921">  2  5  1 -1</clus>
</clustering>
</event>
<event>
10    4  0.2759992E-005  0.3473152E+03  0.7546771E-02  0.1088193E+00
         21   -1    0    0  501  502  0.00000000000E+00  0.00000000000E+00  0.23599550153E+03  0.23599550153E+03  0.00000000000E+00 0.  1.
         -1   -1    0    0    0  501 -0.00000000000E+00 -0.00000000000E+00 -0.37414789985E+03  0.37414789985E+03  0.00000000000E+00 0.  1.
         24    2    1    2    0    0 -0.15873251116E+03 -0.35955075648E+02 -0.47774035156E+02  0.18666148450E+03  0.77919020767E+02 0.  0.
         23    2    1    2    0    0 -0.58917509260E+02  0.24270190057E+02  0.17101919466E+02  0.11212227828E+03  0.90656575132E+02 0.  0.
        -13    1    3    3    0    0 -0.13233370495E+03 -0.45402319517E+02 -0.64452059712E+02  0.15403781382E+03  0.00000000000E+00 0.  1.
         14    1    3    3    0    0 -0.26398806206E+02  0.94472438691E+01  0.16678024557E+02  0.32623670685E+02  0.00000000000E+00 0. -1.
        -13    1    4    4    0    0 -0.33893471590E+02 -0.24408558771E+02  0.35044667270E+02  0.54522232730E+02  0.00000000000E+00 0.  1.
         13    1    4    4    0    0 -0.25024037670E+02  0.48678748828E+02 -0.17942747804E+02  0.57600045552E+02  0.00000000000E+00 0. -1.
         21    1    1    2  503  502  0.10166775273E+02 -0.19371696049E+02  0.46321083963E+02  0.51227617032E+02  0.00000000000E+00 0.  1.
         -2    1    1    2    0  503  0.20748324515E+03  0.31056581640E+02 -0.15380136659E+03  0.26013202157E+03  0.00000000000E+00 0.  1.
<scales pt_clust_5="13000.00000" pt_clust_6="13000.00000" pt_clust_7="13000.00000" pt_clust_8="13000.00000" pt_clust_9="21.87752" pt_clust_10="13000.00000"></scales>
<clustering>
<clus scale="   21.878">  1  9  2 -1</clus>
<clus scale="   77.919">  5  6 -1 -1</clus>
<clus scale="   90.657">  7  8 -1 -1</clus>
<clus scale="  178.733">  2  5  1 -1</clus>
<clus scale="   83.823">  7 10 -1 -1</clus>
<clus scale="   21.878">  1  5  2 -1</clus>
</clustering>
</event>
<event>
10    4  0.2759992E-005  0.2128566E+03  0.7546771E-02  0.1180460E+00
          2   -1    0    0  502    0 -0.00000000000E+00  0.00000000000E+00  0.15868384850E+03  0.15868384850E+03  0.00000000000E+00 0. -1.
         21   -1    0    0  503  502  0.00000000000E+00 -0.00000000000E+00 -0.27355017898E+03  0.27355017898E+03  0.00000000000E+00 0. -1.
         24    2    1    2    0    0  0.11914957635E+02  0.12536462141E+01  0.38890354933E+02  0.90916697184E+02  0.81300973399E+02 0.  0.
         23    2    1    2    0    0  0.85797811890E+02  0.74722363191E+01 -0.65165613306E+02  0.14194918018E+03  0.92119019513E+02 0.  0.
        -11    1    3    3    0    0  0.14334082131E+02 -0.26835502727E+02  0.51670550013E+02  0.59962120174E+02  0.00000000000E+00 0.  1.
         12    1    3    3    0    0 -0.24191244960E+01  0.28089148941E+02 -0.12780195080E+02  0.30954577009E+02  0.00000000000E+00 0. -1.
        -13    1    4    4    0    0  0.10111110275E+03  0.23352300605E+02 -0.50089393351E+02  0.11522904308E+03  0.00000000000E+00 0. -1.
         13    1    4    4    0    0 -0.15313290859E+02 -0.15880064286E+02 -0.15076219955E+02  0.26720137103E+02  0.00000000000E+00 0.  1.
         21    1    1    2  503  501 -0.29303353115E+02 -0.25969699282E+02 -0.11695147670E+03  0.12333190863E+03  0.00000000000E+00 0. -1.
          1    1    1    2  501    0 -0.68409416411E+02  0.17243816749E+02  0.28360404595E+02  0.76036241481E+02  0.00000000000E+00 0. -1.
<scales pt_clust_5="13000.00000" pt_clust_6="13000.00000" pt_clust_7="13000.00000" pt_clust_8="13000.00000" pt_clust_9="39.15497" pt_clust_10="13000.00000"></scales>
<clustering>
<clus scale="   39.155">  2  9  1 -1</clus>
<clus scale="   81.301">  5  6 -1 -1</clus>
<clus scale="   81.658">  1  5  2 -1</clus>
<clus scale="   92.119">  7  8 -1 -1</clus>
<clus scale="   69.542">  7 10 -1 -1</clus>
<clus scale="   39.155">  2  5  1 -1</clus>
</clustering>
</event>
<event>
10    4  0.2759992E-005  0.1152650E+03  0.7546771E-02  0.1261191E+00
         21   -1    0    0  501  502  0.00000000000E+00  0.00000000000E+00  0.43183180890E+03  0.43183180890E+03  0.00000000000E+00 0.  1.
          2   -1    0    0  503    0 -0.00000000000E+00 -0.00000000000E+00 -0.19111183470E+03  0.19111183470E+03  0.00000000000E+00 0. -1.
         24    2    1    2    0    0 -0.11045594718E+02 -0.44273166200E+02 -0.14885244716E+03  0.17552181703E+03  0.81047756418E+02 0.  0.
         23    2    1    2    0    0  0.40036876034E+02  0.72966313824E+02  0.15559935172E+03  0.19716484106E+03  0.87953293844E+02 0.  0.
        -11    1    3    3    0    0  0.34413345093E+02 -0.29116332821E+02 -0.73602213250E+02  0.86309471976E+02  0.00000000000E+00 0.  1.
         12    1    3    3    0    0 -0.45458939811E+02 -0.15156833379E+02 -0.75250233913E+02  0.89212345058E+02  0.00000000000E+00 0. -1.
        -11    1    4    4    0    0  0.55893181921E+02  0.42799966716E+02  0.14547450264E+03  0.16161285795E+03  0.00000000000E+00 0.  1.
         11    1    4    4    0    0 -0.15856305887E+02  0.30166347108E+02  0.10124849085E+02  0.35551983113E+02  0.00000000000E+00 0. -1.
         21    1    1    2  503  502 -0.48349863579E+02 -0.42988301093E+02  0.17369769652E+03  0.18535531585E+03  0.00000000000E+00 0.  1.
          1    1    1    2  501    0  0.19358582263E+02  0.14295153468E+02  0.60275373117E+02  0.64901669657E+02  0.00000000000E+00 0. -1.
<scales pt_clust_5="13000.00000" pt_clust_6="13000.00000" pt_clust_7="13000.00000" pt_clust_8="13000.00000" pt_clust_9="64.69701" pt_clust_10="13000.00000"></scales>
<clustering>
<clus scale="   64.697">  1  9  2 -1</clus>
<clus scale="   81.048">  5  6 -1 -1</clus>
<clus scale="   87.953">  7  8 -1 -1</clus>
<clus scale="    8.211">  7 10 -1 -1</clus>
<clus scale="   94.447">  2  5  1 -1</clus>
<clus scale="   64.697">  1  5  2 -1</clus>
</clustering>
</event>
<event>
10    4  0.2759992E-005  0.7153066E+03  0.7546771E-02  0.9704756E-01
         21   -1    0    0  501  502  0.00000000000E+00  0.00000000000E+00  0.22858431994E+03  0.22858431994E+03  0.00000000000E+00 0. -1.
          2   -1    0    0  503    0 -0.00000000000E+00 -0.00000000000E+00 -0.33400847559E+04  0.33400847559E+04  0.00000000000E+00 0. -1.
         24    2    1    2    0    0  0.60900888296E+03  0.30413970702E+03 -0.24833748183E+04  0.25763002923E+04  0.82340311796E+02 0.  0.
         23    2    1    2    0    0 -0.34584786126E+03 -0.79798692404E+02 -0.36585230402E+03  0.52395387643E+03  0.12124843017E+03 0.  0.
        -11    1    3    3    0    0  0.34116543418E+02  0.27414907061E+02 -0.10325615791E+03  0.11214878426E+03  0.00000000000E+00 0.  1.
         12    1    3    3    0    0  0.57489233954E+03  0.27672479996E+03 -0.23801186604E+04  0.24641515080E+04  0.00000000000E+00 0. -1.
        -13    1    4    4    0    0 -0.88950092194E+02 -0.73721045736E+02 -0.86037773664E+02  0.14404655491E+03  0.00000000000E+00 0.  1.
         13    1    4    4    0    0 -0.25689776906E+03 -0.60776466676E+01 -0.27981453036E+03  0.37990732151E+03  0.00000000000E+00 0. -1.
         21    1    1    2  503  502  0.19765006038E+01 -0.20941959294E+02  0.21451703437E+02  0.30044097491E+02  0.00000000000E+00 0.  1.
          1    1    1    2  501    0 -0.26513752230E+03 -0.20339905533E+03 -0.28372501713E+03  0.43837080968E+03  0.00000000000E+00 0. -1.
<scales pt_clust_5="13000.00000" pt_clust_6="13000.00000" pt_clust_7="13000.00000" pt_clust_8="13000.00000" pt_clust_9="21.03502" pt_clust_10="13000.00000"></scales>
<clustering>
<clus scale="   21.035">  1  9  2 -1</clus>
<clus scale="   82.340">  5  6 -1 -1</clus>
<clus scale="  121.248">  7  8 -1 -1</clus>
<clus scale="  338.499">  7 10 -1 -1</clus>
<clus scale="  683.981">  2  5  1 -1</clus>
<clus scale="   21.035">  1  5  2 -1</clus>
</clustering>
</event>
<event>
10    4  0.2759992E-005  0.1341316E+03  0.7546771E-02  0.1239600E+00
          2   -1    0    0  503    0 -0.00000000000E+00  0.00000000000E+00  0.65957556380E+03  0.65957556380E+03  0.00000000000E+00 0. -1.
         21   -1    0    0  501  502  0.00000000000E+00 -0.00000000000E+00 -0.24602038227E+03  0.24602038227E+03  0.00000000000E+00 0. -1.
         24    2    1    2    0    0  0.27814207731E+02  0.37702362545E+02  0.53967817748E+03  0.54773460028E+03  0.81028135893E+02 0.  0.
         23    2    1    2    0    0  0.63310030476E+01 -0.71726969360E+00  0.36938552267E+02  0.10279722308E+03  0.95719466954E+02 0.  0.
        -13    1    3    3    0    0 -0.31321847785E+01 -0.24098980979E+02  0.12597509064E+03  0.12829768092E+03  0.00000000000E+00 0.  1.
         14    1    3    3    0    0  0.30946392509E+02  0.61801343524E+02  0.41370308684E+03  0.41943691937E+03  0.00000000000E+00 0. -1.
        -13    1    4    4    0    0 -0.33156761582E+02 -0.62802349974E+01 -0.15320441597E+02  0.37061140309E+02  0.00000000000E+00 0. -1.
         13    1    4    4    0    0  0.39487764630E+02  0.55629653038E+01  0.52258993864E+02  0.65736082771E+02  0.00000000000E+00 0.  1.
         21    1    1    2  503  502 -0.19531516239E+02 -0.19766334955E+02 -0.20529728836E+03  0.20716941071E+03  0.00000000000E+00 0. -1.
          1    1    1    2  501    0 -0.14613694539E+02 -0.17218757897E+02  0.42235740150E+02  0.47894712000E+02  0.00000000000E+00 0. -1.
<scales pt_clust_5="13000.00000" pt_clust_6="13000.00000" pt_clust_7="13000.00000" pt_clust_8="13000.00000" pt_clust_9="27.78827" pt_clust_10="13000.00000"></scales>
<clustering>
<clus scale="   27.788">  2  9  1 -1</clus>
<clus scale="   81.028">  5  6 -1 -1</clus>
<clus scale="   92.237">  1  5  2 -1</clus>
<clus scale="   95.719">  7  8 -1 -1</clus>
<clus scale="    6.777">  7 10 -1 -1</clus>
<clus scale="   27.788">  2  5  1 -1</clus>
</clustering>
</event>
<event>
10    4  0.2759992E-005  0.2531302E+03  0.7546771E-02  0.1145795E+00
         21   -1    0    0  503  502  0.00000000000E+00  0.00000000000E+00  0.77421494568E+02  0.77421494568E+02  0.00000000000E+00 0.  1.
          2   -1    0    0  502    0 -0.00000000000E+00 -0.00000000000E+00 -0.58720357860E+03  0.58720357860E+03  0.00000000000E+00 0. -1.
         24    2    1    2    0    0 -0.50971478560E+02 -0.54073745284E+02 -0.13876713590E+03  0.17678486285E+03  0.80464328582E+02 0.  0.
         23    2    1    2    0    0 -0.86401321682E+02  0.46166121422E+02 -0.14542921237E+03  0.19939148987E+03  0.94925293091E+02 0.  0.
        -11    1    3    3    0    0 -0.37600751797E+02 -0.75402163680E+02 -0.10993464673E+03  0.13850967250E+03  0.00000000000E+00 0.  1.
         12    1    3    3    0    0 -0.13370726762E+02  0.21328418396E+02 -0.28832489167E+02  0.38275190359E+02  0.00000000000E+00 0. -1.
        -13    1    4    4    0    0 -0.53992357613E+02  0.30369846902E+02 -0.15071784236E+03  0.16295204904E+03  0.00000000000E+00 0. -1.
         13    1    4    4    0    0 -0.32408964070E+02  0.15796274521E+02  0.52886299935E+01  0.36439440830E+02  0.00000000000E+00 0.  1.
         21    1    1    2  503  501  0.32605996546E+02 -0.19152818079E+02  0.48353173526E+00  0.37818186816E+02  0.00000000000E+00 0.  1.
          1    1    1    2  501    0  0.10476680370E+03  0.27060441940E+02 -0.22606926750E+03  0.25063053362E+03  0.00000000000E+00 0. -1.
<scales pt_clust_5="13000.00000" pt_clust_6="13000.00000" pt_clust_7="13000.00000" pt_clust_8="13000.00000" pt_clust_9="37.81510" pt_clust_10="13000.00000"></scales>
<clustering>
<clus scale="   37.815">  1  9  2 -1</clus>
<clus scale="   80.464">  5  6 -1 -1</clus>
<clus scale="   94.925">  7  8 -1 -1</clus>
<clus scale="  108.352">  2  5  1 -1</clus>
<clus scale="   87.458">  7 10 -1 -1</clus>
<clus scale="   37.815">  1  5  2 -1</clus>
</clustering>
</event>
<event>
10    4  0.2759992E-005  0.2892192E+03  0.7546771E-02  0.1119389E+00
         21   -1    0    0  503  502  0.00000000000E+00  0.00000000000E+00  0.28695509359E+03  0.28695509359E+03  0.00000000000E+00 0. -1.
          4   -1    0    0  502    0 -0.00000000000E+00 -0.00000000000E+00 -0.23387369414E+03  0.23387369414E+03  0.00000000000E+00 0. -1.
         24    2    1    2    0    0 -0.11854971123E+03  0.33450118684E+02  0.37711619502E+02  0.15168061022E+03  0.80074320471E+02 0.  0.
         23    2    1    2    0    0 -0.23654093478E+02 -0.11353088131E+02 -0.12240986796E+03  0.15455420684E+03  0.90633428330E+02 0.  0.
        -11    1    3    3    0    0 -0.74361398582E+02  0.41999055069E+02 -0.10123812077E+02  0.86000173237E+02  0.00000000000E+00 0.  1.
         12    1    3    3    0    0 -0.44188312643E+02 -0.85489363851E+01  0.47835431579E+02  0.65680436981E+02  0.00000000000E+00 0. -1.
        -11    1    4    4    0    0 -0.37091088782E+02  0.27004325997E+02 -0.95098187635E+02  0.10558715727E+03  0.00000000000E+00 0. -1.
         11    1    4    4    0    0  0.13436995304E+02 -0.38357414129E+02 -0.27311680323E+02  0.48967049569E+02  0.00000000000E+00 0.  1.
         21    1    1    2  503  501  0.27073374546E+02  0.10494502946E+02  0.72925918188E+02  0.78493896227E+02  0.00000000000E+00 0. -1.
          3    1    1    2  501    0  0.11513043016E+03 -0.32591533499E+02  0.64853729717E+02  0.13610007444E+03  0.00000000000E+00 0. -1.
<scales pt_clust_5="13000.00000" pt_clust_6="13000.00000" pt_clust_7="13000.00000" pt_clust_8="13000.00000" pt_clust_9="29.03622" pt_clust_10="13000.00000"></scales>
<clustering>
<clus scale="   29.036">  1  9  2 -1</clus>
<clus scale="   80.074">  5  6 -1 -1</clus>
<clus scale="   90.633">  7  8 -1 -1</clus>
<clus scale="  130.949">  7 10 -1 -1</clus>
<clus scale="  138.533">  2  5  1 -1</clus>
<clus scale="   29.036">  1  5  2 -1</clus>
</clustering>
</event>
<event>
10    4  0.2759992E-005  0.3466749E+03  0.7546771E-02  0.1117268E+00
         -1   -1    0    0    0  501 -0.00000000000E+00  0.00000000000E+00  0.96615718018E+03  0.96615718018E+03  0.00000000000E+00 0.  1.
         21   -1    0    0  503  502  0.00000000000E+00 -0.00000000000E+00 -0.78479548004E+02  0.78479548004E+02  0.00000000000E+00 0.  1.
         24    2    1    2    0    0  0.12679409086E+01 -0.25494000488E+02  0.48731751693E+03  0.49470252893E+03  0.81244557322E+02 0.  0.
         23    2    1    2    0    0  0.32922207555E+02  0.45599181477E+02  0.44716103888E+03  0.45847149088E+03  0.84142475348E+02 0.  0.
        -13    1    3    3    0    0  0.14138877327E+02 -0.51126127552E+02  0.24394196212E+03  0.24964268396E+03  0.00000000000E+00 0.  1.
         14    1    3    3    0    0 -0.12870936419E+02  0.25632127064E+02  0.24337555480E+03  0.24505984497E+03  0.00000000000E+00 0. -1.
        -13    1    4    4    0    0 -0.24138497710E+02  0.30783001139E+02  0.23665374958E+03  0.23986508171E+03  0.00000000000E+00 0. -1.
         13    1    4    4    0    0  0.57060705264E+02  0.14816180338E+02  0.21050728929E+03  0.21860640917E+03  0.00000000000E+00 0.  1.
         21    1    1    2  503  501  0.11738088668E+01  0.20445487797E+02 -0.51058814313E+00  0.20485519246E+02  0.00000000000E+00 0.  1.
         -2    1    1    2    0  502 -0.35363957330E+02 -0.40550668786E+02 -0.46290335484E+02  0.70977189126E+02  0.00000000000E+00 0.  1.
<scales pt_clust_5="13000.00000" pt_clust_6="13000.00000" pt_clust_7="13000.00000" pt_clust_8="13000.00000" pt_clust_9="20.47916" pt_clust_10="13000.00000"></scales>
<clustering>
<clus scale="   20.479">  2  9  1 -1</clus>
<clus scale="   81.245">  5  6 -1 -1</clus>
<clus scale="   84.142">  7  8 -1 -1</clus>
<clus scale="   41.294">  7 10 -1 -1</clus>
<clus scale="   84.835">  1  5  2 -1</clus>
<clus scale="   20.479">  2  5  1 -1</clus>
</clustering>
</event>
<event>
10    4  0.2759992E-005  0.2789696E+03  0.7546771E-02  0.1145689E+00
          2   -1    0    0  503    0 -0.00000000000E+00  0.00000000000E+00  0.75219137558E+03  0.75219137558E+03  0.00000000000E+00 0. -1.
         21   -1    0    0  501  502  0.00000000000E+00 -0.00000000000E+00 -0.77335296961E+02  0.77335296961E+02  0.00000000000E+00 0.  1.
         24    2    1    2    0    0  0.43946328228E+00 -0.56440082610E+01  0.37676669275E+03  0.38540405909E+03  0.80938866058E+02 0.  0.
         23    2    1    2    0    0  0.67401646334E+02 -0.20804423305E+02  0.30221468888E+03  0.32372195167E+03  0.92121538524E+02 0.  0.
        -13    1    3    3    0    0 -0.37038879083E+02  0.10560940179E+02  0.22335914613E+03  0.22665550992E+03  0.00000000000E+00 0.  1.
         14    1    3    3    0    0  0.37478342365E+02 -0.16204948440E+02  0.15340754663E+03  0.15874854917E+03  0.00000000000E+00 0. -1.
        -11    1    4    4    0    0  0.52777912734E+02  0.24241489206E+02  0.96530285436E+02  0.11265546537E+03  0.00000000000E+00 0.  1.
         11    1    4    4    0    0  0.14623733601E+02 -0.45045912511E+02  0.20568440345E+03  0.21106648630E+03  0.00000000000E+00 0. -1.
         21    1    1    2  503  502  0.22941448460E+02  0.25019158537E+01 -0.12312557643E+02  0.26156618973E+02  0.00000000000E+00 0.  1.
          1    1    1    2  501    0 -0.90782558077E+02  0.23946515713E+02  0.81872546254E+01  0.94244042804E+02  0.00000000000E+00 0. -1.
<scales pt_clust_5="13000.00000" pt_clust_6="13000.00000" pt_clust_7="13000.00000" pt_clust_8="13000.00000" pt_clust_9="23.07747" pt_clust_10="13000.00000"></scales>
<clustering>
<clus scale="   23.077">  2  9  1 -1</clus>
<clus scale="   80.939">  5  6 -1 -1</clus>
<clus scale="   81.151">  1  5  2 -1</clus>
<clus scale="   92.122">  7  8 -1 -1</clus>
<clus scale="   77.738">  7 10 -1 -1</clus>
<clus scale="   23.077">  2  5  1 -1</clus>
</clustering>
</event>
<event>
10    4  0.2759992E-005  0.7584348E+03  0.7546771E-02  0.1029559E+00
         21   -1    0    0  501  502  0.00000000000E+00  0.00000000000E+00  0.33029460997E+03  0.33029460997E+03  0.00000000000E+00 0. -1.
          2   -1    0    0  503    0 -0.00000000000E+00 -0.00000000000E+00 -0.14194401215E+04  0.14194401215E+04  0.00000000000E+00 0. -1.
         24    2    1    2    0    0  0.26266507891E+01  0.45055099076E+02 -0.23771788093E+03  0.25475735963E+03  0.79716122106E+02 0.  0.
         23    2    1    2    0    0  0.78798291496E+02  0.35802678470E+03 -0.31073897306E+03  0.48920373653E+03  0.91483534831E+02 0.  0.
        -13    1    3    3    0    0  0.36762180922E+02  0.98256816291E+01 -0.66145455445E+02  0.76310046793E+02  0.00000000000E+00 0.  1.
         14    1    3    3    0    0 -0.34135530132E+02  0.35229417447E+02 -0.17157242548E+03  0.17844731283E+03  0.00000000000E+00 0. -1.
        -13    1    4    4    0    0  0.32693118027E+01  0.41513873312E+02 -0.36881455005E+01  0.41805412260E+02  0.00000000000E+00 0.  1.
         13    1    4    4    0    0  0.75528979693E+02  0.31651291139E+03 -0.30705082756E+03  0.44739832427E+03  0.00000000000E+00 0. -1.
         21    1    1    2  503  502 -0.15215629598E+02 -0.85734872914E+02  0.18857185564E+03  0.20770490740E+03  0.00000000000E+00 0. -1.
          1    1    1    2  501    0 -0.66209312687E+02 -0.31734701087E+03 -0.72926051316E+03  0.79806872790E+03  0.00000000000E+00 0. -1.
<scales pt_clust_5="13000.00000" pt_clust_6="13000.00000" pt_clust_7="13000.00000" pt_clust_8="13000.00000" pt_clust_9="87.07459" pt_clust_10="13000.00000"></scales>
<clustering>
<clus scale="   79.716">  5  6 -1 -1</clus>
<clus scale="   87.075">  1  9  2 -1</clus>
<clus scale="   88.993">  2  5  1 -1</clus>
<clus scale="   91.484">  7  8 -1 -1</clus>
<clus scale="  317.911">  7 10 -1 -1</clus>
<clus scale="   87.075">  1  5  2 -1</clus>
</clustering>
</event>
<event>
10    4  0.2759992E-005  0.2360975E+03  0.7546771E-02  0.1152353E+00
          2   -1    0    0  503    0 -0.00000000000E+00  0.00000000000E+00  0.11668492914E+04  0.11668492914E+04  0.00000000000E+00 0. -1.
         21   -1    0    0  501  502  0.00000000000E+00 -0.00000000000E+00 -0.83856006115E+02  0.83856006115E+02  0.00000000000E+00 0. -1.
         24    2    1    2    0    0 -0.22745600053E+02 -0.78383826914E+02  0.50229211672E+03  0.51513020722E+03  0.80002332612E+02 0.  0.
         23    2    1    2    0    0  0.24889158132E+02  0.10528924863E+03  0.24824128111E+03  0.28601066292E+03  0.92049278023E+02 0.  0.
        -11    1    3    3    0    0 -0.21774048180E+02 -0.14426429293E+02  0.36033304742E+02  0.44504270435E+02  0.00000000000E+00 0.  1.
         12    1    3    3    0    0 -0.97155187338E+00 -0.63957397621E+02  0.46625881198E+03  0.47062593678E+03  0.00000000000E+00 0. -1.
        -13    1    4    4    0    0 -0.29532188724E+02  0.27752764663E+02  0.38629991387E+02  0.55987876829E+02  0.00000000000E+00 0. -1.
         13    1    4    4    0    0  0.54421346856E+02  0.77536483964E+02  0.20961128972E+03  0.23002278609E+03  0.00000000000E+00 0.  1.
         21    1    1    2  503  502 -0.71516265182E+02 -0.14667346486E+03  0.16131371394E+03  0.22945543311E+03  0.00000000000E+00 0. -1.
          1    1    1    2  501    0  0.69372707104E+02  0.11976804314E+03  0.17114617349E+03  0.22010899425E+03  0.00000000000E+00 0. -1.
<scales pt_clust_5="13000.00000" pt_clust_6="13000.00000" pt_clust_7="13000.00000" pt_clust_8="13000.00000" pt_clust_9="187.10119" pt_clust_10="13000.00000"></scales>
<clustering>
<clus scale="   80.002">  5  6 -1 -1</clus>
<clus scale="   92.049">  7  8 -1 -1</clus>
<clus scale="  114.288">  1  5  2 -1</clus>
<clus scale="  115.006">  7 10 -1 -1</clus>
<clus scale="  187.101">  2  9  1 -1</clus>
<clus scale="  187.101">  2  5  1 -1</clus>
</clustering>
</event>
<event>
10    4  0.2759992E-005  0.9269120E+03  0.7546771E-02  0.9497430E-01
          2   -1    0    0  502    0 -0.00000000000E+00  0.00000000000E+00  0.26704350399E+04  0.26704350399E+04  0.00000000000E+00 0. -1.
         21   -1    0    0  503  502  0.00000000000E+00 -0.00000000000E+00 -0.45257043301E+03  0.45257043301E+03  0.00000000000E+00 0. -1.
         24    2    1    2    0    0 -0.17620725238E+03  0.65178459627E+03  0.14484776031E+04  0.16000609099E+04  0.78964504045E+02 0.  0.
         23    2    1    2    0    0  0.21615531412E+03  0.11791567002E+03  0.13144791264E+03  0.29296836870E+03  0.89020706927E+02 0.  0.
        -13    1    3    3    0    0  0.40343170716E+01  0.76902891712E+02  0.14954603546E+03  0.16820923634E+03  0.00000000000E+00 0.  1.
         14    1    3    3    0    0 -0.18024156945E+03  0.57488170456E+03  0.12989315677E+04  0.14318516736E+04  0.00000000000E+00 0. -1.
        -11    1    4    4    0    0  0.13795857616E+03  0.10181301850E+03  0.49279488631E+02  0.17840102991E+03  0.00000000000E+00 0.  1.
         11    1    4    4    0    0  0.78196737958E+02  0.16102651522E+02  0.82168424011E+02  0.11456733879E+03  0.00000000000E+00 0. -1.
         21    1    1    2  503  501 -0.15324275294E+03 -0.19392603883E+03 -0.11727521207E+03  0.27357654364E+03  0.00000000000E+00 0. -1.
          1    1    1    2  501    0  0.11329469120E+03 -0.57577422747E+03  0.75521430321E+03  0.95639965069E+03  0.00000000000E+00 0. -1.
<scales pt_clust_5="13000.00000" pt_clust_6="13000.00000" pt_clust_7="13000.00000" pt_clust_8="13000.00000" pt_clust_9="247.16523" pt_clust_10="13000.00000"></scales>
<clustering>
<clus scale="   78.965">  5  6 -1 -1</clus>
<clus scale="   89.021">  7  8 -1 -1</clus>
<clus scale="  247.165">  2  9  1 -1</clus>
<clus scale="  639.392">  1  5  2 -1</clus>
<clus scale="  195.472">  7 10 -1 -1</clus>
<clus scale="  247.165">  2  5  1 -1</clus>
</clustering>
</event>
<event>
10    4  0.2759992E-005  0.4814740E+03  0.7546771E-02  0.1045172E+00
         -1   -1    0    0    0  501 -0.00000000000E+00  0.00000000000E+00  0.13545005705E+03  0.13545005705E+03  0.00000000000E+00 0.  1.
         21   -1    0    0  503  502  0.00000000000E+00 -0.00000000000E+00 -0.11685374510E+04  0.11685374510E+04  0.00000000000E+00 0. -1.
         24    2    1    2    0    0  0.93528656855E+02 -0.19896823255E+03 -0.22676180907E+03  0.32686448580E+03  0.84163571748E+02 0.  0.
         23    2    1    2    0    0 -0.82089541808E+01  0.28633774696E+03 -0.49998775877E+03  0.58358231488E+03  0.92324791098E+02 0.  0.
        -13    1    3    3    0    0  0.82760236328E+02 -0.78767127911E+02 -0.12070582002E+03  0.16620292459E+03  0.00000000000E+00 0.  1.
         14    1    3    3    0    0  0.10768420527E+02 -0.12020110464E+03 -0.10605598905E+03  0.16066156121E+03  0.00000000000E+00 0. -1.
        -11    1    4    4    0    0  0.58498099919E+01  0.11773726115E+03 -0.12298436360E+03  0.17035679215E+03  0.00000000000E+00 0. -1.
         11    1    4    4    0    0 -0.14058764173E+02  0.16860048581E+03 -0.37700339517E+03  0.41322552273E+03  0.00000000000E+00 0.  1.
         21    1    1    2  503  501 -0.36154235441E+02  0.44172827106E+02 -0.22311798592E+03  0.23030415332E+03  0.00000000000E+00 0.  1.
         -2    1    1    2    0  502 -0.49165467233E+02 -0.13154234151E+03 -0.83219840212E+02  0.16323655407E+03  0.00000000000E+00 0.  1.
<scales pt_clust_5="13000.00000" pt_clust_6="13000.00000" pt_clust_7="13000.00000" pt_clust_8="13000.00000" pt_clust_9="57.08211" pt_clust_10="13000.00000"></scales>
<clustering>
<clus scale="   57.082">  2  9  1 -1</clus>
<clus scale="   84.164">  5  6 -1 -1</clus>
<clus scale="   92.325">  7  8 -1 -1</clus>
<clus scale="  136.825">  7 10 -1 -1</clus>
<clus scale="  220.334">  1  5  2 -1</clus>
<clus scale="   57.082">  2  5  1 -1</clus>
</clustering>
</event>
<event>
10    4  0.2759992E-005  0.2966430E+03  0.7546771E-02  0.1112996E+00
          2   -1    0    0  503    0 -0.00000000000E+00  0.00000000000E+00  0.55318607342E+03  0.55318607342E+03  0.00000000000E+00 0. -1.
         21   -1    0    0  501  502  0.00000000000E+00 -0.00000000000E+00 -0.16731385041E+03  0.16731385041E+03  0.00000000000E+00 0. -1.
         24    2    1    2    0    0  0.67125968865E+02 -0.12972801688E+03  0.62009931820E+02  0.17554010943E+03  0.75058938948E+02 0.  0.
         23    2    1    2    0    0 -0.11492396126E+02  0.10626634772E+02  0.93799593537E+01  0.93827875386E+02  0.92036329928E+02 0.  0.
        -11    1    3    3    0    0  0.43853999709E+02 -0.27383582578E+02 -0.34946830511E+01  0.51819366022E+02  0.00000000000E+00 0.  1.
         12    1    3    3    0    0  0.23271969156E+02 -0.10234443430E+03  0.65504614871E+02  0.12372074341E+03  0.00000000000E+00 0. -1.
        -11    1    4    4    0    0 -0.13930977343E+02 -0.17740749573E+02  0.43734270775E+02  0.49208665552E+02  0.00000000000E+00 0.  1.
         11    1    4    4    0    0  0.24385812170E+01  0.28367384346E+02 -0.34354311421E+02  0.44619209834E+02  0.00000000000E+00 0. -1.
         21    1    1    2  503  502 -0.53280411380E+01  0.29473784888E+02 -0.57704353431E+02  0.65014493945E+02  0.00000000000E+00 0. -1.
          1    1    1    2  501    0 -0.50305531602E+02  0.89627597221E+02  0.37218668527E+03  0.38611744507E+03  0.00000000000E+00 0. -1.
<scales pt_clust_5="13000.00000" pt_clust_6="13000.00000" pt_clust_7="13000.00000" pt_clust_8="13000.00000" pt_clust_9="29.95149" pt_clust_10="13000.00000"></scales>
<clustering>
<clus scale="   29.951">  2  9  1 -1</clus>
<clus scale="   75.059">  5  6 -1 -1</clus>
<clus scale="   92.036">  7  8 -1 -1</clus>
<clus scale="  104.643">  7 10 -1 -1</clus>
<clus scale="  150.819">  1  5  2 -1</clus>
<clus scale="   29.951">  2  5  1 -1</clus>
</clustering>
</event>
<event>
10    4  0.2759992E-005  0.3845507E+03  0.7546771E-02  0.1066648E+00
          2   -1    0    0  502    0 -0.00000000000E+00  0.00000000000E+00  0.12065157248E+04  0.12065157248E+04  0.00000000000E+00 0. -1.
         21   -1    0    0  503  502  0.00000000000E+00 -0.00000000000E+00 -0.29614264946E+03  0.29614264946E+03  0.00000000000E+00 0. -1.
         24    2    1    2    0    0  0.18505147193E+03 -0.13276267276E+03  0.39872126031E+03  0.46866138014E+03  0.93780974998E+02 0.  0.
         23    2    1    2    0    0  0.13904070646E+02 -0.58088886225E+02  0.34772007309E+03  0.36331036808E+03  0.86703704881E+02 0.  0.
        -11    1    3    3    0    0  0.77615885305E+02 -0.11277010393E+03  0.21433331448E+03  0.25432281000E+03  0.00000000000E+00 0.  1.
         12    1    3    3    0    0  0.10743558663E+03 -0.19992568832E+02  0.18438794583E+03  0.21433857014E+03  0.00000000000E+00 0. -1.
        -13    1    4    4    0    0 -0.27297118424E+02  0.29268486267E+01  0.14636458181E+03  0.14891705720E+03  0.00000000000E+00 0.  1.
         13    1    4    4    0    0  0.41201189069E+02 -0.61015734851E+02  0.20135549129E+03  0.21439331088E+03  0.00000000000E+00 0. -1.
         21    1    1    2  503  501 -0.28146634872E+02  0.55750435564E+01 -0.21429064584E+03  0.21620313378E+03  0.00000000000E+00 0. -1.
          1    1    1    2  501    0 -0.17080890770E+03  0.18527651543E+03  0.37822238779E+03  0.45448349227E+03  0.00000000000E+00 0. -1.
<scales pt_clust_5="13000.00000" pt_clust_6="13000.00000" pt_clust_7="13000.00000" pt_clust_8="13000.00000" pt_clust_9="28.69345" pt_clust_10="13000.00000"></scales>
<clustering>
<clus scale="   28.693">  2  9  1 -1</clus>
<clus scale="   86.704">  7  8 -1 -1</clus>
<clus scale="   93.781">  5  6 -1 -1</clus>
<clus scale="  235.957">  1  5  2 -1</clus>
<clus scale="  143.616">  7 10 -1 -1</clus>
<clus scale="   28.693">  2  5  1 -1</clus>
</clustering>
</event>
<event>
10    4  0.2759992E-005  0.1731166E+03  0.7546771E-02  0.1196993E+00
         -1   -1    0    0    0  501 -0.00000000000E+00  0.00000000000E+00  0.89135385763E+03  0.89135385763E+03  0.00000000000E+00 0.  1.
         21   -1    0    0  503  502  0.00000000000E+00 -0.00000000000E+00 -0.58966779566E+02  0.58966779566E+02  0.00000000000E+00 0.  1.
         24    2    1    2    0    0  0.32706088297E+02 -0.67297497901E+02  0.44990180256E+03  0.46324398559E+03  0.81146267962E+02 0.  0.
         23    2    1    2    0    0  0.50406234480E+01 -0.56472035898E+01  0.11341900390E+03  0.14574053385E+03  0.91209286629E+02 0.  0.
        -13    1    3    3    0    0  0.53626241189E+02 -0.63290655781E+02  0.40673133813E+03  0.41510464015E+03  0.00000000000E+00 0.  1.
         14    1    3    3    0    0 -0.20920152893E+02 -0.40068421207E+01  0.43170464429E+02  0.48139345444E+02  0.00000000000E+00 0. -1.
        -11    1    4    4    0    0 -0.19420452914E+02 -0.16034126841E+02 -0.38688299591E+01  0.25479698981E+02  0.00000000000E+00 0.  1.
         11    1    4    4    0    0  0.24461076361E+02  0.10386923252E+02  0.11728783386E+03  0.12026083486E+03  0.00000000000E+00 0. -1.
         21    1    1    2  503  501 -0.86923491515E+02  0.28755435975E+02  0.25868853858E+03  0.27441269735E+03  0.00000000000E+00 0.  1.
         -2    1    1    2    0  502  0.49176779770E+02  0.44189265516E+02  0.10377733018E+02  0.66923420400E+02  0.00000000000E+00 0.  1.
<scales pt_clust_5="13000.00000" pt_clust_6="13000.00000" pt_clust_7="13000.00000" pt_clust_8="13000.00000" pt_clust_9="91.55641" pt_clust_10="13000.00000"></scales>
<clustering>
<clus scale="   81.146">  5  6 -1 -1</clus>
<clus scale="   91.209">  7  8 -1 -1</clus>
<clus scale="   66.114">  7 10 -1 -1</clus>
<clus scale="   91.556">  2  9  1 -1</clus>
<clus scale="  105.256">  1  5  2 -1</clus>
<clus scale="   91.556">  2  5  1 -1</clus>
</clustering>
</event>
<event>
10    4  0.2759992E-005  0.2473629E+03  0.7546771E-02  0.1150373E+00
          2   -1    0    0  502    0 -0.00000000000E+00  0.00000000000E+00  0.59781993568E+03  0.59781993568E+03  0.00000000000E+00 0. -1.
         21   -1    0    0  503  502  0.00000000000E+00 -0.00000000000E+00 -0.96191106602E+02  0.96191106602E+02  0.00000000000E+00 0. -1.
         24    2    1    2    0    0 -0.79939537322E+02 -0.90546682033E+01  0.66224898287E+02  0.13224663659E+03  0.81431683587E+02 0.  0.
         23    2    1    2    0    0  0.66730435571E+02 -0.59199899646E+02  0.80367581746E+02  0.13834203084E+03  0.68716738513E+02 0.  0.
        -11    1    3    3    0    0 -0.47222957621E+02  0.22572640397E+02  0.54483786139E+00  0.52343372735E+02  0.00000000000E+00 0.  1.
         12    1    3    3    0    0 -0.32716579701E+02 -0.31627308601E+02  0.65680060425E+02  0.79903263851E+02  0.00000000000E+00 0. -1.
        -11    1    4    4    0    0  0.55365432849E+01 -0.39583080374E+02  0.65999811798E+01  0.40509669401E+02  0.00000000000E+00 0.  1.
         11    1    4    4    0    0  0.61193892286E+02 -0.19616819272E+02  0.73767600566E+02  0.97832361440E+02  0.00000000000E+00 0. -1.
         21    1    1    2  503  501  0.29036789829E+02  0.21867052724E+02 -0.22478823707E+02  0.42738749088E+02  0.00000000000E+00 0. -1.
          1    1    1    2  501    0 -0.15827688078E+02  0.46387515125E+02  0.37751517276E+03  0.38068362577E+03  0.00000000000E+00 0. -1.
<scales pt_clust_5="13000.00000" pt_clust_6="13000.00000" pt_clust_7="13000.00000" pt_clust_8="13000.00000" pt_clust_9="36.34973" pt_clust_10="13000.00000"></scales>
<clustering>
<clus scale="   36.350">  2  9  1 -1</clus>
<clus scale="   68.717">  7  8 -1 -1</clus>
<clus scale="   49.303">  7 10 -1 -1</clus>
<clus scale="   81.432">  5  6 -1 -1</clus>
<clus scale="  104.133">  1  5  2 -1</clus>
<clus scale="   36.350">  2  5  1 -1</clus>
</clustering>
</event>
<event>
10    4  0.2759992E-005  0.4133441E+03  0.7546771E-02  0.1091607E+00
          2   -1    0    0  503    0 -0.00000000000E+00  0.00000000000E+00  0.51370762158E+03  0.51370762158E+03  0.00000000000E+00 0. -1.
         21   -1    0    0  501  502  0.00000000000E+00 -0.00000000000E+00 -0.73022922347E+03  0.73022922347E+03  0.00000000000E+00 0.  1.
         24    2    1    2    0    0 -0.25467725021E+01 -0.51153330349E+02  0.28137226694E+03  0.29758400516E+03  0.82235869706E+02 0.  0.
         23    2    1    2    0    0 -0.16161750883E+03  0.26810691453E+03 -0.19197540320E+03  0.37858377112E+03  0.92030318581E+02 0.  0.
        -11    1    3    3    0    0 -0.15686040770E+01 -0.20009134797E+02  0.67137781004E+01  0.21163667226E+02  0.00000000000E+00 0.  1.
         12    1    3    3    0    0 -0.97816842516E+00 -0.31144195552E+02  0.27465848884E+03  0.27642033793E+03  0.00000000000E+00 0. -1.
        -13    1    4    4    0    0 -0.42864396036E+02  0.33687034125E+02 -0.24261810639E+01  0.54571595819E+02  0.00000000000E+00 0. -1.
         13    1    4    4    0    0 -0.11875311280E+03  0.23441988041E+03 -0.18954922213E+03  0.32401217530E+03  0.00000000000E+00 0.  1.
         21    1    1    2  503  502  0.16051559997E+03 -0.32800140568E+03 -0.25597659867E+03  0.44595313546E+03  0.00000000000E+00 0. -1.
          1    1    1    2  501    0  0.36486813633E+01  0.11104782149E+03 -0.49941866972E+02  0.12181593332E+03  0.00000000000E+00 0. -1.
<scales pt_clust_5="13000.00000" pt_clust_6="13000.00000" pt_clust_7="13000.00000" pt_clust_8="13000.00000" pt_clust_9="384.30443" pt_clust_10="13000.00000"></scales>
<clustering>
<clus scale="   82.236">  5  6 -1 -1</clus>
<clus scale="   92.030">  7  8 -1 -1</clus>
<clus scale="   96.881">  1  5  2 -1</clus>
<clus scale="  102.901">  7 10 -1 -1</clus>
<clus scale="  384.304">  2  9  1 -1</clus>
<clus scale="  384.304">  2  5  1 -1</clus>
</clustering>
</event>
<event>
10    4  0.2759992E-005  0.1696368E+03  0.7546771E-02  0.1207372E+00
          2   -1    0    0  503    0 -0.00000000000E+00  0.00000000000E+00  0.32200013605E+03  0.32200013605E+03  0.00000000000E+00 0. -1.
         21   -1    0    0  501  502  0.00000000000E+00 -0.00000000000E+00 -0.10961627693E+03  0.10961627693E+03  0.00000000000E+00 0. -1.
         24    2    1    2    0    0 -0.25823841761E+02  0.21559561807E+01  0.68825683136E+02  0.10612425928E+03  0.76510553505E+02 0.  0.
         23    2    1    2    0    0 -0.21043231273E+01 -0.30682780470E+02  0.11579951897E+03  0.14358064928E+03  0.79120244312E+02 0.  0.
        -11    1    3    3    0    0 -0.29431580887E+02  0.23135021474E+02  0.75115650545E+02  0.83927397963E+02  0.00000000000E+00 0.  1.
         12    1    3    3    0    0  0.36077391261E+01 -0.20979065293E+02 -0.62899674090E+01  0.22196861314E+02  0.00000000000E+00 0. -1.
        -11    1    4    4    0    0 -0.16322340112E+02 -0.54450108098E+02  0.83799099468E+02  0.10125967672E+03  0.00000000000E+00 0. -1.
         11    1    4    4    0    0  0.14218016985E+02  0.23767327628E+02  0.32000419501E+02  0.42320972552E+02  0.00000000000E+00 0.  1.
         21    1    1    2  503  502 -0.64247055990E+02  0.55239722340E+01 -0.29582265094E+02  0.70945816513E+02  0.00000000000E+00 0. -1.
          1    1    1    2  501    0  0.92175220878E+02  0.23002852055E+02  0.57340922101E+02  0.11096568791E+03  0.00000000000E+00 0. -1.
<scales pt_clust_5="13000.00000" pt_clust_6="13000.00000" pt_clust_7="13000.00000" pt_clust_8="13000.00000" pt_clust_9="64.48409" pt_clust_10="13000.00000"></scales>
<clustering>
<clus scale="   64.484">  2  9  1 -1</clus>
<clus scale="   76.511">  5  6 -1 -1</clus>
<clus scale="   79.120">  7  8 -1 -1</clus>
<clus scale="   68.105">  7 10 -1 -1</clus>
<clus scale="   89.365">  1  5  2 -1</clus>
<clus scale="   64.484">  2  5  1 -1</clus>
</clustering>
</event>
<event>
10    4  0.2759992E-005  0.1245494E+03  0.7546771E-02  0.1252303E+00
         21   -1    0    0  503  502  0.00000000000E+00  0.00000000000E+00  0.28930732112E+03  0.28930732112E+03  0.00000000000E+00 0. -1.
         -1   -1    0    0    0  501 -0.00000000000E+00 -0.00000000000E+00 -0.36077266085E+03  0.36077266085E+03  0.00000000000E+00 0.  1.
         24    2    1    2    0    0  0.23757398021E+02  0.25204116452E+02 -0.28408722354E+03  0.29776289190E+03  0.82204183415E+02 0.  0.
         23    2    1    2    0    0 -0.20670114464E+02  0.98208960416E+01 -0.20685904240E+02  0.97906601436E+02  0.92919816722E+02 0.  0.
        -11    1    3    3    0    0 -0.28570680223E+02 -0.46469386447E+01 -0.94610059522E+02  0.98939078073E+02  0.00000000000E+00 0.  1.
         12    1    3    3    0    0  0.52328078243E+02  0.29851055097E+02 -0.18947716401E+03  0.19882381383E+03  0.00000000000E+00 0. -1.
        -13    1    4    4    0    0 -0.16565073975E+02  0.35036012370E+02 -0.47210479340E+02  0.61079891929E+02  0.00000000000E+00 0.  1.
         13    1    4    4    0    0 -0.41050404892E+01 -0.25215116328E+02  0.26524575100E+02  0.36826709507E+02  0.00000000000E+00 0. -1.
         21    1    1    2  503  501  0.21265777648E+02 -0.20851992390E+02  0.22209709205E+03  0.22408515609E+03  0.00000000000E+00 0. -1.
         -2    1    1    2    0  502 -0.24353061205E+02 -0.14173020104E+02  0.11210695993E+02  0.30325332538E+02  0.00000000000E+00 0.  1.
<scales pt_clust_5="13000.00000" pt_clust_6="13000.00000" pt_clust_7="13000.00000" pt_clust_8="13000.00000" pt_clust_9="29.78320" pt_clust_10="13000.00000"></scales>
<clustering>
<clus scale="   29.783">  1  9  2 -1</clus>
<clus scale="   82.204">  5  6 -1 -1</clus>
<clus scale="   89.233">  2  5  1 -1</clus>
<clus scale="   92.920">  7  8 -1 -1</clus>
<clus scale="   22.313">  7 10 -1 -1</clus>
<clus scale="   29.783">  1  5  2 -1</clus>
</clustering>
</event>
<event>
10    4  0.3367914E-005  0.5100650E+03  0.7546771E-02  0.1027443E+00
         21   -1    0    0  501  502  0.00000000000E+00  0.00000000000E+00  0.10872315972E+04  0.10872315972E+04  0.00000000000E+00 0.  1.
         -1   -1    0    0    0  501 -0.00000000000E+00 -0.00000000000E+00 -0.31539768277E+03  0.31539768277E+03  0.00000000000E+00 0.  1.
         24    2    1    2    0    0  0.35127133470E+03 -0.22813245914E+00  0.22117007135E+03  0.42214344412E+03  0.76793777932E+02 0.  0.
         23    2    1    2    0    0  0.76677238559E+01  0.52364827564E+02 -0.11753883915E+03  0.15696964986E+03  0.89572446178E+02 0.  0.
        -11    1    3    3    0    0  0.34261499700E+03  0.34717636080E+01  0.22705952680E+03  0.41103907116E+03  0.00000000000E+00 0.  1.
         12    1    3    3    0    0  0.86563376993E+01 -0.36998960671E+01 -0.58894554527E+01  0.11104372959E+02  0.00000000000E+00 0. -1.
        -13    1    4    4    0    0 -0.66001473395E+01  0.74784527758E+02 -0.70742992879E+02  0.10315453736E+03  0.00000000000E+00 0.  1.
         13    1    4    4    0    0  0.14267871195E+02 -0.22419700194E+02 -0.46795846272E+02  0.53815112502E+02  0.00000000000E+00 0. -1.
         21    1    1    2  503  502 -0.92737884379E+02  0.21349700251E+02  0.47995865838E+03  0.48930199127E+03  0.00000000000E+00 0.  1.
         -2    1    1    2    0  503 -0.26620117417E+03 -0.73486395355E+02  0.18824402386E+03  0.33421419472E+03  0.00000000000E+00 0.  1.
<scales pt_clust_5="13000.00000" pt_clust_6="13000.00000" pt_clust_7="13000.00000" pt_clust_8="13000.00000" pt_clust_9="95.16367" pt_clust_10="13000.00000"></scales>
<clustering>
<clus scale="   76.794">  5  6 -1 -1</clus>
<clus scale="   89.572">  7  8 -1 -1</clus>
<clus scale="   95.164">  1  9  2 -1</clus>
<clus scale="  311.588">  2  5  1 -1</clus>
<clus scale="  193.104">  7 10 -1 -1</clus>
<clus scale="   95.164">  1  5  2 -1</clus>
</clustering>
</event>
<event>
10    4  0.2759992E-005  0.4916863E+03  0.7546771E-02  0.1076295E+00
          4   -1    0    0  502    0 -0.00000000000E+00  0.00000000000E+00  0.13839770441E+04  0.13839770441E+04  0.00000000000E+00 0. -1.
         21   -1    0    0  503  502  0.00000000000E+00 -0.00000000000E+00 -0.80709287567E+02  0.80709287567E+02  0.00000000000E+00 0. -1.
         24    2    1    2    0    0 -0.20284967728E+02  0.11317780834E+02  0.99344741220E+02  0.12850187117E+03  0.78126699710E+02 0.  0.
         23    2    1    2    0    0  0.22423531392E+03 -0.18500428594E+03  0.61728803656E+03  0.68848857081E+03  0.91999620813E+02 0.  0.
        -13    1    3    3    0    0 -0.22327017614E+02  0.43469219397E+02  0.66164749327E+02  0.82254743353E+02  0.00000000000E+00 0.  1.
         14    1    3    3    0    0  0.20420498855E+01 -0.32151438563E+02  0.33179991893E+02  0.46247127818E+02  0.00000000000E+00 0. -1.
        -11    1    4    4    0    0  0.45199026405E+01 -0.20423042624E+02  0.12640413656E+02  0.24439931409E+02  0.00000000000E+00 0.  1.
         11    1    4    4    0    0  0.21971541128E+03 -0.16458124331E+03  0.60464762290E+03  0.66404863940E+03  0.00000000000E+00 0. -1.
         21    1    1    2  503  501 -0.60097043947E+02  0.42929883164E+02  0.22935052910E+03  0.24094873886E+03  0.00000000000E+00 0. -1.
          3    1    1    2  501    0 -0.14385330224E+03  0.13075662194E+03  0.35728444969E+03  0.40674715087E+03  0.00000000000E+00 0. -1.
<scales pt_clust_5="13000.00000" pt_clust_6="13000.00000" pt_clust_7="13000.00000" pt_clust_8="13000.00000" pt_clust_9="73.85550" pt_clust_10="13000.00000"></scales>
<clustering>
<clus scale="   73.856">  2  9  1 -1</clus>
<clus scale="   78.127">  5  6 -1 -1</clus>
<clus scale="   86.681">  1  5  2 -1</clus>
<clus scale="   92.000">  7  8 -1 -1</clus>
<clus scale="  236.417">  7 10 -1 -1</clus>
<clus scale="   73.856">  2  5  1 -1</clus>
</clustering>
</event>
<event>
10    4  0.2759992E-005  0.3199629E+03  0.7546771E-02  0.1108704E+00
         -1   -1    0    0    0  501 -0.00000000000E+00  0.00000000000E+00  0.98841518488E+03  0.98841518488E+03  0.00000000000E+00 0.  1.
         21   -1    0    0  503  502  0.00000000000E+00 -0.00000000000E+00 -0.12085125493E+03  0.12085125493E+03  0.00000000000E+00 0. -1.
         24    2    1    2    0    0 -0.68210468544E+02 -0.90037824537E+02  0.26551956321E+03  0.29953237256E+03  0.80371175796E+02 0.  0.
         23    2    1    2    0    0  0.98400844918E+00 -0.77132785737E+02  0.12350708790E+03  0.17214691212E+03  0.91815705001E+02 0.  0.
        -11    1    3    3    0    0 -0.62820438263E+02 -0.30815627172E+02  0.19563060191E+03  0.20776752091E+03  0.00000000000E+00 0.  1.
         12    1    3    3    0    0 -0.53900302810E+01 -0.59222197365E+02  0.69888961306E+02  0.91764851657E+02  0.00000000000E+00 0. -1.
        -13    1    4    4    0    0  0.41712087767E+02 -0.32492979597E+02  0.86219328382E+02  0.10114081558E+03  0.00000000000E+00 0.  1.
         13    1    4    4    0    0 -0.40728079317E+02 -0.44639806141E+02  0.37287759514E+02  0.71006096546E+02  0.00000000000E+00 0. -1.
         21    1    1    2  503  501 -0.37818506621E+01  0.25544154456E+02 -0.65787934156E+02  0.70674312885E+02  0.00000000000E+00 0. -1.
         -2    1    1    2    0  502  0.71008310757E+02  0.14162645582E+03  0.54432521300E+03  0.56691284223E+03  0.00000000000E+00 0.  1.
<scales pt_clust_5="13000.00000" pt_clust_6="13000.00000" pt_clust_7="13000.00000" pt_clust_8="13000.00000" pt_clust_9="25.82259" pt_clust_10="13000.00000"></scales>
<clustering>
<clus scale="   25.823">  2  9  1 -1</clus>
<clus scale="   80.371">  5  6 -1 -1</clus>
<clus scale="   91.816">  7  8 -1 -1</clus>
<clus scale="  134.048">  1  5  2 -1</clus>
<clus scale="   81.603">  7 10 -1 -1</clus>
<clus scale="   25.823">  2  5  1 -1</clus>
</clustering>
</event>
<event>
10    4  0.2759992E-005  0.3948100E+03  0.7546771E-02  0.1099489E+00
          2   -1    0    0  503    0 -0.00000000000E+00  0.00000000000E+00  0.44144588281E+03  0.44144588281E+03  0.00000000000E+00 0. -1.
         21   -1    0    0  501  502  0.00000000000E+00 -0.00000000000E+00 -0.12163641887E+04  0.12163641887E+04  0.00000000000E+00 0. -1.
         24    2    1    2    0    0 -0.19235530384E+02  0.35500474696E+02  0.39695618029E+03  0.40711850694E+03  0.80876327165E+02 0.  0.
         23    2    1    2    0    0 -0.12634625712E+03  0.68742919132E+02 -0.63163687917E+03  0.65416257681E+03  0.90964631301E+02 0.  0.
        -13    1    3    3    0    0 -0.27181534964E+02  0.12368034770E+02  0.43196091534E+02  0.52513869129E+02  0.00000000000E+00 0.  1.
         14    1    3    3    0    0  0.79460045801E+01  0.23132439927E+02  0.35376008875E+03  0.35460463781E+03  0.00000000000E+00 0. -1.
        -13    1    4    4    0    0 -0.30176371947E+02  0.54179302370E+02 -0.36729230731E+03  0.37249113981E+03  0.00000000000E+00 0.  1.
         13    1    4    4    0    0 -0.96169885169E+02  0.14563616762E+02 -0.26434457186E+03  0.28167143700E+03  0.00000000000E+00 0. -1.
         21    1    1    2  503  502 -0.31798597889E+02  0.18781396503E+02 -0.86762529360E+02  0.94295430342E+02  0.00000000000E+00 0. -1.
          1    1    1    2  501    0  0.17738038539E+03 -0.12302479033E+03 -0.45347507768E+03  0.50223355745E+03  0.00000000000E+00 0. -1.
<scales pt_clust_5="13000.00000" pt_clust_6="13000.00000" pt_clust_7="13000.00000" pt_clust_8="13000.00000" pt_clust_9="36.93090" pt_clust_10="13000.00000"></scales>
<clustering>
<clus scale="   36.931">  2  9  1 -1</clus>
<clus scale="   80.876">  5  6 -1 -1</clus>
<clus scale="   90.459">  1  5  2 -1</clus>
<clus scale="   90.965">  7  8 -1 -1</clus>
<clus scale="  179.580">  7 10 -1 -1</clus>
<clus scale="   36.931">  2  5  1 -1</clus>
</clustering>
</event>
<event>
10    4  0.2759992E-005  0.1544127E+03  0.7546771E-02  0.1220553E+00
         21   -1    0    0  501  502  0.00000000000E+00  0.00000000000E+00  0.60731466426E+02  0.60731466426E+02  0.00000000000E+00 0. -1.
          2   -1    0    0  503    0 -0.00000000000E+00 -0.00000000000E+00 -0.43423480117E+03  0.43423480117E+03  0.00000000000E+00 0. -1.
         24    2    1    2    0    0  0.47911400833E+02  0.11250205729E+02 -0.15093612041E+03  0.17793555033E+03  0.80357191140E+02 0.  0.
         23    2    1    2    0    0 -0.14124698296E+02 -0.27143181847E+02 -0.12279001881E+03  0.15522482275E+03  0.89894924540E+02 0.  0.
        -13    1    3    3    0    0 -0.92679331686E+01 -0.19460985339E+02 -0.12201045752E+02  0.24768731357E+02  0.00000000000E+00 0.  1.
         14    1    3    3    0    0  0.57179334002E+02  0.30711191068E+02 -0.13873507466E+03  0.15316681897E+03  0.00000000000E+00 0. -1.
        -11    1    4    4    0    0 -0.33716328715E+02  0.15415298600E+02 -0.91928033893E+02  0.99122074576E+02  0.00000000000E+00 0.  1.
         11    1    4    4    0    0  0.19591630419E+02 -0.42558480446E+02 -0.30861984914E+02  0.56102748179E+02  0.00000000000E+00 0. -1.
         21    1    1    2  503  502 -0.23720965807E+02 -0.41695439461E+02 -0.21572293401E+01  0.48019241238E+02  0.00000000000E+00 0. -1.
          1    1    1    2  501    0 -0.10065736730E+02  0.57588415579E+02 -0.97619966188E+02  0.11378665327E+03  0.00000000000E+00 0. -1.
<scales pt_clust_5="13000.00000" pt_clust_6="13000.00000" pt_clust_7="13000.00000" pt_clust_8="13000.00000" pt_clust_9="47.97076" pt_clust_10="13000.00000"></scales>
<clustering>
<clus scale="   47.971">  1  9  2 -1</clus>
<clus scale="   80.357">  5  6 -1 -1</clus>
<clus scale="   89.588">  2  5  1 -1</clus>
<clus scale="   89.895">  7  8 -1 -1</clus>
<clus scale="   47.539">  7 10 -1 -1</clus>
<clus scale="   47.971">  1  5  2 -1</clus>
</clustering>
</event>
<event>
10    4  0.2982553E-005  0.1746281E+03  0.7546771E-02  0.1189166E+00
         21   -1    0    0  503  502  0.00000000000E+00  0.00000000000E+00  0.23058807095E+03  0.23058807095E+03  0.00000000000E+00 0. -1.
          2   -1    0    0  502    0 -0.00000000000E+00 -0.00000000000E+00 -0.97459574304E+03  0.97459574304E+03  0.00000000000E+00 0. -1.
         24    2    1    2    0    0 -0.15159257961E+02  0.10147417174E+03 -0.41463878839E+02  0.13631025140E+03  0.79589074348E+02 0.  0.
         23    2    1    2    0    0  0.12473800528E+02 -0.10691341049E+03 -0.78918289167E+03  0.80175124245E+03  0.91702482047E+02 0.  0.
        -11    1    3    3    0    0 -0.20525751147E+02  0.28474908528E+02 -0.51608386039E+02  0.62414360410E+02  0.00000000000E+00 0.  1.
         12    1    3    3    0    0  0.53664931854E+01  0.72999263213E+02  0.10144507200E+02  0.73895890989E+02  0.00000000000E+00 0. -1.
        -13    1    4    4    0    0 -0.39247163243E+02 -0.33733691011E+02 -0.27970323755E+03  0.28445070368E+03  0.00000000000E+00 0. -1.
         13    1    4    4    0    0  0.51720963771E+02 -0.73179719477E+02 -0.50947965413E+03  0.51730053876E+03  0.00000000000E+00 0.  1.
         21    1    1    2  503  501  0.25694116887E+02 -0.11233312313E+02  0.17348989015E+03  0.17574161981E+03  0.00000000000E+00 0. -1.
          1    1    1    2  501    0 -0.23008659454E+02  0.16672551060E+02 -0.86850791730E+02  0.91380700330E+02  0.00000000000E+00 0. -1.
<scales pt_clust_5="13000.00000" pt_clust_6="13000.00000" pt_clust_7="13000.00000" pt_clust_8="13000.00000" pt_clust_9="28.04238" pt_clust_10="13000.00000"></scales>
<clustering>
<clus scale="   28.042">  1  9  2 -1</clus>
<clus scale="   79.589">  5  6 -1 -1</clus>
<clus scale="   91.702">  7  8 -1 -1</clus>
<clus scale="   27.307">  7 10 -1 -1</clus>
<clus scale="  121.796">  2  5  1 -1</clus>
<clus scale="   28.042">  1  5  2 -1</clus>
</clustering>
</event>
<event>
10    4  0.2759992E-005  0.6505900E+03  0.7546771E-02  0.1016372E+00
         21   -1    0    0  501  502  0.00000000000E+00  0.00000000000E+00  0.58408813478E+03  0.58408813478E+03  0.00000000000E+00 0. -1.
          2   -1    0    0  503    0 -0.00000000000E+00 -0.00000000000E+00 -0.47006865290E+03  0.47006865290E+03  0.00000000000E+00 0. -1.
         24    2    1    2    0    0 -0.12191957684E+03  0.10936384159E+03  0.75488328179E+02  0.20299519923E+03  0.93186534189E+02 0.  0.
         23    2    1    2    0    0 -0.50099204119E+02 -0.37214923087E+03 -0.14649019023E+03  0.41296667158E+03  0.89872775146E+02 0.  0.
        -11    1    3    3    0    0 -0.64331212372E+02  0.27800272637E+00  0.17368478604E+02  0.66635172542E+02  0.00000000000E+00 0.  1.
         12    1    3    3    0    0 -0.57588364464E+02  0.10908583887E+03  0.58119849575E+02  0.13636002669E+03  0.00000000000E+00 0. -1.
        -11    1    4    4    0    0  0.98039347623E+01 -0.21922574496E+03 -0.60764648086E+02  0.22770240852E+03  0.00000000000E+00 0.  1.
         11    1    4    4    0    0 -0.59903138881E+02 -0.15292348592E+03 -0.85725542148E+02  0.18526426307E+03  0.00000000000E+00 0. -1.
         21    1    1    2  503  502 -0.19272140975E+02  0.84145593249E+02  0.15144033446E+03  0.17431600954E+03  0.00000000000E+00 0.  1.
          1    1    1    2  501    0  0.19129092193E+03  0.17863979603E+03  0.33581009477E+02  0.26387890733E+03  0.00000000000E+00 0. -1.
<scales pt_clust_5="13000.00000" pt_clust_6="13000.00000" pt_clust_7="13000.00000" pt_clust_8="13000.00000" pt_clust_9="86.32437" pt_clust_10="13000.00000"></scales>
<clustering>
<clus scale="   86.324">  1  9  2 -1</clus>
<clus scale="   89.873">  7  8 -1 -1</clus>
<clus scale="   93.187">  5  6 -1 -1</clus>
<clus scale="  209.668">  2  5  1 -1</clus>
<clus scale="  292.143">  7 10 -1 -1</clus>
<clus scale="   86.324">  1  5  2 -1</clus>
</clustering>
</event>
<event>
10    4  0.2759992E-005  0.2384172E+03  0.7546771E-02  0.1151835E+00
         21   -1    0    0  503  502  0.00000000000E+00  0.00000000000E+00  0.11461559208E+03  0.11461559208E+03  0.00000000000E+00 0.  1.
         -1   -1    0    0    0  501 -0.00000000000E+00 -0.00000000000E+00 -0.10311205793E+04  0.10311205793E+04  0.00000000000E+00 0.  1.
         24    2    1    2    0    0 -0.36730853224E+02  0.62854129175E+02 -0.36868683365E+03  0.38437109752E+03  0.80693011885E+02 0.  0.
         23    2    1    2    0    0 -0.44930418125E+02  0.85723416701E+01 -0.16961480664E+03  0.19798862681E+03  0.91313121724E+02 0.  0.
        -11    1    3    3    0    0 -0.39215348865E+02  0.81187974021E+02 -0.30348465084E+03  0.31659479467E+03  0.00000000000E+00 0.  1.
         12    1    3    3    0    0  0.24844956411E+01 -0.18333844846E+02 -0.65202182810E+02  0.67776302854E+02  0.00000000000E+00 0. -1.
        -13    1    4    4    0    0  0.25241205807E+02 -0.40657233119E+01 -0.20742048329E+02  0.32922350243E+02  0.00000000000E+00 0. -1.
         13    1    4    4    0    0 -0.70171623932E+02  0.12638064982E+02 -0.14887275831E+03  0.16506627657E+03  0.00000000000E+00 0.  1.
         21    1    1    2  503  501 -0.56646899680E+01  0.20933873110E+02  0.82581569997E+02  0.85381681051E+02  0.00000000000E+00 0.  1.
         -2    1    1    2    0  502  0.87325961317E+02 -0.92360343955E+02 -0.46078491690E+03  0.47799476598E+03  0.00000000000E+00 0.  1.
<scales pt_clust_5="13000.00000" pt_clust_6="13000.00000" pt_clust_7="13000.00000" pt_clust_8="13000.00000" pt_clust_9="21.68676" pt_clust_10="13000.00000"></scales>
<clustering>
<clus scale="   21.687">  1  9  2 -1</clus>
<clus scale="   80.693">  5  6 -1 -1</clus>
<clus scale="   91.313">  7  8 -1 -1</clus>
<clus scale="  112.348">  2  5  1 -1</clus>
<clus scale="   71.419">  7 10 -1 -1</clus>
<clus scale="   21.687">  1  5  2 -1</clus>
</clustering>
</event>
<event>
10    4  0.2759992E-005  0.4666116E+03  0.7546771E-02  0.1032874E+00
         21   -1    0    0  503  502  0.00000000000E+00  0.00000000000E+00  0.27095127901E+03  0.27095127901E+03  0.00000000000E+00 0. -1.
          2   -1    0    0  502    0 -0.00000000000E+00 -0.00000000000E+00 -0.76300751310E+03  0.76300751310E+03  0.00000000000E+00 0. -1.
         24    2    1    2    0    0 -0.59447945462E+02  0.30916340973E+03 -0.35205710248E+02  0.32652292317E+03  0.79130936962E+02 0.  0.
         23    2    1    2    0    0 -0.32308131795E+00 -0.22380229570E+02 -0.24741506457E+03  0.26335917510E+03  0.87423462965E+02 0.  0.
        -13    1    3    3    0    0 -0.92125411347E+01  0.15269858870E+03 -0.51435627809E+02  0.16139192580E+03  0.00000000000E+00 0.  1.
         14    1    3    3    0    0 -0.50235404328E+02  0.15646482103E+03  0.16229917561E+02  0.16513099737E+03  0.00000000000E+00 0. -1.
        -11    1    4    4    0    0  0.41977956377E+02 -0.22138851025E+02 -0.14432637575E+03  0.15192886586E+03  0.00000000000E+00 0. -1.
         11    1    4    4    0    0 -0.42301037695E+02 -0.24137854597E+00 -0.10308868883E+03  0.11143030924E+03  0.00000000000E+00 0.  1.
         21    1    1    2  503  501  0.37464596596E+02  0.45268306505E+02 -0.33305997697E+02  0.67543356850E+02  0.00000000000E+00 0.  1.
          1    1    1    2  501    0  0.22306430184E+02 -0.33205148667E+03 -0.17612946157E+03  0.37653333698E+03  0.00000000000E+00 0. -1.
<scales pt_clust_5="13000.00000" pt_clust_6="13000.00000" pt_clust_7="13000.00000" pt_clust_8="13000.00000" pt_clust_9="58.76069" pt_clust_10="13000.00000"></scales>
<clustering>
<clus scale="   58.761">  1  9  2 -1</clus>
<clus scale="   79.131">  5  6 -1 -1</clus>
<clus scale="   87.423">  7  8 -1 -1</clus>
<clus scale="  316.364">  7 10 -1 -1</clus>
<clus scale="  346.440">  2  5  1 -1</clus>
<clus scale="   58.761">  1  5  2 -1</clus>
</clustering>
</event>
<event>
10    4  0.2759992E-005  0.1917486E+03  0.7546771E-02  0.1182275E+00
         21   -1    0    0  501  502  0.00000000000E+00  0.00000000000E+00  0.10107449335E+03  0.10107449335E+03  0.00000000000E+00 0.  1.
          2   -1    0    0  503    0 -0.00000000000E+00 -0.00000000000E+00 -0.12539474577E+04  0.12539474577E+04  0.00000000000E+00 0. -1.
         24    2    1    2    0    0  0.49086484024E+02 -0.54411183450E+02 -0.84810152662E+03  0.85501291167E+03  0.80005124062E+02 0.  0.
         23    2    1    2    0    0 -0.25166497272E+02  0.53331654149E+02 -0.36937033389E+03  0.38522009284E+03  0.92100263051E+02 0.  0.
        -11    1    3    3    0    0  0.32427040219E+02 -0.43398409030E+02 -0.21923614199E+03  0.22583051344E+03  0.00000000000E+00 0.  1.
         12    1    3    3    0    0  0.16659443805E+02 -0.11012774420E+02 -0.62886538463E+03  0.62918239823E+03  0.00000000000E+00 0. -1.
        -11    1    4    4    0    0 -0.21022983135E+02 -0.23471561320E+02 -0.85773628130E+02  0.91378308658E+02  0.00000000000E+00 0. -1.
         11    1    4    4    0    0 -0.41435141374E+01  0.76803215469E+02 -0.28359670576E+03  0.29384178419E+03  0.00000000000E+00 0.  1.
         21    1    1    2  503  502 -0.47481303291E+02 -0.20315989240E+02  0.64925601545E+02  0.82961119308E+02  0.00000000000E+00 0.  1.
          1    1    1    2  501    0  0.23561316539E+02  0.21395518541E+02 -0.32670540625E+00  0.31827827245E+02  0.00000000000E+00 0. -1.
<scales pt_clust_5="13000.00000" pt_clust_6="13000.00000" pt_clust_7="13000.00000" pt_clust_8="13000.00000" pt_clust_9="51.64507" pt_clust_10="13000.00000"></scales>
<clustering>
<clus scale="   51.645">  1  9  2 -1</clus>
<clus scale="   80.005">  5  6 -1 -1</clus>
<clus scale="   92.100">  7  8 -1 -1</clus>
<clus scale="   10.403">  7 10 -1 -1</clus>
<clus scale="  107.247">  2  5  1 -1</clus>
<clus scale="   51.645">  1  5  2 -1</clus>
</clustering>
</event>
<event>
10    4  0.2759992E-005  0.2871875E+03  0.7546771E-02  0.1102297E+00
         21   -1    0    0  503  502  0.00000000000E+00  0.00000000000E+00  0.18002814790E+03  0.18002814790E+03  0.00000000000E+00 0.  1.
         -1   -1    0    0    0  501 -0.00000000000E+00 -0.00000000000E+00 -0.89719559186E+03  0.89719559186E+03  0.00000000000E+00 0.  1.
         24    2    1    2    0    0 -0.18692775836E+03  0.85658543968E+02 -0.22132924971E+03  0.31271863477E+03  0.80789447027E+02 0.  0.
         23    2    1    2    0    0 -0.45273886968E+00 -0.23880934365E+02 -0.17069862733E+03  0.19504934072E+03  0.91300164002E+02 0.  0.
        -13    1    3    3    0    0 -0.12917004189E+03  0.87053883786E+02 -0.12219252361E+03  0.19797548139E+03  0.00000000000E+00 0.  1.
         14    1    3    3    0    0 -0.57757716470E+02 -0.13953398186E+01 -0.99136726100E+02  0.11474315338E+03  0.00000000000E+00 0. -1.
        -11    1    4    4    0    0  0.32062456794E+02 -0.25552885860E+02 -0.30447103653E+02  0.51068358425E+02  0.00000000000E+00 0.  1.
         11    1    4    4    0    0 -0.32515195663E+02  0.16719514948E+01 -0.14025152367E+03  0.14398098230E+03  0.00000000000E+00 0. -1.
         21    1    1    2  503  501  0.14896698035E+02  0.19937713165E+02  0.10020625005E+03  0.10325074609E+03  0.00000000000E+00 0.  1.
         -2    1    1    2    0  502  0.17248379919E+03 -0.81715322768E+02 -0.42534581698E+03  0.46620501818E+03  0.00000000000E+00 0.  1.
<scales pt_clust_5="13000.00000" pt_clust_6="13000.00000" pt_clust_7="13000.00000" pt_clust_8="13000.00000" pt_clust_9="24.88823" pt_clust_10="13000.00000"></scales>
<clustering>
<clus scale="   24.888">  1  9  2 -1</clus>
<clus scale="   80.789">  5  6 -1 -1</clus>
<clus scale="   91.300">  7  8 -1 -1</clus>
<clus scale="  192.252">  7 10 -1 -1</clus>
<clus scale="  218.542">  2  5  1 -1</clus>
<clus scale="   24.888">  1  5  2 -1</clus>
</clustering>
</event>
<event>
10    4  0.2759992E-005  0.2387361E+03  0.7546771E-02  0.1142716E+00
          2   -1    0    0  503    0 -0.00000000000E+00  0.00000000000E+00  0.78092715348E+03  0.78092715348E+03  0.00000000000E+00 0. -1.
         21   -1    0    0  501  502  0.00000000000E+00 -0.00000000000E+00 -0.91887178389E+02  0.91887178389E+02  0.00000000000E+00 0. -1.
         24    2    1    2    0    0  0.10227975193E+03  0.61099952377E+02  0.15450983154E+03  0.21095218038E+03  0.80207122686E+02 0.  0.
         23    2    1    2    0    0  0.85666595526E+01  0.34337194870E+02  0.18118579088E+03  0.20765783828E+03  0.95084469681E+02 0.  0.
        -13    1    3    3    0    0  0.77425341617E+02  0.66020473133E+02  0.15522854490E+03  0.18560519268E+03  0.00000000000E+00 0.  1.
         14    1    3    3    0    0  0.24854410315E+02 -0.49205207562E+01 -0.71871336334E+00  0.25346987701E+02  0.00000000000E+00 0. -1.
        -13    1    4    4    0    0  0.42435137689E+02 -0.11616201123E+02  0.70107530403E+02  0.82769214436E+02  0.00000000000E+00 0. -1.
         13    1    4    4    0    0 -0.33868478137E+02  0.45953395994E+02  0.11107826048E+03  0.12488862385E+03  0.00000000000E+00 0.  1.
         21    1    1    2  503  502  0.80819147743E+01 -0.40868607997E+02 -0.28557295574E+02  0.50508213159E+02  0.00000000000E+00 0. -1.
          1    1    1    2  501    0 -0.11892832626E+03 -0.54568539250E+02  0.38190164824E+03  0.40369610005E+03  0.00000000000E+00 0. -1.
<scales pt_clust_5="13000.00000" pt_clust_6="13000.00000" pt_clust_7="13000.00000" pt_clust_8="13000.00000" pt_clust_9="41.66006" pt_clust_10="13000.00000"></scales>
<clustering>
<clus scale="   41.660">  2  9  1 -1</clus>
<clus scale="   80.207">  5  6 -1 -1</clus>
<clus scale="   95.084">  7  8 -1 -1</clus>
<clus scale="  133.136">  7 10 -1 -1</clus>
<clus scale="  139.036">  1  5  2 -1</clus>
<clus scale="   41.660">  2  5  1 -1</clus>
</clustering>
</event>
<event>
10    4  0.2759992E-005  0.2284682E+03  0.7546771E-02  0.1152519E+00
         21   -1    0    0  503  502  0.00000000000E+00  0.00000000000E+00  0.32265236695E+03  0.32265236695E+03  0.00000000000E+00 0. -1.
          2   -1    0    0  502    0 -0.00000000000E+00 -0.00000000000E+00 -0.39966853866E+03  0.39966853866E+03  0.00000000000E+00 0. -1.
         24    2    1    2    0    0  0.29492076232E+02  0.11430782806E+03 -0.12326968357E+03  0.18670626344E+03  0.75681912009E+02 0.  0.
         23    2    1    2    0    0 -0.12997010176E+02  0.48679106595E+02 -0.11927616329E+03  0.15894559577E+03  0.92186341684E+02 0.  0.
        -11    1    3    3    0    0 -0.24098300468E+02  0.47009686488E+02 -0.59842086178E+02  0.79823016651E+02  0.00000000000E+00 0.  1.
         12    1    3    3    0    0  0.53590376700E+02  0.67298141567E+02 -0.63427597393E+02  0.10688324679E+03  0.00000000000E+00 0. -1.
        -11    1    4    4    0    0 -0.39956890488E+02  0.16163925091E+02 -0.13689915042E+02  0.45224322501E+02  0.00000000000E+00 0.  1.
         11    1    4    4    0    0  0.26959880312E+02  0.32515181504E+02 -0.10558624825E+03  0.11372127327E+03  0.00000000000E+00 0. -1.
         21    1    1    2  503  501  0.46336670339E+02 -0.68304910811E+02  0.23115359147E+03  0.24544781667E+03  0.00000000000E+00 0. -1.
          1    1    1    2  501    0 -0.62831736395E+02 -0.94682023840E+02 -0.65623916321E+02  0.13122122972E+03  0.00000000000E+00 0. -1.
<scales pt_clust_5="13000.00000" pt_clust_6="13000.00000" pt_clust_7="13000.00000" pt_clust_8="13000.00000" pt_clust_9="82.53877" pt_clust_10="13000.00000"></scales>
<clustering>
<clus scale="   75.682">  5  6 -1 -1</clus>
<clus scale="   82.539">  1  9  2 -1</clus>
<clus scale="   92.186">  7  8 -1 -1</clus>
<clus scale="  125.630">  2  5  1 -1</clus>
<clus scale="   79.594">  7 10 -1 -1</clus>
<clus scale="   82.539">  1  5  2 -1</clus>
</clustering>
</event>
<event>
10    4  0.2759992E-005  0.1989325E+03  0.7546771E-02  0.1172542E+00
         21   -1    0    0  501  502  0.00000000000E+00  0.00000000000E+00  0.27969578029E+03  0.27969578029E+03  0.00000000000E+00 0.  1.
         -3   -1    0    0    0  501 -0.00000000000E+00 -0.00000000000E+00 -0.54675321693E+03  0.54675321693E+03  0.00000000000E+00 0.  1.
         24    2    1    2    0    0  0.33988860521E+02 -0.65882974165E+02 -0.11053748820E+03  0.15810936895E+03  0.85347684967E+02 0.  0.
         23    2    1    2    0    0 -0.26206806067E+02 -0.28485166695E+02 -0.20139039851E+03  0.22417250776E+03  0.90537391283E+02 0.  0.
        -13    1    3    3    0    0  0.46097325678E+02 -0.19170770987E+02 -0.16792415649E+02  0.52673210631E+02  0.00000000000E+00 0.  1.
         14    1    3    3    0    0 -0.12108465157E+02 -0.46712203179E+02 -0.93745072551E+02  0.10543615832E+03  0.00000000000E+00 0. -1.
        -11    1    4    4    0    0  0.25743843760E+02 -0.33624964473E+02 -0.59894539758E+02  0.73353524934E+02  0.00000000000E+00 0.  1.
         11    1    4    4    0    0 -0.51950649828E+02  0.51397977780E+01 -0.14149585875E+03  0.15081898283E+03  0.00000000000E+00 0. -1.
         21    1    1    2  503  502  0.33427344884E+02 -0.27352086137E+01  0.22927948744E+03  0.23171955488E+03  0.00000000000E+00 0.  1.
         -4    1    1    2    0  503 -0.41209399337E+02  0.97103349474E+02 -0.18440903738E+03  0.21244756562E+03  0.00000000000E+00 0.  1.
<scales pt_clust_5="13000.00000" pt_clust_6="13000.00000" pt_clust_7="13000.00000" pt_clust_8="13000.00000" pt_clust_9="33.53906" pt_clust_10="13000.00000"></scales>
<clustering>
<clus scale="   33.539">  1  9  2 -1</clus>
<clus scale="   85.348">  5  6 -1 -1</clus>
<clus scale="   90.537">  7  8 -1 -1</clus>
<clus scale="  101.401">  7 10 -1 -1</clus>
<clus scale="  119.649">  2  5  1 -1</clus>
<clus scale="   33.539">  1  5  2 -1</clus>
</clustering>
</event>
<event>
10    4  0.2759992E-005  0.2044465E+03  0.7546771E-02  0.1185102E+00
         21   -1    0    0  501  502  0.00000000000E+00  0.00000000000E+00  0.40164168576E+02  0.40164168576E+02  0.00000000000E+00 0. -1.
          2   -1    0    0  503    0 -0.00000000000E+00 -0.00000000000E+00 -0.95897550786E+03  0.95897550786E+03  0.00000000000E+00 0. -1.
         24    2    1    2    0    0 -0.36587496554E+01 -0.15103391750E+02 -0.21284837368E+03  0.22888138458E+03  0.82708881856E+02 0.  0.
         23    2    1    2    0    0  0.57755568764E+02 -0.45840058062E+02 -0.43868550026E+03  0.45435124328E+03  0.92482795650E+02 0.  0.
        -13    1    3    3    0    0  0.30457735541E+02  0.51967952124E+01 -0.15903701248E+03  0.16201065297E+03  0.00000000000E+00 0.  1.
         14    1    3    3    0    0 -0.34116485196E+02 -0.20300186962E+02 -0.53811361196E+02  0.66870731614E+02  0.00000000000E+00 0. -1.
        -13    1    4    4    0    0  0.31405325394E+01 -0.60655729222E+02 -0.25574718168E+03  0.26286042184E+03  0.00000000000E+00 0.  1.
         13    1    4    4    0    0  0.54615036224E+02  0.14815671160E+02 -0.18293831858E+03  0.19149082144E+03  0.00000000000E+00 0. -1.
         21    1    1    2  503  502  0.25986521802E+02  0.27663523536E+02 -0.33566296450E+01  0.38102976424E+02  0.00000000000E+00 0. -1.
          1    1    1    2  501    0 -0.80083340910E+02  0.33279926276E+02 -0.26392083570E+03  0.27780407215E+03  0.00000000000E+00 0. -1.
<scales pt_clust_5="13000.00000" pt_clust_6="13000.00000" pt_clust_7="13000.00000" pt_clust_8="13000.00000" pt_clust_9="37.95484" pt_clust_10="13000.00000"></scales>
<clustering>
<clus scale="   37.955">  1  9  2 -1</clus>
<clus scale="   82.709">  5  6 -1 -1</clus>
<clus scale="   83.064">  2  5  1 -1</clus>
<clus scale="   92.483">  7  8 -1 -1</clus>
<clus scale="   80.704">  7 10 -1 -1</clus>
<clus scale="   37.955">  1  5  2 -1</clus>
</clustering>
</event>
<event>
10    4  0.2759992E-005  0.2710146E+03  0.7546771E-02  0.1106605E+00
         -1   -1    0    0    0  501 -0.00000000000E+00  0.00000000000E+00  0.20689823777E+03  0.20689823777E+03  0.00000000000E+00 0.  1.
         21   -1    0    0  503  502  0.00000000000E+00 -0.00000000000E+00 -0.55650100940E+03  0.55650100940E+03  0.00000000000E+00 0.  1.
         24    2    1    2    0    0  0.14829167836E+03 -0.13350093443E+03 -0.26475482880E+01  0.21462503409E+03  0.79018822950E+02 0.  0.
         23    2    1    2    0    0 -0.92760259416E+02  0.67604305593E+02 -0.12547459768E+03  0.19405691836E+03  0.93484785071E+02 0.  0.
        -13    1    3    3    0    0  0.75318732587E+02 -0.70841468692E+02  0.38060412744E+02  0.11018175976E+03  0.00000000000E+00 0.  1.
         14    1    3    3    0    0  0.72972945772E+02 -0.62659465738E+02 -0.40707961032E+02  0.10444327433E+03  0.00000000000E+00 0. -1.
        -11    1    4    4    0    0 -0.87605743897E+02  0.24049665796E+02 -0.11901453552E+03  0.14972512299E+03  0.00000000000E+00 0.  1.
         11    1    4    4    0    0 -0.51545155186E+01  0.43554639797E+02 -0.64600621613E+01  0.44331795375E+02  0.00000000000E+00 0. -1.
         21    1    1    2  503  501  0.68124267006E+02 -0.20229680292E+02 -0.18711462452E+03  0.20015503598E+03  0.00000000000E+00 0.  1.
         -2    1    1    2    0  502 -0.12365568595E+03  0.86126309129E+02 -0.34366001127E+02  0.15456225873E+03  0.00000000000E+00 0.  1.
<scales pt_clust_5="13000.00000" pt_clust_6="13000.00000" pt_clust_7="13000.00000" pt_clust_8="13000.00000" pt_clust_9="71.06445" pt_clust_10="13000.00000"></scales>
<clustering>
<clus scale="   71.064">  2  9  1 -1</clus>
<clus scale="   79.019">  5  6 -1 -1</clus>
<clus scale="   93.485">  7  8 -1 -1</clus>
<clus scale="  133.258">  7 10 -1 -1</clus>
<clus scale="  232.756">  1  5  2 -1</clus>
<clus scale="   71.064">  2  5  1 -1</clus>
</clustering>
</event>
<event>
10    4  0.2759992E-005  0.2771716E+03  0.7546771E-02  0.1147433E+00
          2   -1    0    0  503    0 -0.00000000000E+00  0.00000000000E+00  0.12076590433E+04  0.12076590433E+04  0.00000000000E+00 0. -1.
         21   -1    0    0  501  502  0.00000000000E+00 -0.00000000000E+00 -0.45022829890E+02  0.45022829890E+02  0.00000000000E+00 0. -1.
         24    2    1    2    0    0  0.70003475800E+00  0.40708842550E+01  0.16069898769E+03  0.17811060145E+03  0.76695238172E+02 0.  0.
         23    2    1    2    0    0  0.46521220695E+02  0.93205598374E+01  0.13811928319E+03  0.17185392358E+03  0.90585527821E+02 0.  0.
        -13    1    3    3    0    0  0.35901957799E+02  0.45674528456E+01  0.48480609910E+02  0.60499435837E+02  0.00000000000E+00 0.  1.
         14    1    3    3    0    0 -0.35201923041E+02 -0.49656859064E+00  0.11221837778E+03  0.11761116561E+03  0.00000000000E+00 0. -1.
        -11    1    4    4    0    0  0.60866603540E+00 -0.31917564605E+02  0.83673207232E+02  0.89556166807E+02  0.00000000000E+00 0.  1.
         11    1    4    4    0    0  0.45912554659E+02  0.41238124442E+02  0.54446075960E+02  0.82297756775E+02  0.00000000000E+00 0. -1.
         21    1    1    2  503  502  0.64602679202E+02  0.38013581631E+01  0.51901610641E+02  0.82956215385E+02  0.00000000000E+00 0. -1.
          1    1    1    2  501    0 -0.11182393465E+03 -0.17192802255E+02  0.81191633187E+03  0.81976113275E+03  0.00000000000E+00 0. -1.
<scales pt_clust_5="13000.00000" pt_clust_6="13000.00000" pt_clust_7="13000.00000" pt_clust_8="13000.00000" pt_clust_9="64.71442" pt_clust_10="13000.00000"></scales>
<clustering>
<clus scale="   64.714">  2  9  1 -1</clus>
<clus scale="   76.695">  5  6 -1 -1</clus>
<clus scale="   79.372">  1  5  2 -1</clus>
<clus scale="   90.586">  7  8 -1 -1</clus>
<clus scale="   90.139">  7 10 -1 -1</clus>
<clus scale="   64.714">  2  5  1 -1</clus>
</clustering>
</event>
<event>
10    4  0.2759992E-005  0.4305254E+03  0.7546771E-02  0.1047895E+00
         21   -1    0    0  501  502  0.00000000000E+00  0.00000000000E+00  0.81728243728E+02  0.81728243728E+02  0.00000000000E+00 0. -1.
          2   -1    0    0  503    0 -0.00000000000E+00 -0.00000000000E+00 -0.18786091900E+04  0.18786091900E+04  0.00000000000E+00 0. -1.
         24    2    1    2    0    0  0.77088683889E+02 -0.23616497574E+03 -0.48355343000E+03  0.54942303096E+03  0.79531040089E+02 0.  0.
         23    2    1    2    0    0  0.96262417001E+02  0.12794973209E+03 -0.41796822268E+03  0.45692524605E+03  0.91900263523E+02 0.  0.
        -13    1    3    3    0    0 -0.39722045952E+01 -0.92408831201E+02 -0.21735171822E+03  0.23621375892E+03  0.00000000000E+00 0.  1.
         14    1    3    3    0    0  0.81060888485E+02 -0.14375614454E+03 -0.26620171178E+03  0.31320927204E+03  0.00000000000E+00 0. -1.
        -13    1    4    4    0    0  0.12811875377E+02  0.71053148838E+02 -0.10027169959E+03  0.12356013859E+03  0.00000000000E+00 0. -1.
         13    1    4    4    0    0  0.83450541624E+02  0.56896583247E+02 -0.31769652310E+03  0.33336510746E+03  0.00000000000E+00 0.  1.
         21    1    1    2  503  502  0.42895516496E+02 -0.46372475789E+02 -0.15654477219E+03  0.16880964885E+03  0.00000000000E+00 0. -1.
          1    1    1    2  501    0 -0.21624661739E+03  0.15458771945E+03 -0.73881452143E+03  0.78517950789E+03  0.00000000000E+00 0. -1.
<scales pt_clust_5="13000.00000" pt_clust_6="13000.00000" pt_clust_7="13000.00000" pt_clust_8="13000.00000" pt_clust_9="63.16990" pt_clust_10="13000.00000"></scales>
<clustering>
<clus scale="   63.170">  1  9  2 -1</clus>
<clus scale="   79.531">  5  6 -1 -1</clus>
<clus scale="   91.900">  7  8 -1 -1</clus>
<clus scale="  246.879">  7 10 -1 -1</clus>
<clus scale="  284.997">  2  5  1 -1</clus>
<clus scale="   63.170">  1  5  2 -1</clus>
</clustering>
</event>
<event>
10    4  0.2759992E-005  0.1452848E+03  0.7546771E-02  0.1215615E+00
          2   -1    0    0  503    0 -0.00000000000E+00  0.00000000000E+00  0.14623167730E+03  0.14623167730E+03  0.00000000000E+00 0. -1.
         21   -1    0    0  501  502  0.00000000000E+00 -0.00000000000E+00 -0.55299229755E+03  0.55299229755E+03  0.00000000000E+00 0. -1.
         24    2    1    2    0    0  0.56883241199E+02  0.90544730066E+02 -0.41771094358E+02  0.14001527006E+03  0.80158594385E+02 0.  0.
         23    2    1    2    0    0 -0.79060962467E+02 -0.36607724433E+01  0.11530294826E+02  0.11873953647E+03  0.87761567795E+02 0.  0.
        -11    1    3    3    0    0 -0.14234349030E+02  0.47201178294E+02 -0.24101233612E+02  0.54876565001E+02  0.00000000000E+00 0.  1.
         12    1    3    3    0    0  0.71117590229E+02  0.43343551772E+02 -0.17669860746E+02  0.85138705058E+02  0.00000000000E+00 0. -1.
        -13    1    4    4    0    0 -0.40255573214E+02  0.37746507088E+02 -0.13350123960E+02  0.56776190273E+02  0.00000000000E+00 0. -1.
         13    1    4    4    0    0 -0.38805389254E+02 -0.41407279531E+02  0.24880418786E+02  0.61963346200E+02  0.00000000000E+00 0.  1.
         21    1    1    2  503  502  0.50145207117E+02 -0.11732496091E+03 -0.37815366288E+03  0.39909883612E+03  0.00000000000E+00 0. -1.
          1    1    1    2  501    0 -0.27967485848E+02  0.30441003285E+02  0.16338421644E+01  0.41370332194E+02  0.00000000000E+00 0. -1.
<scales pt_clust_5="13000.00000" pt_clust_6="13000.00000" pt_clust_7="13000.00000" pt_clust_8="13000.00000" pt_clust_9="127.59188" pt_clust_10="13000.00000"></scales>
<clustering>
<clus scale="   80.159">  5  6 -1 -1</clus>
<clus scale="   87.762">  7  8 -1 -1</clus>
<clus scale="   41.338">  7 10 -1 -1</clus>
<clus scale="  127.592">  2  9  1 -1</clus>
<clus scale="  119.346">  1  5  2 -1</clus>
<clus scale="  127.592">  2  5  1 -1</clus>
</clustering>
</event>
<event>
10    4  0.2759992E-005  0.2022978E+03  0.7546771E-02  0.1167999E+00
          2   -1    0    0  502    0 -0.00000000000E+00  0.00000000000E+00  0.15604995952E+04  0.15604995952E+04  0.00000000000E+00 0. -1.
         21   -1    0    0  503  502  0.00000000000E+00 -0.00000000000E+00 -0.30545635486E+03  0.30545635486E+03  0.00000000000E+00 0. -1.
         24    2    1    2    0    0  0.19780548158E+02  0.95851663642E+02  0.13635987779E+04  0.13694289423E+04  0.79719443160E+02 0.  0.
         23    2    1    2    0    0  0.69754399610E+02  0.35818114562E+01  0.62892726174E+02  0.14117608386E+03  0.10534080885E+03 0.  0.
        -11    1    3    3    0    0 -0.19627060534E+02  0.24723124623E+02  0.15986548456E+03  0.16295222475E+03  0.00000000000E+00 0.  1.
         12    1    3    3    0    0  0.39407608692E+02  0.71128539019E+02  0.12037332933E+04  0.12064767176E+04  0.00000000000E+00 0. -1.
        -11    1    4    4    0    0 -0.25446931942E+02  0.63265885959E+00  0.32324831050E+02  0.41144152742E+02  0.00000000000E+00 0.  1.
         11    1    4    4    0    0  0.95201331551E+02  0.29491525966E+01  0.30567895124E+02  0.10003193111E+03  0.00000000000E+00 0. -1.
         21    1    1    2  503  501 -0.12998878606E+03 -0.49909504871E+02 -0.22985844078E+03  0.26874327150E+03  0.00000000000E+00 0. -1.
          1    1    1    2  501    0  0.40453838296E+02 -0.49523970227E+02  0.58410177051E+02  0.86607652335E+02  0.00000000000E+00 0. -1.
<scales pt_clust_5="13000.00000" pt_clust_6="13000.00000" pt_clust_7="13000.00000" pt_clust_8="13000.00000" pt_clust_9="134.20100" pt_clust_10="13000.00000"></scales>
<clustering>
<clus scale="   79.719">  5  6 -1 -1</clus>
<clus scale="  105.341">  7  8 -1 -1</clus>
<clus scale="   63.946">  7 10 -1 -1</clus>
<clus scale="  126.230">  1  5  2 -1</clus>
<clus scale="  134.201">  2  9  1 -1</clus>
<clus scale="  134.201">  2  5  1 -1</clus>
</clustering>
</event>
<event>
10    4  0.2759992E-005  0.2481228E+03  0.7546771E-02  0.1141936E+00
         21   -1    0    0  501  502  0.00000000000E+00  0.00000000000E+00  0.80807390440E+03  0.80807390440E+03  0.00000000000E+00 0. -1.
          2   -1    0    0  503    0 -0.00000000000E+00 -0.00000000000E+00 -0.97319138158E+02  0.97319138158E+02  0.00000000000E+00 0. -1.
         24    2    1    2    0    0  0.49024128474E+02 -0.28954250739E+02  0.51133791155E+03  0.52070740857E+03  0.80175006971E+02 0.  0.
         23    2    1    2    0    0 -0.87179442035E+01  0.12527406891E+03  0.99546992083E+02  0.18673418145E+03  0.95866866014E+02 0.  0.
        -13    1    3    3    0    0  0.52868137420E+02 -0.16427255827E+02  0.16341797813E+03  0.17254080754E+03  0.00000000000E+00 0.  1.
         14    1    3    3    0    0 -0.38440089461E+01 -0.12526994913E+02  0.34791993342E+03  0.34816660103E+03  0.00000000000E+00 0. -1.
        -13    1    4    4    0    0 -0.28955526274E+02  0.20735451700E+02  0.66170938547E+02  0.75146354318E+02  0.00000000000E+00 0.  1.
         13    1    4    4    0    0  0.20237582071E+02  0.10453861721E+03  0.33376053536E+02  0.11158782714E+03  0.00000000000E+00 0. -1.
         21    1    1    2  503  502  0.34570456469E+02 -0.47003832789E+02  0.90671137552E+02  0.10782268751E+03  0.00000000000E+00 0. -1.
          1    1    1    2  501    0 -0.74876640740E+02 -0.49315985378E+02  0.91987250611E+01  0.90128765025E+02  0.00000000000E+00 0. -1.
<scales pt_clust_5="13000.00000" pt_clust_6="13000.00000" pt_clust_7="13000.00000" pt_clust_8="13000.00000" pt_clust_9="58.34789" pt_clust_10="13000.00000"></scales>
<clustering>
<clus scale="   58.348">  1  9  2 -1</clus>
<clus scale="   80.175">  5  6 -1 -1</clus>
<clus scale="   95.867">  7  8 -1 -1</clus>
<clus scale="   89.540">  7 10 -1 -1</clus>
<clus scale="  126.187">  2  5  1 -1</clus>
<clus scale="   58.348">  1  5  2 -1</clus>
</clustering>
</event>
<event>
10    4  0.2759992E-005  0.3809374E+03  0.7546771E-02  0.1099291E+00
          4   -1    0    0  503    0 -0.00000000000E+00  0.00000000000E+00  0.51232662231E+03  0.51232662231E+03  0.00000000000E+00 0. -1.
         21   -1    0    0  501  502  0.00000000000E+00 -0.00000000000E+00 -0.21553586818E+03  0.21553586818E+03  0.00000000000E+00 0.  1.
         24    2    1    2    0    0 -0.40983860372E+01 -0.68687770837E+02  0.14917825610E+03  0.18219863121E+03  0.78786943653E+02 0.  0.
         23    2    1    2    0    0  0.90846846502E+02 -0.94257767755E+02 -0.80733542596E+01  0.15804472623E+03  0.88177548952E+02 0.  0.
        -13    1    3    3    0    0  0.27493115467E+02 -0.60892413424E+02  0.12473591912E+03  0.14150196794E+03  0.00000000000E+00 0.  1.
         14    1    3    3    0    0 -0.31591501504E+02 -0.77953574129E+01  0.24442336982E+02  0.40696663274E+02  0.00000000000E+00 0. -1.
        -13    1    4    4    0    0 -0.13515685739E+02 -0.20378147781E+02  0.14164814145E+02  0.28259239689E+02  0.00000000000E+00 0. -1.
         13    1    4    4    0    0  0.10436253224E+03 -0.73879619974E+02 -0.22238168405E+02  0.12978548654E+03  0.00000000000E+00 0.  1.
         21    1    1    2  503  502 -0.54054181178E+01  0.38713542236E+02 -0.91364903869E+02  0.99375563175E+02  0.00000000000E+00 0.  1.
          3    1    1    2  501    0 -0.81343042347E+02  0.12423199636E+03  0.24705075615E+03  0.28824356987E+03  0.00000000000E+00 0. -1.
<scales pt_clust_5="13000.00000" pt_clust_6="13000.00000" pt_clust_7="13000.00000" pt_clust_8="13000.00000" pt_clust_9="39.08909" pt_clust_10="13000.00000"></scales>
<clustering>
<clus scale="   39.089">  2  9  1 -1</clus>
<clus scale="   78.787">  5  6 -1 -1</clus>
<clus scale="   88.178">  7  8 -1 -1</clus>
<clus scale="  101.225">  1  5  2 -1</clus>
<clus scale="  117.021">  7 10 -1 -1</clus>
<clus scale="   39.089">  2  5  1 -1</clus>
</clustering>
</event>
<event>
10    4  0.2759992E-005  0.2559629E+03  0.7546771E-02  0.1148942E+00
         21   -1    0    0  503  502  0.00000000000E+00  0.00000000000E+00  0.13345744602E+03  0.13345744602E+03  0.00000000000E+00 0. -1.
          2   -1    0    0  502    0 -0.00000000000E+00 -0.00000000000E+00 -0.36337375062E+03  0.36337375062E+03  0.00000000000E+00 0. -1.
         24    2    1    2    0    0  0.21846444106E+02  0.64963813452E+02 -0.59468795155E+02  0.12154583474E+03  0.80865865275E+02 0.  0.
         23    2    1    2    0    0  0.10631302027E+03  0.11397442711E+02 -0.10825935774E+03  0.19818650128E+03  0.12698598652E+03 0.  0.
        -11    1    3    3    0    0  0.21169232638E+02  0.82503341321E+02 -0.36572562439E+02  0.92695685244E+02  0.00000000000E+00 0.  1.
         12    1    3    3    0    0  0.67721146775E+00 -0.17539527869E+02 -0.22896232716E+02  0.28850149494E+02  0.00000000000E+00 0. -1.
        -11    1    4    4    0    0  0.55314284066E+01 -0.43762837647E+02 -0.57788123367E+02  0.72699723944E+02  0.00000000000E+00 0.  1.
         11    1    4    4    0    0  0.10078159186E+03  0.55160280358E+02 -0.50471234374E+02  0.12548677734E+03  0.00000000000E+00 0. -1.
         21    1    1    2  503  501 -0.51598368892E+02 -0.34836762930E+02  0.11137368239E+02  0.63245811679E+02  0.00000000000E+00 0. -1.
          1    1    1    2  501    0 -0.76561095482E+02 -0.41524493233E+02 -0.73325519945E+02  0.11385304895E+03  0.00000000000E+00 0. -1.
<scales pt_clust_5="13000.00000" pt_clust_6="13000.00000" pt_clust_7="13000.00000" pt_clust_8="13000.00000" pt_clust_9="62.25746" pt_clust_10="13000.00000"></scales>
<clustering>
<clus scale="   62.257">  1  9  2 -1</clus>
<clus scale="   80.866">  5  6 -1 -1</clus>
<clus scale="   97.229">  2  5  1 -1</clus>
<clus scale="  126.986">  7  8 -1 -1</clus>
<clus scale="   88.145">  7 10 -1 -1</clus>
<clus scale="   62.257">  1  5  2 -1</clus>
</clustering>
</event>
<event>
10    4  0.2759992E-005  0.2326864E+03  0.7546771E-02  0.1139863E+00
          2   -1    0    0  502    0 -0.00000000000E+00  0.00000000000E+00  0.14346870323E+04  0.14346870323E+04  0.00000000000E+00 0. -1.
         21   -1    0    0  503  502  0.00000000000E+00 -0.00000000000E+00 -0.38663757422E+02  0.38663757422E+02  0.00000000000E+00 0. -1.
         24    2    1    2    0    0  0.10719650327E+03 -0.90012092525E+02  0.30752594921E+03  0.34734681440E+03  0.80525355760E+02 0.  0.
         23    2    1    2    0    0 -0.19781321506E+02  0.22588538486E+02  0.24936825009E+03  0.26736416332E+03  0.91638032087E+02 0.  0.
        -13    1    3    3    0    0  0.43661588895E+02 -0.56181606199E+02  0.72652719492E+02  0.10169132151E+03  0.00000000000E+00 0.  1.
         14    1    3    3    0    0  0.63534914375E+02 -0.33830486326E+02  0.23487322972E+03  0.24565549289E+03  0.00000000000E+00 0. -1.
        -13    1    4    4    0    0 -0.37226330514E+02 -0.22025925947E+02  0.75449929175E+02  0.86969149184E+02  0.00000000000E+00 0. -1.
         13    1    4    4    0    0  0.17445009008E+02  0.44614464434E+02  0.17391832092E+03  0.18039501414E+03  0.00000000000E+00 0.  1.
         21    1    1    2  503  501  0.22465434311E+02  0.34293550308E+02  0.71014920793E+02  0.81999160403E+02  0.00000000000E+00 0. -1.
          1    1    1    2  501    0 -0.10988061607E+03  0.33130003731E+02  0.76811415479E+03  0.77664065160E+03  0.00000000000E+00 0. -1.
<scales pt_clust_5="13000.00000" pt_clust_6="13000.00000" pt_clust_7="13000.00000" pt_clust_8="13000.00000" pt_clust_9="40.99687" pt_clust_10="13000.00000"></scales>
<clustering>
<clus scale="   40.997">  2  9  1 -1</clus>
<clus scale="   80.525">  5  6 -1 -1</clus>
<clus scale="   91.638">  7  8 -1 -1</clus>
<clus scale="  113.387">  7 10 -1 -1</clus>
<clus scale="  160.837">  1  5  2 -1</clus>
<clus scale="   40.997">  2  5  1 -1</clus>
</clustering>
</event>
<event>
10    4  0.2759992E-005  0.3944264E+03  0.7546771E-02  0.1074379E+00
         21   -1    0    0  501  502  0.00000000000E+00  0.00000000000E+00  0.13292216683E+03  0.13292216683E+03  0.00000000000E+00 0.  1.
          2   -1    0    0  503    0 -0.00000000000E+00 -0.00000000000E+00 -0.16674792100E+04  0.16674792100E+04  0.00000000000E+00 0. -1.
         24    2    1    2    0    0 -0.50244846024E+02 -0.88791403938E+02  0.68493738463E+01  0.13688236364E+03  0.91002250450E+02 0.  0.
         23    2    1    2    0    0 -0.70062038346E+02 -0.39615318846E+01 -0.19182250661E+03  0.22349090089E+03  0.90707914694E+02 0.  0.
        -11    1    3    3    0    0 -0.66252510745E+02 -0.80452844938E+02  0.29123017274E+02  0.10821370326E+03  0.00000000000E+00 0.  1.
         12    1    3    3    0    0  0.16007664721E+02 -0.83385590001E+01 -0.22273643428E+02  0.28668660373E+02  0.00000000000E+00 0. -1.
        -11    1    4    4    0    0 -0.92182050080E+02 -0.59218870077E+01 -0.15831462126E+03  0.18329243958E+03  0.00000000000E+00 0.  1.
         11    1    4    4    0    0  0.22120011734E+02  0.19603551231E+01 -0.33507885349E+02  0.40198461312E+02  0.00000000000E+00 0. -1.
         21    1    1    2  503  502 -0.10041707579E+03  0.99916224820E+00 -0.38847857246E+02  0.10767424691E+03  0.00000000000E+00 0. -1.
          1    1    1    2  501    0  0.22072396016E+03  0.91753773575E+02 -0.13107360531E+04  0.13323538654E+04  0.00000000000E+00 0. -1.
<scales pt_clust_5="13000.00000" pt_clust_6="13000.00000" pt_clust_7="13000.00000" pt_clust_8="13000.00000" pt_clust_9="100.42205" pt_clust_10="13000.00000"></scales>
<clustering>
<clus scale="   90.708">  7  8 -1 -1</clus>
<clus scale="   91.002">  5  6 -1 -1</clus>
<clus scale="  100.422">  1  9  2 -1</clus>
<clus scale="  176.888">  2  5  1 -1</clus>
<clus scale="  110.283">  7 10 -1 -1</clus>
<clus scale="  100.422">  1  5  2 -1</clus>
</clustering>
</event>
<event>
10    4  0.2759992E-005  0.2906857E+03  0.7546771E-02  0.1095979E+00
          2   -1    0    0  502    0 -0.00000000000E+00  0.00000000000E+00  0.74676497042E+03  0.74676497042E+03  0.00000000000E+00 0. -1.
         21   -1    0    0  503  502  0.00000000000E+00 -0.00000000000E+00 -0.21555447595E+03  0.21555447595E+03  0.00000000000E+00 0. -1.
         24    2    1    2    0    0  0.18047939749E+03  0.13302996859E+03  0.43784005628E+03  0.50056820871E+03  0.92708312626E+02 0.  0.
         23    2    1    2    0    0 -0.13267998806E+03 -0.80680356198E+02  0.38692314929E+02  0.18532015003E+03  0.93451397338E+02 0.  0.
        -13    1    3    3    0    0  0.58232727331E+02  0.84564667900E+02  0.12883040773E+03  0.16474072825E+03  0.00000000000E+00 0.  1.
         14    1    3    3    0    0  0.12224667016E+03  0.48465300693E+02  0.30900964855E+03  0.33582748046E+03  0.00000000000E+00 0. -1.
        -11    1    4    4    0    0 -0.64907177747E+02 -0.75288972263E+02  0.57424821911E+02  0.11479974407E+03  0.00000000000E+00 0.  1.
         11    1    4    4    0    0 -0.67772810316E+02 -0.53913839350E+01 -0.18732506982E+02  0.70520405960E+02  0.00000000000E+00 0. -1.
         21    1    1    2  503  501  0.63984712526E+02 -0.50558028268E+02 -0.71069477964E+02  0.10817129174E+03  0.00000000000E+00 0. -1.
          1    1    1    2  501    0 -0.11178412195E+03 -0.17915841284E+01  0.12574760123E+03  0.16825979588E+03  0.00000000000E+00 0. -1.
<scales pt_clust_5="13000.00000" pt_clust_6="13000.00000" pt_clust_7="13000.00000" pt_clust_8="13000.00000" pt_clust_9="81.54850" pt_clust_10="13000.00000"></scales>
<clustering>
<clus scale="   81.548">  2  9  1 -1</clus>
<clus scale="   92.708">  5  6 -1 -1</clus>
<clus scale="   93.451">  7  8 -1 -1</clus>
<clus scale="  101.511">  7 10 -1 -1</clus>
<clus scale="  248.353">  1  5  2 -1</clus>
<clus scale="   81.548">  2  5  1 -1</clus>
</clustering>
</event>
<event>
10    4  0.2759992E-005  0.4333559E+03  0.7546771E-02  0.1040429E+00
          2   -1    0    0  502    0 -0.00000000000E+00  0.00000000000E+00  0.84527428043E+03  0.84527428043E+03  0.00000000000E+00 0. -1.
         21   -1    0    0  503  502  0.00000000000E+00 -0.00000000000E+00 -0.22766891569E+03  0.22766891569E+03  0.00000000000E+00 0. -1.
         24    2    1    2    0    0 -0.31779973034E+03 -0.14701216401E+03  0.26930629117E+03  0.44826783828E+03  0.76216346014E+02 0.  0.
         23    2    1    2    0    0 -0.69875288075E+01  0.52354708053E+01  0.11707223850E+03  0.14719027944E+03  0.88785323229E+02 0.  0.
        -11    1    3    3    0    0 -0.13514775551E+03 -0.10145236357E+03  0.10978310363E+03  0.20151880244E+03  0.00000000000E+00 0.  1.
         12    1    3    3    0    0 -0.18265197482E+03 -0.45559800444E+02  0.15952318754E+03  0.24674903584E+03  0.00000000000E+00 0. -1.
        -13    1    4    4    0    0 -0.30028883394E+02  0.38450706471E+02  0.63567384158E+02  0.80131161196E+02  0.00000000000E+00 0. -1.
         13    1    4    4    0    0  0.23041354586E+02 -0.33215235665E+02  0.53504854339E+02  0.67059118242E+02  0.00000000000E+00 0.  1.
         21    1    1    2  503  501  0.48402804000E+02 -0.39487453686E+02 -0.16291317413E+02  0.64556157388E+02  0.00000000000E+00 0. -1.
          1    1    1    2  501    0  0.27638445515E+03  0.18126414690E+03  0.24751815249E+03  0.41292892101E+03  0.00000000000E+00 0. -1.
<scales pt_clust_5="13000.00000" pt_clust_6="13000.00000" pt_clust_7="13000.00000" pt_clust_8="13000.00000" pt_clust_9="62.46671" pt_clust_10="13000.00000"></scales>
<clustering>
<clus scale="   62.467">  2  9  1 -1</clus>
<clus scale="   76.216">  5  6 -1 -1</clus>
<clus scale="   88.785">  7  8 -1 -1</clus>
<clus scale="  339.855">  7 10 -1 -1</clus>
<clus scale="  346.635">  1  5  2 -1</clus>
<clus scale="   62.467">  2  5  1 -1</clus>
</clustering>
</event>
<event>
10    4  0.2759992E-005  0.2464489E+03  0.7546771E-02  0.1123354E+00
         21   -1    0    0  501  502  0.00000000000E+00  0.00000000000E+00  0.87912058554E+02  0.87912058554E+02  0.00000000000E+00 0.  1.
          2   -1    0    0  503    0 -0.00000000000E+00 -0.00000000000E+00 -0.12574440409E+04  0.12574440409E+04  0.00000000000E+00 0. -1.
         24    2    1    2    0    0 -0.98345624848E+02 -0.90756375759E+02 -0.17752939255E+03  0.23673567962E+03  0.81354256905E+02 0.  0.
         23    2    1    2    0    0  0.61991196556E+02  0.73979537190E+02 -0.33109940026E+03  0.35677011966E+03  0.91335781909E+02 0.  0.
        -11    1    3    3    0    0 -0.38429764586E+02 -0.38047511354E+02 -0.15717444868E+02  0.56316054545E+02  0.00000000000E+00 0.  1.
         12    1    3    3    0    0 -0.59915860262E+02 -0.52708864405E+02 -0.16181194769E+03  0.18041962507E+03  0.00000000000E+00 0. -1.
        -11    1    4    4    0    0  0.28932900046E+02 -0.17477761251E+02 -0.61652696492E+02  0.70311022096E+02  0.00000000000E+00 0.  1.
         11    1    4    4    0    0  0.33058296510E+02  0.91457298441E+02 -0.26944670376E+03  0.28645909756E+03  0.00000000000E+00 0. -1.
         21    1    1    2  503  502 -0.32671211067E+02 -0.85452532960E+02 -0.13112514462E+02  0.92420135562E+02  0.00000000000E+00 0. -1.
          1    1    1    2  501    0  0.69025639359E+02  0.10222937153E+03 -0.64779067511E+03  0.65943016465E+03  0.00000000000E+00 0. -1.
<scales pt_clust_5="13000.00000" pt_clust_6="13000.00000" pt_clust_7="13000.00000" pt_clust_8="13000.00000" pt_clust_9="91.48521" pt_clust_10="13000.00000"></scales>
<clustering>
<clus scale="   81.354">  5  6 -1 -1</clus>
<clus scale="   91.336">  7  8 -1 -1</clus>
<clus scale="   91.485">  1  9  2 -1</clus>
<clus scale="  112.633">  7 10 -1 -1</clus>
<clus scale="  202.814">  2  5  1 -1</clus>
<clus scale="   91.485">  1  5  2 -1</clus>
</clustering>
</event>
<event>
10    4  0.2759992E-005  0.2241896E+03  0.7546771E-02  0.1148570E+00
         21   -1    0    0  503  502  0.00000000000E+00  0.00000000000E+00  0.41467360603E+02  0.41467360603E+02  0.00000000000E+00 0.  1.
          2   -1    0    0  502    0 -0.00000000000E+00 -0.00000000000E+00 -0.99694200938E+03  0.99694200938E+03  0.00000000000E+00 0. -1.
         24    2    1    2    0    0  0.11190254051E+03  0.23827841869E+02 -0.44640473680E+03  0.46819398455E+03  0.82695063347E+02 0.  0.
         23    2    1    2    0    0 -0.77251807511E+02 -0.33341267624E+02 -0.13379523200E+03  0.18242077490E+03  0.91086185120E+02 0.  0.
        -13    1    3    3    0    0  0.34538707021E+02 -0.30058704400E+02 -0.11973347250E+03  0.12818951763E+03  0.00000000000E+00 0.  1.
         14    1    3    3    0    0  0.77363833490E+02  0.53886546269E+02 -0.32667126431E+03  0.34000446692E+03  0.00000000000E+00 0. -1.
        -13    1    4    4    0    0 -0.82331337936E+02  0.75568218002E+01 -0.85611904998E+02  0.11901660825E+03  0.00000000000E+00 0.  1.
         13    1    4    4    0    0  0.50795304254E+01 -0.40898089424E+02 -0.48183327001E+02  0.63404166651E+02  0.00000000000E+00 0. -1.
         21    1    1    2  503  501  0.22202614217E+02 -0.68994969763E+01 -0.32561208589E+02  0.40009891794E+02  0.00000000000E+00 0. -1.
          1    1    1    2  501    0 -0.56853347217E+02  0.16412922730E+02 -0.34271347139E+03  0.34778471875E+03  0.00000000000E+00 0. -1.
<scales pt_clust_5="13000.00000" pt_clust_6="13000.00000" pt_clust_7="13000.00000" pt_clust_8="13000.00000" pt_clust_9="23.24993" pt_clust_10="13000.00000"></scales>
<clustering>
<clus scale="   23.250">  1  9  2 -1</clus>
<clus scale="   82.695">  5  6 -1 -1</clus>
<clus scale="   91.086">  7  8 -1 -1</clus>
<clus scale="   57.613">  7 10 -1 -1</clus>
<clus scale="  145.989">  2  5  1 -1</clus>
<clus scale="   23.250">  1  5  2 -1</clus>
</clustering>
</event>
<event>
10    4  0.2759992E-005  0.2106943E+03  0.7546771E-02  0.1163362E+00
         -1   -1    0    0    0  501 -0.00000000000E+00  0.00000000000E+00  0.41912689239E+03  0.41912689239E+03  0.00000000000E+00 0.  1.
         21   -1    0    0  503  502  0.00000000000E+00 -0.00000000000E+00 -0.15532238355E+03  0.15532238355E+03  0.00000000000E+00 0.  1.
         24    2    1    2    0    0  0.72091056533E+02  0.79763492112E+02  0.26542013181E+03  0.29734904843E+03  0.80057948555E+02 0.  0.
         23    2    1    2    0    0 -0.13170319982E+02  0.44379731398E+02 -0.19704415300E+02  0.10371243214E+03  0.90691712470E+02 0.  0.
        -11    1    3    3    0    0  0.77697704384E+02  0.78006820956E+02  0.26886748436E+03  0.29053695381E+03  0.00000000000E+00 0.  1.
         12    1    3    3    0    0 -0.56066478512E+01  0.17566711557E+01 -0.34473525429E+01  0.68120946288E+01  0.00000000000E+00 0. -1.
        -13    1    4    4    0    0  0.13118846131E+02  0.38929267143E+02  0.27480163963E+02  0.49424198280E+02  0.00000000000E+00 0. -1.
         13    1    4    4    0    0 -0.26289166112E+02  0.54504642546E+01 -0.47184579263E+02  0.54288233860E+02  0.00000000000E+00 0.  1.
         21    1    1    2  503  501 -0.68772172082E+02 -0.45396015537E+02 -0.20832357340E+02  0.84996452819E+02  0.00000000000E+00 0.  1.
         -2    1    1    2    0  502  0.98514355308E+01 -0.78747207973E+02  0.38921149673E+02  0.88391342548E+02  0.00000000000E+00 0.  1.
<scales pt_clust_5="13000.00000" pt_clust_6="13000.00000" pt_clust_7="13000.00000" pt_clust_8="13000.00000" pt_clust_9="82.40394" pt_clust_10="13000.00000"></scales>
<clustering>
<clus scale="   80.058">  5  6 -1 -1</clus>
<clus scale="   82.404">  2  9  1 -1</clus>
<clus scale="   90.692">  7  8 -1 -1</clus>
<clus scale="   89.966">  7 10 -1 -1</clus>
<clus scale="  124.334">  1  5  2 -1</clus>
<clus scale="   82.404">  2  5  1 -1</clus>
</clustering>
</event>
<event>
10    4  0.2759992E-005  0.1325166E+04  0.7546771E-02  0.9441005E-01
         -1   -1    0    0    0  501 -0.00000000000E+00  0.00000000000E+00  0.95118596392E+03  0.95118596392E+03  0.00000000000E+00 0.  1.
         21   -1    0    0  501  502  0.00000000000E+00 -0.00000000000E+00 -0.84253404959E+03  0.84253404959E+03  0.00000000000E+00 0.  1.
         24    2    1    2    0    0  0.17651400886E+02  0.25589504966E+03  0.16050325084E+03  0.31405410983E+03  0.84112079881E+02 0.  0.
         23    2    1    2    0    0  0.17213975047E+03  0.32103174346E+03  0.49452585195E+03  0.62304863466E+03  0.10459593158E+03 0.  0.
        -13    1    3    3    0    0  0.20864828347E+02  0.11157049213E+02  0.53372657970E+01  0.24255045151E+02  0.00000000000E+00 0.  1.
         14    1    3    3    0    0 -0.32134274614E+01  0.24473800044E+03  0.15516598504E+03  0.28979906468E+03  0.00000000000E+00 0. -1.
        -11    1    4    4    0    0  0.12745281302E+03  0.14121152700E+03  0.29255350302E+03  0.34895911943E+03  0.00000000000E+00 0.  1.
         11    1    4    4    0    0  0.44686937446E+02  0.17982021646E+03  0.20197234894E+03  0.27408951523E+03  0.00000000000E+00 0. -1.
         21    1    1    2  503  502  0.47447307528E+00 -0.28627479678E+02 -0.15260771358E+03  0.15527031899E+03  0.00000000000E+00 0.  1.
         -2    1    1    2    0  503 -0.19026562443E+03 -0.54829931344E+03 -0.39376947489E+03  0.70134695002E+03  0.00000000000E+00 0.  1.
<scales pt_clust_5="13000.00000" pt_clust_6="13000.00000" pt_clust_7="13000.00000" pt_clust_8="13000.00000" pt_clust_9="28.63141" pt_clust_10="13000.00000"></scales>
<clustering>
<clus scale="   28.631">  2  9  1 -1</clus>
<clus scale="   84.112">  5  6 -1 -1</clus>
<clus scale="  104.596">  7  8 -1 -1</clus>
<clus scale="  266.922">  1  5  2 -1</clus>
<clus scale="  545.201">  7 10 -1 -1</clus>
<clus scale="   28.631">  2  5  1 -1</clus>
</clustering>
</event>
<event>
10    4  0.2759992E-005  0.2454302E+03  0.7546771E-02  0.1154129E+00
          2   -1    0    0  503    0 -0.00000000000E+00  0.00000000000E+00  0.76403802320E+03  0.76403802320E+03  0.00000000000E+00 0. -1.
         21   -1    0    0  501  502  0.00000000000E+00 -0.00000000000E+00 -0.19321952578E+03  0.19321952578E+03  0.00000000000E+00 0. -1.
         24    2    1    2    0    0 -0.27383461981E+02 -0.35341422088E+02  0.35386631652E+02  0.10378950852E+03  0.86724727001E+02 0.  0.
         23    2    1    2    0    0 -0.11322929015E+03  0.36267183211E+02  0.30861260606E+03  0.34300709754E+03  0.90972235418E+02 0.  0.
        -13    1    3    3    0    0  0.30056707489E+02 -0.17192129579E+02  0.24887180688E+02  0.42642077191E+02  0.00000000000E+00 0.  1.
         14    1    3    3    0    0 -0.57440169470E+02 -0.18149292508E+02  0.10499450963E+02  0.61147431327E+02  0.00000000000E+00 0. -1.
        -11    1    4    4    0    0 -0.11372831599E+03  0.57945344572E+02  0.27190507691E+03  0.30037337376E+03  0.00000000000E+00 0. -1.
         11    1    4    4    0    0  0.49902584002E+00 -0.21678161361E+02  0.36707529146E+02  0.42633723774E+02  0.00000000000E+00 0.  1.
         21    1    1    2  503  502  0.13626486090E+03  0.55547847994E+02 -0.10055217385E+03  0.17822574280E+03  0.00000000000E+00 0. -1.
          1    1    1    2  501    0  0.43478912353E+01 -0.56473609117E+02  0.32737143357E+03  0.33223520012E+03  0.00000000000E+00 0. -1.
<scales pt_clust_5="13000.00000" pt_clust_6="13000.00000" pt_clust_7="13000.00000" pt_clust_8="13000.00000" pt_clust_9="144.99310" pt_clust_10="13000.00000"></scales>
<clustering>
<clus scale="   86.725">  5  6 -1 -1</clus>
<clus scale="   90.972">  7  8 -1 -1</clus>
<clus scale="   56.641">  7 10 -1 -1</clus>
<clus scale="   97.571">  1  5  2 -1</clus>
<clus scale="  144.993">  2  9  1 -1</clus>
<clus scale="  144.993">  2  5  1 -1</clus>
</clustering>
</event>
<event>
10    4  0.2759992E-005  0.2057350E+03  0.7546771E-02  0.1163702E+00
         21   -1    0    0  503  502  0.00000000000E+00  0.00000000000E+00  0.14220260897E+03  0.14220260897E+03  0.00000000000E+00 0.  1.
          2   -1    0    0  502    0 -0.00000000000E+00 -0.00000000000E+00 -0.99338587265E+03  0.99338587265E+03  0.00000000000E+00 0. -1.
         24    2    1    2    0    0 -0.94689089222E+02 -0.31821440841E+02 -0.49317724431E+03  0.50966252475E+03  0.80953487405E+02 0.  0.
         23    2    1    2    0    0  0.35258068371E+02  0.47722475152E+02 -0.15045839557E+03  0.18631907046E+03  0.92501357818E+02 0.  0.
        -11    1    3    3    0    0  0.39578792174E+01 -0.27253491190E+02 -0.15226537745E+03  0.15473578371E+03  0.00000000000E+00 0.  1.
         12    1    3    3    0    0 -0.98646968439E+02 -0.45679496508E+01 -0.34091186686E+03  0.35492674105E+03  0.00000000000E+00 0. -1.
        -11    1    4    4    0    0  0.59172714119E+02  0.90135869795E+01 -0.58376800644E+02  0.83609244105E+02  0.00000000000E+00 0. -1.
         11    1    4    4    0    0 -0.23914645748E+02  0.38708888173E+02 -0.92081594931E+02  0.10270982635E+03  0.00000000000E+00 0.  1.
         21    1    1    2  503  501 -0.20832750567E+02  0.24620902894E+01  0.10978244669E+03  0.11176873886E+03  0.00000000000E+00 0.  1.
          1    1    1    2  501    0  0.80263771418E+02 -0.18363124601E+02 -0.31733007050E+03  0.32783814755E+03  0.00000000000E+00 0. -1.
<scales pt_clust_5="13000.00000" pt_clust_6="13000.00000" pt_clust_7="13000.00000" pt_clust_8="13000.00000" pt_clust_9="20.97774" pt_clust_10="13000.00000"></scales>
<clustering>
<clus scale="   20.978">  1  9  2 -1</clus>
<clus scale="   80.953">  5  6 -1 -1</clus>
<clus scale="   92.501">  7  8 -1 -1</clus>
<clus scale="   78.852">  7 10 -1 -1</clus>
<clus scale="  132.499">  2  5  1 -1</clus>
<clus scale="   20.978">  1  5  2 -1</clus>
</clustering>
</event>
<event>
10    4  0.2759992E-005  0.3376312E+03  0.7546771E-02  0.1079494E+00
          2   -1    0    0  503    0 -0.00000000000E+00  0.00000000000E+00  0.39718570963E+03  0.39718570963E+03  0.00000000000E+00 0. -1.
         21   -1    0    0  501  502  0.00000000000E+00 -0.00000000000E+00 -0.41132657811E+03  0.41132657811E+03  0.00000000000E+00 0. -1.
         24    2    1    2    0    0 -0.25489582900E+02 -0.22625064276E+03  0.20693640583E+03  0.31827590787E+03  0.81472727261E+02 0.  0.
         23    2    1    2    0    0  0.31399586799E+02  0.28713888335E+02  0.12618288914E+01  0.10135835926E+03  0.91986430225E+02 0.  0.
        -13    1    3    3    0    0 -0.45580626977E+02 -0.77683133991E+02  0.59110044271E+02  0.10773235445E+03  0.00000000000E+00 0.  1.
         14    1    3    3    0    0  0.20091044077E+02 -0.14856750877E+03  0.14782636156E+03  0.21054355342E+03  0.00000000000E+00 0. -1.
        -11    1    4    4    0    0  0.58701560271E+02  0.40773642677E+02  0.20294985078E+01  0.71501622217E+02  0.00000000000E+00 0.  1.
         11    1    4    4    0    0 -0.27301973472E+02 -0.12059754343E+02 -0.76766961645E+00  0.29856737044E+02  0.00000000000E+00 0. -1.
         21    1    1    2  503  502 -0.52244858668E+02 -0.21123261505E+02  0.19439473871E+02  0.59612168038E+02  0.00000000000E+00 0. -1.
          1    1    1    2  501    0  0.46334854769E+02  0.21866001593E+03 -0.24177857707E+03  0.32926585256E+03  0.00000000000E+00 0. -1.
<scales pt_clust_5="13000.00000" pt_clust_6="13000.00000" pt_clust_7="13000.00000" pt_clust_8="13000.00000" pt_clust_9="56.35353" pt_clust_10="13000.00000"></scales>
<clustering>
<clus scale="   56.354">  2  9  1 -1</clus>
<clus scale="   81.473">  5  6 -1 -1</clus>
<clus scale="   91.986">  7  8 -1 -1</clus>
<clus scale="  203.410">  7 10 -1 -1</clus>
<clus scale="  245.520">  1  5  2 -1</clus>
<clus scale="   56.354">  2  5  1 -1</clus>
</clustering>
</event>
<event>
10    4  0.2759992E-005  0.4482710E+03  0.7546771E-02  0.1045887E+00
          2   -1    0    0  503    0 -0.00000000000E+00  0.00000000000E+00  0.44575513528E+03  0.44575513528E+03  0.00000000000E+00 0. -1.
         21   -1    0    0  501  502  0.00000000000E+00 -0.00000000000E+00 -0.39087600433E+03  0.39087600433E+03  0.00000000000E+00 0. -1.
         24    2    1    2    0    0  0.17754780189E+03 -0.20062016320E+03  0.89298066953E+02  0.29361084594E+03  0.80383532237E+02 0.  0.
         23    2    1    2    0    0  0.10912876564E+03  0.47035251678E+02  0.31417468829E+02  0.15386297641E+03  0.92549207294E+02 0.  0.
        -11    1    3    3    0    0  0.55168736216E+02 -0.27970296439E+02  0.47283733456E+02  0.77856781260E+02  0.00000000000E+00 0.  1.
         12    1    3    3    0    0  0.12237906567E+03 -0.17264986676E+03  0.42014333497E+02  0.21575406468E+03  0.00000000000E+00 0. -1.
        -13    1    4    4    0    0 -0.13530547641E+01  0.25148436845E+02  0.32640893139E+02  0.41227448840E+02  0.00000000000E+00 0.  1.
         13    1    4    4    0    0  0.11048182040E+03  0.21886814832E+02 -0.12234243101E+01  0.11263552757E+03  0.00000000000E+00 0. -1.
         21    1    1    2  503  502 -0.38291142704E+02  0.15328825211E+02 -0.94830082071E+02  0.10341145467E+03  0.00000000000E+00 0. -1.
          1    1    1    2  501    0 -0.24838542483E+03  0.13825608631E+03  0.28993677238E+02  0.28574586259E+03  0.00000000000E+00 0. -1.
<scales pt_clust_5="13000.00000" pt_clust_6="13000.00000" pt_clust_7="13000.00000" pt_clust_8="13000.00000" pt_clust_9="41.24542" pt_clust_10="13000.00000"></scales>
<clustering>
<clus scale="   41.245">  2  9  1 -1</clus>
<clus scale="   80.384">  5  6 -1 -1</clus>
<clus scale="   92.549">  7  8 -1 -1</clus>
<clus scale="  267.446">  1  5  2 -1</clus>
<clus scale="  156.313">  7 10 -1 -1</clus>
<clus scale="   41.245">  2  5  1 -1</clus>
</clustering>
</event>
<event>
10    4  0.2759992E-005  0.5436058E+03  0.7546771E-02  0.1033522E+00
         21   -1    0    0  503  502  0.00000000000E+00  0.00000000000E+00  0.11118806545E+04  0.11118806545E+04  0.00000000000E+00 0.  1.
         -1   -1    0    0    0  501 -0.00000000000E+00 -0.00000000000E+00 -0.14416925500E+03  0.14416925500E+03  0.00000000000E+00 0.  1.
         24    2    1    2    0    0 -0.77727745973E+02  0.17817709421E+03  0.25554502134E+03  0.33118520418E+03  0.81189298210E+02 0.  0.
         23    2    1    2    0    0  0.22118940596E+03 -0.12649311796E+03  0.62163065789E+03  0.67795744148E+03  0.90974476836E+02 0.  0.
        -11    1    3    3    0    0 -0.33518544097E+02  0.15824389382E+03  0.20510571261E+03  0.26121442548E+03  0.00000000000E+00 0.  1.
         12    1    3    3    0    0 -0.44209201876E+02  0.19933200390E+02  0.50439308725E+02  0.69970778707E+02  0.00000000000E+00 0. -1.
        -11    1    4    4    0    0  0.16390388772E+03 -0.45061089877E+02  0.41966299766E+03  0.45278252819E+03  0.00000000000E+00 0. -1.
         11    1    4    4    0    0  0.57285518240E+02 -0.81432028082E+02  0.20196766023E+03  0.22517491329E+03  0.00000000000E+00 0.  1.
         21    1    1    2  503  501 -0.18395877598E+02  0.91724857591E+01  0.10507173001E+03  0.10706358510E+03  0.00000000000E+00 0.  1.
         -2    1    1    2    0  502 -0.12506578239E+03 -0.60856462013E+02 -0.14536009764E+02  0.13984367870E+03  0.00000000000E+00 0.  1.
<scales pt_clust_5="13000.00000" pt_clust_6="13000.00000" pt_clust_7="13000.00000" pt_clust_8="13000.00000" pt_clust_9="20.55585" pt_clust_10="13000.00000"></scales>
<clustering>
<clus scale="   20.556">  1  9  2 -1</clus>
<clus scale="   81.189">  5  6 -1 -1</clus>
<clus scale="   90.974">  7  8 -1 -1</clus>
<clus scale="  139.870">  7 10 -1 -1</clus>
<clus scale="  214.951">  2  5  1 -1</clus>
<clus scale="   20.556">  1  5  2 -1</clus>
</clustering>
</event>
<event>
10    4  0.2759992E-005  0.2521260E+03  0.7546771E-02  0.1151864E+00
          2   -1    0    0  503    0 -0.00000000000E+00  0.00000000000E+00  0.12692863428E+04  0.12692863428E+04  0.00000000000E+00 0. -1.
         21   -1    0    0  501  502  0.00000000000E+00 -0.00000000000E+00 -0.31350558598E+02  0.31350558598E+02  0.00000000000E+00 0. -1.
         24    2    1    2    0    0 -0.49909237000E+02  0.31946165169E+02  0.15882535337E+03  0.18783563662E+03  0.80902682925E+02 0.  0.
         23    2    1    2    0    0  0.80552803306E+02  0.66917815451E+02  0.44949153503E+03  0.47059023798E+03  0.91900945980E+02 0.  0.
        -11    1    3    3    0    0  0.18769920023E+02  0.10915976287E+02  0.71723746027E+02  0.74938402572E+02  0.00000000000E+00 0.  1.
         12    1    3    3    0    0 -0.68679157023E+02  0.21030188881E+02  0.87101607339E+02  0.11289723404E+03  0.00000000000E+00 0. -1.
        -11    1    4    4    0    0  0.23127131007E+02 -0.17270884760E+02  0.45024227194E+02  0.53482040756E+02  0.00000000000E+00 0.  1.
         11    1    4    4    0    0  0.57425672299E+02  0.84188700211E+02  0.40446730784E+03  0.41710819723E+03  0.00000000000E+00 0. -1.
         21    1    1    2  503  502  0.19996323877E+02 -0.61732091871E+01  0.10309039088E+03  0.10519310896E+03  0.00000000000E+00 0.  1.
          1    1    1    2  501    0 -0.50639890182E+02 -0.92690771433E+02  0.52652850491E+03  0.53701791783E+03  0.00000000000E+00 0. -1.
<scales pt_clust_5="13000.00000" pt_clust_6="13000.00000" pt_clust_7="13000.00000" pt_clust_8="13000.00000" pt_clust_9="20.92754" pt_clust_10="13000.00000"></scales>
<clustering>
<clus scale="   20.928">  2  9  1 -1</clus>
<clus scale="   80.903">  5  6 -1 -1</clus>
<clus scale="   91.901">  7  8 -1 -1</clus>
<clus scale="   94.935">  1  5  2 -1</clus>
<clus scale="  104.064">  7 10 -1 -1</clus>
<clus scale="   20.928">  2  5  1 -1</clus>
</clustering>
</event>
<event>
10    4  0.2759992E-005  0.4356390E+03  0.7546771E-02  0.1073903E+00
         21   -1    0    0  503  502  0.00000000000E+00  0.00000000000E+00  0.10315128609E+03  0.10315128609E+03  0.00000000000E+00 0. -1.
          2   -1    0    0  502    0 -0.00000000000E+00 -0.00000000000E+00 -0.26281101573E+04  0.26281101573E+04  0.00000000000E+00 0. -1.
         24    2    1    2    0    0 -0.38957798202E+02 -0.93701840583E+02 -0.17427216587E+04  0.17477243720E+04  0.84640154696E+02 0.  0.
         23    2    1    2    0    0 -0.14396656843E+03 -0.60062442844E+02 -0.25731702959E+03  0.31224341179E+03  0.83366807681E+02 0.  0.
        -11    1    3    3    0    0 -0.29687598076E+02 -0.68472188404E+01 -0.17974045132E+03  0.18230432723E+03  0.00000000000E+00 0.  1.
         12    1    3    3    0    0 -0.92702001260E+01 -0.86854621743E+02 -0.15629812074E+04  0.15654200448E+04  0.00000000000E+00 0. -1.
        -13    1    4    4    0    0 -0.14848716764E+02 -0.26705547921E+02 -0.10709324498E+03  0.11136711274E+03  0.00000000000E+00 0.  1.
         13    1    4    4    0    0 -0.12911785166E+03 -0.33356894923E+02 -0.15022378460E+03  0.20087629904E+03  0.00000000000E+00 0. -1.
         21    1    1    2  503  501 -0.19127063230E+01 -0.27257195809E+02  0.40867642154E+02  0.49160729694E+02  0.00000000000E+00 0. -1.
          1    1    1    2  501    0  0.18483707295E+03  0.18102147924E+03 -0.56578782504E+03  0.62213292989E+03  0.00000000000E+00 0. -1.
<scales pt_clust_5="13000.00000" pt_clust_6="13000.00000" pt_clust_7="13000.00000" pt_clust_8="13000.00000" pt_clust_9="27.32422" pt_clust_10="13000.00000"></scales>
<clustering>
<clus scale="   27.324">  1  9  2 -1</clus>
<clus scale="   83.367">  7  8 -1 -1</clus>
<clus scale="   84.640">  5  6 -1 -1</clus>
<clus scale="  133.001">  2  5  1 -1</clus>
<clus scale="  191.430">  7 10 -1 -1</clus>
<clus scale="   27.324">  1  5  2 -1</clus>
</clustering>
</event>
<event>
10    4  0.2759992E-005  0.2676169E+03  0.7546771E-02  0.1146964E+00
         21   -1    0    0  503  502  0.00000000000E+00  0.00000000000E+00  0.15402017822E+03  0.15402017822E+03  0.00000000000E+00 0.  1.
         -1   -1    0    0    0  501 -0.00000000000E+00 -0.00000000000E+00 -0.34692941827E+03  0.34692941827E+03  0.00000000000E+00 0.  1.
         24    2    1    2    0    0 -0.22148475310E+02 -0.44722163669E+02 -0.30863010387E+02  0.98702630471E+02  0.79366598579E+02 0.  0.
         23    2    1    2    0    0 -0.29742174543E+02  0.13397200661E+03 -0.12378004586E+03  0.20614562986E+03  0.91331404542E+02 0.  0.
        -13    1    3    3    0    0 -0.48595768800E+02 -0.28564819675E+02 -0.20821348689E+01  0.56407738422E+02  0.00000000000E+00 0.  1.
         14    1    3    3    0    0  0.26447293490E+02 -0.16157343994E+02 -0.28780875518E+02  0.42294892049E+02  0.00000000000E+00 0. -1.
        -13    1    4    4    0    0  0.48347481984E+01  0.12484023708E+03 -0.75194370828E+02  0.14581719030E+03  0.00000000000E+00 0.  1.
         13    1    4    4    0    0 -0.34576922741E+02  0.91317695305E+01 -0.48585675027E+02  0.60328439553E+02  0.00000000000E+00 0. -1.
         21    1    1    2  503  501  0.47448253095E+02  0.13342968531E+02  0.42794038485E+02  0.65274047376E+02  0.00000000000E+00 0.  1.
         -2    1    1    2    0  502  0.44423967580E+01 -0.10259281147E+03 -0.81060222295E+02  0.13082728879E+03  0.00000000000E+00 0.  1.
<scales pt_clust_5="13000.00000" pt_clust_6="13000.00000" pt_clust_7="13000.00000" pt_clust_8="13000.00000" pt_clust_9="49.28866" pt_clust_10="13000.00000"></scales>
<clustering>
<clus scale="   49.289">  1  9  2 -1</clus>
<clus scale="   79.367">  5  6 -1 -1</clus>
<clus scale="   89.171">  2  5  1 -1</clus>
<clus scale="   91.331">  7  8 -1 -1</clus>
<clus scale="  115.397">  7 10 -1 -1</clus>
<clus scale="   49.289">  1  5  2 -1</clus>
</clustering>
</event>
<event>
10    4  0.2759992E-005  0.2298037E+03  0.7546771E-02  0.1168275E+00
         21   -1    0    0  501  502  0.00000000000E+00  0.00000000000E+00  0.59207941559E+03  0.59207941559E+03  0.00000000000E+00 0.  1.
          4   -1    0    0  503    0 -0.00000000000E+00 -0.00000000000E+00 -0.71467302751E+02  0.71467302751E+02  0.00000000000E+00 0. -1.
         24    2    1    2    0    0 -0.17574730982E+02  0.17643230026E+02  0.16786440592E+03  0.18952016737E+03  0.84375827881E+02 0.  0.
         23    2    1    2    0    0  0.24051779884E+02  0.78250678201E+02  0.15144094315E+03  0.19317836630E+03  0.87646250278E+02 0.  0.
        -11    1    3    3    0    0  0.10494277646E+02  0.46471917431E+02  0.95391596446E+02  0.10662703994E+03  0.00000000000E+00 0.  1.
         12    1    3    3    0    0 -0.28069008629E+02 -0.28828687405E+02  0.72472809478E+02  0.82893127438E+02  0.00000000000E+00 0. -1.
        -13    1    4    4    0    0  0.51869015847E+02  0.57982795912E+02  0.69567898780E+02  0.10436518561E+03  0.00000000000E+00 0. -1.
         13    1    4    4    0    0 -0.27817235963E+02  0.20267882289E+02  0.81873044370E+02  0.88813180686E+02  0.00000000000E+00 0.  1.
         21    1    1    2  503  502  0.19996567214E+02 -0.14036888287E+02  0.19286185641E+03  0.19440317022E+03  0.00000000000E+00 0. -1.
          3    1    1    2  501    0 -0.26473616116E+02 -0.81857019939E+02  0.84449073560E+01  0.86445014454E+02  0.00000000000E+00 0. -1.
<scales pt_clust_5="13000.00000" pt_clust_6="13000.00000" pt_clust_7="13000.00000" pt_clust_8="13000.00000" pt_clust_9="24.43147" pt_clust_10="13000.00000"></scales>
<clustering>
<clus scale="   24.431">  1  9  2 -1</clus>
<clus scale="   84.376">  5  6 -1 -1</clus>
<clus scale="   85.570">  2  5  1 -1</clus>
<clus scale="   87.646">  7  8 -1 -1</clus>
<clus scale="   81.675">  7 10 -1 -1</clus>
<clus scale="   24.431">  1  5  2 -1</clus>
</clustering>
</event>
<event>
10    4  0.2759992E-005  0.2301994E+03  0.7546771E-02  0.1152834E+00
          2   -1    0    0  503    0 -0.00000000000E+00  0.00000000000E+00  0.58021763442E+03  0.58021763442E+03  0.00000000000E+00 0. -1.
         21   -1    0    0  501  502  0.00000000000E+00 -0.00000000000E+00 -0.68621514237E+02  0.68621514237E+02  0.00000000000E+00 0.  1.
         24    2    1    2    0    0 -0.78092123014E+02 -0.12771773427E+02  0.14062751598E+03  0.18058311571E+03  0.81071977630E+02 0.  0.
         23    2    1    2    0    0 -0.28585100730E+02 -0.24605667060E+02  0.81381988390E+02  0.11801982403E+03  0.76701394991E+02 0.  0.
        -13    1    3    3    0    0 -0.42935532023E+02 -0.29457388412E+02  0.23437805438E+02  0.57101036470E+02  0.00000000000E+00 0.  1.
         14    1    3    3    0    0 -0.35156590990E+02  0.16685614986E+02  0.11718971054E+03  0.12348207924E+03  0.00000000000E+00 0. -1.
        -11    1    4    4    0    0 -0.13444711953E+02 -0.39820845789E+02  0.96196293303E+01  0.43116091048E+02  0.00000000000E+00 0. -1.
         11    1    4    4    0    0 -0.15140388778E+02  0.15215178729E+02  0.71762359060E+02  0.74903732978E+02  0.00000000000E+00 0.  1.
         21    1    1    2  503  502 -0.33660306690E+02 -0.13889815041E+01  0.10216057823E+02  0.35203882649E+02  0.00000000000E+00 0.  1.
          1    1    1    2  501    0  0.14033753043E+03  0.38766421991E+02  0.27937055799E+03  0.31503232627E+03  0.00000000000E+00 0. -1.
<scales pt_clust_5="13000.00000" pt_clust_6="13000.00000" pt_clust_7="13000.00000" pt_clust_8="13000.00000" pt_clust_9="33.68895" pt_clust_10="13000.00000"></scales>
<clustering>
<clus scale="   33.689">  2  9  1 -1</clus>
<clus scale="   76.701">  7  8 -1 -1</clus>
<clus scale="   81.072">  5  6 -1 -1</clus>
<clus scale="  121.909">  1  5  2 -1</clus>
<clus scale="   74.533">  7 10 -1 -1</clus>
<clus scale="   33.689">  2  5  1 -1</clus>
</clustering>
</event>
<event>
10    4  0.2759992E-005  0.3677226E+03  0.7546771E-02  0.1107420E+00
         -1   -1    0    0    0  501 -0.00000000000E+00  0.00000000000E+00  0.36641123099E+03  0.36641123099E+03  0.00000000000E+00 0.  1.
         21   -1    0    0  501  502  0.00000000000E+00 -0.00000000000E+00 -0.17412837010E+03  0.17412837010E+03  0.00000000000E+00 0.  1.
         24    2    1    2    0    0 -0.24162699441E+02 -0.37029654165E+02  0.83957851497E+02  0.12454282163E+03  0.80665744029E+02 0.  0.
         23    2    1    2    0    0 -0.79124467341E+02 -0.11587185777E+03 -0.11246981937E+02  0.16705659289E+03  0.89969116208E+02 0.  0.
        -13    1    3    3    0    0  0.28248259448E+02 -0.19259829095E+02  0.18667202574E+02  0.38953428997E+02  0.00000000000E+00 0.  1.
         14    1    3    3    0    0 -0.52410958889E+02 -0.17769825070E+02  0.65290648923E+02  0.85589392634E+02  0.00000000000E+00 0. -1.
        -13    1    4    4    0    0 -0.19851947824E+02 -0.33523294468E+02 -0.45562577725E+02  0.59948808106E+02  0.00000000000E+00 0.  1.
         13    1    4    4    0    0 -0.59272519517E+02 -0.82348563301E+02  0.34315595787E+02  0.10710778479E+03  0.00000000000E+00 0. -1.
         21    1    1    2  503  502  0.21031843530E+02  0.60578504230E+00 -0.18116986448E+02  0.27765637319E+02  0.00000000000E+00 0.  1.
         -2    1    1    2    0  503  0.82255323252E+02  0.15229572689E+03  0.13768897778E+03  0.22117454925E+03  0.00000000000E+00 0.  1.
<scales pt_clust_5="13000.00000" pt_clust_6="13000.00000" pt_clust_7="13000.00000" pt_clust_8="13000.00000" pt_clust_9="21.04057" pt_clust_10="13000.00000"></scales>
<clustering>
<clus scale="   21.041">  2  9  1 -1</clus>
<clus scale="   80.666">  5  6 -1 -1</clus>
<clus scale="   89.969">  7  8 -1 -1</clus>
<clus scale="   91.255">  1  5  2 -1</clus>
<clus scale="  145.777">  7 10 -1 -1</clus>
<clus scale="   21.041">  2  5  1 -1</clus>
</clustering>
</event>
<event>
10    4  0.2759992E-005  0.1454937E+03  0.7546771E-02  0.1224454E+00
          2   -1    0    0  502    0 -0.00000000000E+00  0.00000000000E+00  0.43256278169E+03  0.43256278169E+03  0.00000000000E+00 0. -1.
         21   -1    0    0  503  502  0.00000000000E+00 -0.00000000000E+00 -0.66165259934E+02  0.66165259934E+02  0.00000000000E+00 0.  1.
         24    2    1    2    0    0  0.43089840321E+02 -0.82200492512E+02  0.13968894140E+03  0.18615073931E+03  0.80780208510E+02 0.  0.
         23    2    1    2    0    0 -0.28995955489E+02 -0.26300383315E+02  0.10699469525E+03  0.14520675362E+03  0.90025890095E+02 0.  0.
        -13    1    3    3    0    0 -0.23268825849E+02 -0.32560844642E+02  0.49852237567E+02  0.63928807674E+02  0.00000000000E+00 0.  1.
         14    1    3    3    0    0  0.66358666170E+02 -0.49639647870E+02  0.89836703837E+02  0.12222193164E+03  0.00000000000E+00 0. -1.
        -13    1    4    4    0    0 -0.41484146701E+02  0.15326228110E+02  0.86515955309E+02  0.97163975931E+02  0.00000000000E+00 0.  1.
         13    1    4    4    0    0  0.12488191212E+02 -0.41626611424E+02  0.20478739942E+02  0.48042777689E+02  0.00000000000E+00 0. -1.
         21    1    1    2  503  501 -0.28129448533E+02  0.74952778696E+02  0.89594363580E+02  0.12015130001E+03  0.00000000000E+00 0.  1.
          1    1    1    2  501    0  0.14035563701E+02  0.33548097130E+02  0.30119521517E+02  0.47219248680E+02  0.00000000000E+00 0. -1.
<scales pt_clust_5="13000.00000" pt_clust_6="13000.00000" pt_clust_7="13000.00000" pt_clust_8="13000.00000" pt_clust_9="80.05743" pt_clust_10="13000.00000"></scales>
<clustering>
<clus scale="   80.057">  2  9  1 -1</clus>
<clus scale="   80.780">  5  6 -1 -1</clus>
<clus scale="   90.026">  7  8 -1 -1</clus>
<clus scale="   47.071">  7 10 -1 -1</clus>
<clus scale="   98.705">  1  5  2 -1</clus>
<clus scale="   80.057">  2  5  1 -1</clus>
</clustering>
</event>
<event>
10    4  0.2759992E-005  0.2346525E+03  0.7546771E-02  0.1169561E+00
         -1   -1    0    0    0  501 -0.00000000000E+00  0.00000000000E+00  0.11315167595E+04  0.11315167595E+04  0.00000000000E+00 0.  1.
         21   -1    0    0  501  502  0.00000000000E+00 -0.00000000000E+00 -0.35721631540E+02  0.35721631540E+02  0.00000000000E+00 0.  1.
         24    2    1    2    0    0  0.41938132889E+01  0.14087031579E+02  0.45905193737E+03  0.46573740680E+03  0.77243888820E+02 0.  0.
         23    2    1    2    0    0  0.24353812894E+02  0.66378565480E+02  0.15199767854E+03  0.19146831106E+03  0.92507284580E+02 0.  0.
        -11    1    3    3    0    0 -0.25304302882E+02 -0.20915892401E+02  0.19757805727E+03  0.20028697166E+03  0.00000000000E+00 0.  1.
         12    1    3    3    0    0  0.29498116170E+02  0.35002923980E+02  0.26147388010E+03  0.26545043515E+03  0.00000000000E+00 0. -1.
        -11    1    4    4    0    0  0.59795409600E+02  0.40663992853E+02  0.10159008375E+03  0.12469802100E+03  0.00000000000E+00 0.  1.
         11    1    4    4    0    0 -0.35441596706E+02  0.25714572627E+02  0.50407594784E+02  0.66770290057E+02  0.00000000000E+00 0. -1.
         21    1    1    2  503  502 -0.24537988951E+02 -0.22450277209E+02  0.14630150191E+02  0.36334131930E+02  0.00000000000E+00 0.  1.
         -2    1    1    2    0  503 -0.40096372317E+01 -0.58015319849E+02  0.47011536188E+03  0.47369854128E+03  0.00000000000E+00 0.  1.
<scales pt_clust_5="13000.00000" pt_clust_6="13000.00000" pt_clust_7="13000.00000" pt_clust_8="13000.00000" pt_clust_9="33.25850" pt_clust_10="13000.00000"></scales>
<clustering>
<clus scale="   33.259">  2  9  1 -1</clus>
<clus scale="   77.244">  5  6 -1 -1</clus>
<clus scale="   78.038">  1  5  2 -1</clus>
<clus scale="   92.507">  7  8 -1 -1</clus>
<clus scale="   51.592">  7 10 -1 -1</clus>
<clus scale="   33.259">  2  5  1 -1</clus>
</clustering>
</event>
<event>
10    4  0.2759992E-005  0.1950723E+03  0.7546771E-02  0.1185087E+00
         21   -1    0    0  501  502  0.00000000000E+00  0.00000000000E+00  0.42893521269E+03  0.42893521269E+03  0.00000000000E+00 0.  1.
         -1   -1    0    0    0  501 -0.00000000000E+00 -0.00000000000E+00 -0.28966372097E+03  0.28966372097E+03  0.00000000000E+00 0.  1.
         24    2    1    2    0    0  0.18497295029E+03 -0.56014636582E+02  0.12890830636E+03  0.24668572411E+03  0.82969049537E+02 0.  0.
         23    2    1    2    0    0  0.36894488212E+02 -0.44791287740E+02 -0.11215881659E+03  0.15480620505E+03  0.89542717550E+02 0.  0.
        -11    1    3    3    0    0  0.19250461675E+03 -0.57197729496E+02  0.11663011732E+03  0.23223305534E+03  0.00000000000E+00 0.  1.
         12    1    3    3    0    0 -0.75316664547E+01  0.11830929137E+01  0.12278189040E+02  0.14452668769E+02  0.00000000000E+00 0. -1.
        -11    1    4    4    0    0  0.61472248479E+02 -0.35789708054E+02 -0.48823697251E+02  0.86275685734E+02  0.00000000000E+00 0.  1.
         11    1    4    4    0    0 -0.24577760267E+02 -0.90015796861E+01 -0.63335119335E+02  0.68530519316E+02  0.00000000000E+00 0. -1.
         21    1    1    2  503  502 -0.18478236447E+03  0.35220167976E+02  0.14607636066E+03  0.23816650813E+03  0.00000000000E+00 0.  1.
         -2    1    1    2    0  503 -0.37085074034E+02  0.65585756346E+02 -0.23554358716E+02  0.78940496363E+02  0.00000000000E+00 0.  1.
<scales pt_clust_5="13000.00000" pt_clust_6="13000.00000" pt_clust_7="13000.00000" pt_clust_8="13000.00000" pt_clust_9="188.10896" pt_clust_10="13000.00000"></scales>
<clustering>
<clus scale="   82.969">  5  6 -1 -1</clus>
<clus scale="   89.543">  7  8 -1 -1</clus>
<clus scale="   75.345">  7 10 -1 -1</clus>
<clus scale="  188.109">  1  9  2 -1</clus>
<clus scale="   95.656">  2  5  1 -1</clus>
<clus scale="  188.109">  1  5  2 -1</clus>
</clustering>
</event>
<event>
10    4  0.2759992E-005  0.4981992E+03  0.7546771E-02  0.1048584E+00
          2   -1    0    0  502    0 -0.00000000000E+00  0.00000000000E+00  0.11941603261E+04  0.11941603261E+04  0.00000000000E+00 0. -1.
         21   -1    0    0  503  502  0.00000000000E+00 -0.00000000000E+00 -0.24445401824E+03  0.24445401824E+03  0.00000000000E+00 0. -1.
         24    2    1    2    0    0 -0.16372524556E+03  0.21532802858E+02  0.72706634189E+03  0.75059696205E+03  0.86606675850E+02 0.  0.
         23    2    1    2    0    0 -0.13526925405E+03 -0.70744566015E+02 -0.21873322703E+02  0.17900249729E+03  0.90889422255E+02 0.  0.
        -13    1    3    3    0    0 -0.34307304538E+02  0.30487863574E+02  0.96949248747E+02  0.10726442934E+03  0.00000000000E+00 0.  1.
         14    1    3    3    0    0 -0.12941794102E+03 -0.89550607159E+01  0.63011709314E+03  0.64333253270E+03  0.00000000000E+00 0. -1.
        -11    1    4    4    0    0 -0.24833092649E+02 -0.27373311356E+02 -0.44885841045E+02  0.58143954040E+02  0.00000000000E+00 0.  1.
         11    1    4    4    0    0 -0.11043616140E+03 -0.43371254659E+02  0.23012518342E+02  0.12085854325E+03  0.00000000000E+00 0. -1.
         21    1    1    2  503  501  0.92446668055E+02 -0.12915740109E+03  0.29421382352E+02  0.16153525445E+03  0.00000000000E+00 0. -1.
          1    1    1    2  501    0  0.20654783155E+03  0.17836916425E+03  0.21509190628E+03  0.34747963051E+03  0.00000000000E+00 0. -1.
<scales pt_clust_5="13000.00000" pt_clust_6="13000.00000" pt_clust_7="13000.00000" pt_clust_8="13000.00000" pt_clust_9="158.83331" pt_clust_10="13000.00000"></scales>
<clustering>
<clus scale="   86.607">  5  6 -1 -1</clus>
<clus scale="   90.889">  7  8 -1 -1</clus>
<clus scale="  158.833">  2  9  1 -1</clus>
<clus scale="  180.324">  1  5  2 -1</clus>
<clus scale="  197.092">  7 10 -1 -1</clus>
<clus scale="  158.833">  2  5  1 -1</clus>
</clustering>
</event>
<event>
10    4  0.2759992E-005  0.2383127E+03  0.7546771E-02  0.1124367E+00
         21   -1    0    0  503  502  0.00000000000E+00  0.00000000000E+00  0.89379258966E+02  0.89379258966E+02  0.00000000000E+00 0. -1.
          2   -1    0    0  502    0 -0.00000000000E+00 -0.00000000000E+00 -0.96128488224E+03  0.96128488224E+03  0.00000000000E+00 0. -1.
         24    2    1    2    0    0 -0.95148612491E+02  0.16993559332E+03 -0.19918457275E+03  0.29008388467E+03  0.80887587342E+02 0.  0.
         23    2    1    2    0    0  0.74675584023E+02 -0.10594087195E+03 -0.44694332397E+03  0.47415383887E+03  0.90904438180E+02 0.  0.
        -13    1    3    3    0    0 -0.34554927882E+02  0.26037531441E+02 -0.89077904842E+02  0.99029638066E+02  0.00000000000E+00 0.  1.
         14    1    3    3    0    0 -0.60593684609E+02  0.14389806187E+03 -0.11010666791E+03  0.19105424660E+03  0.00000000000E+00 0. -1.
        -13    1    4    4    0    0  0.80501578951E+02 -0.37248635188E+02 -0.22956323364E+03  0.24610413096E+03  0.00000000000E+00 0. -1.
         13    1    4    4    0    0 -0.58259949280E+01 -0.68692236759E+02 -0.21738009032E+03  0.22804970791E+03  0.00000000000E+00 0.  1.
         21    1    1    2  503  501  0.91672757914E+01  0.18647334886E+02  0.18796805668E+02  0.28019313823E+02  0.00000000000E+00 0.  1.
          1    1    1    2  501    0  0.11305752677E+02 -0.82642056255E+02 -0.24457453223E+03  0.25840710385E+03  0.00000000000E+00 0. -1.
<scales pt_clust_5="13000.00000" pt_clust_6="13000.00000" pt_clust_7="13000.00000" pt_clust_8="13000.00000" pt_clust_9="20.77888" pt_clust_10="13000.00000"></scales>
<clustering>
<clus scale="   20.779">  1  9  2 -1</clus>
<clus scale="   80.888">  5  6 -1 -1</clus>
<clus scale="   90.904">  7  8 -1 -1</clus>
<clus scale="   81.614">  7 10 -1 -1</clus>
<clus scale="  218.732">  2  5  1 -1</clus>
<clus scale="   20.779">  1  5  2 -1</clus>
</clustering>
</event>
<event>
10    4  0.2759992E-005  0.2825776E+03  0.7546771E-02  0.1135673E+00
          2   -1    0    0  503    0 -0.00000000000E+00  0.00000000000E+00  0.12002229151E+03  0.12002229151E+03  0.00000000000E+00 0. -1.
         21   -1    0    0  501  502  0.00000000000E+00 -0.00000000000E+00 -0.57607937869E+03  0.57607937869E+03  0.00000000000E+00 0. -1.
         24    2    1    2    0    0 -0.32122967943E+02  0.51773010862E+02 -0.35357469499E+03  0.36783619607E+03  0.81092986613E+02 0.  0.
         23    2    1    2    0    0  0.67409028713E+01  0.23719565467E+02 -0.15848958336E+03  0.18406504240E+03  0.90293600231E+02 0.  0.
        -13    1    3    3    0    0 -0.17808517973E+02 -0.20836558493E+02 -0.98364623753E+02  0.10211221616E+03  0.00000000000E+00 0.  1.
         14    1    3    3    0    0 -0.14314449971E+02  0.72609569355E+02 -0.25521007124E+03  0.26572397991E+03  0.00000000000E+00 0. -1.
        -11    1    4    4    0    0 -0.27535765462E+02  0.42961582952E+02 -0.11272130817E+03  0.12373362237E+03  0.00000000000E+00 0.  1.
         11    1    4    4    0    0  0.34276668334E+02 -0.19242017486E+02 -0.45768275191E+02  0.60331420031E+02  0.00000000000E+00 0. -1.
         21    1    1    2  503  502  0.27002650833E+02  0.58840314979E+01 -0.18983379884E+02  0.33528102996E+02  0.00000000000E+00 0.  1.
          1    1    1    2  501    0 -0.16205857607E+01 -0.81376607827E+02  0.74990571054E+02  0.11067232873E+03  0.00000000000E+00 0. -1.
<scales pt_clust_5="13000.00000" pt_clust_6="13000.00000" pt_clust_7="13000.00000" pt_clust_8="13000.00000" pt_clust_9="27.63631" pt_clust_10="13000.00000"></scales>
<clustering>
<clus scale="   27.636">  2  9  1 -1</clus>
<clus scale="   81.093">  5  6 -1 -1</clus>
<clus scale="   90.294">  7  8 -1 -1</clus>
<clus scale="   81.189">  7 10 -1 -1</clus>
<clus scale="   99.392">  1  5  2 -1</clus>
<clus scale="   27.636">  2  5  1 -1</clus>
</clustering>
</event>
<event>
10    4  0.2759992E-005  0.2277001E+03  0.7546771E-02  0.1146218E+00
          2   -1    0    0  502    0 -0.00000000000E+00  0.00000000000E+00  0.10290685380E+04  0.10290685380E+04  0.00000000000E+00 0. -1.
         21   -1    0    0  503  502  0.00000000000E+00 -0.00000000000E+00 -0.44706120551E+02  0.44706120551E+02  0.00000000000E+00 0. -1.
         24    2    1    2    0    0 -0.83054556528E+02 -0.10116198274E+03  0.58448490728E+03  0.60410078773E+03  0.78634272334E+02 0.  0.
         23    2    1    2    0    0  0.40303216411E+02  0.19428017900E+00  0.79890171652E+02  0.12611299289E+03  0.88868782203E+02 0.  0.
        -13    1    3    3    0    0  0.57258678217E+01 -0.24971600949E+02  0.42432378184E+02  0.49566855202E+02  0.00000000000E+00 0.  1.
         14    1    3    3    0    0 -0.88780424350E+02 -0.76190381792E+02  0.54205252910E+03  0.55453393253E+03  0.00000000000E+00 0. -1.
        -13    1    4    4    0    0 -0.75098641393E+01 -0.27068469862E+02  0.62284706230E+02  0.68326310820E+02  0.00000000000E+00 0.  1.
         13    1    4    4    0    0  0.47813080551E+02  0.27262750041E+02  0.17605465422E+02  0.57786682067E+02  0.00000000000E+00 0. -1.
         21    1    1    2  503  501  0.15154661851E+02  0.19715790012E+02  0.21142541417E+02  0.32640208473E+02  0.00000000000E+00 0. -1.
          1    1    1    2  501    0  0.27596678266E+02  0.81251912551E+02  0.29884479710E+03  0.31092066946E+03  0.00000000000E+00 0. -1.
<scales pt_clust_5="13000.00000" pt_clust_6="13000.00000" pt_clust_7="13000.00000" pt_clust_8="13000.00000" pt_clust_9="24.86717" pt_clust_10="13000.00000"></scales>
<clustering>
<clus scale="   24.867">  2  9  1 -1</clus>
<clus scale="   78.634">  5  6 -1 -1</clus>
<clus scale="   88.869">  7  8 -1 -1</clus>
<clus scale="   89.468">  7 10 -1 -1</clus>
<clus scale="  147.365">  1  5  2 -1</clus>
<clus scale="   24.867">  2  5  1 -1</clus>
</clustering>
</event>
<event>
10    4  0.2759992E-005  0.1952966E+03  0.7546771E-02  0.1190239E+00
         21   -1    0    0  501  502  0.00000000000E+00  0.00000000000E+00  0.18093702073E+03  0.18093702073E+03  0.00000000000E+00 0.  1.
         -3   -1    0    0    0  501 -0.00000000000E+00 -0.00000000000E+00 -0.14462021789E+03  0.14462021789E+03  0.00000000000E+00 0.  1.
         24    2    1    2    0    0 -0.16638480973E+02  0.12966646182E+02  0.45784054484E+01  0.83250686649E+02  0.80403619749E+02 0.  0.
         23    2    1    2    0    0  0.62696444466E+02  0.14465328118E+02 -0.29567144843E+02  0.12561623105E+03  0.10375515207E+03 0.  0.
        -13    1    3    3    0    0 -0.29518629643E+02  0.40774680774E+02  0.11935699204E+02  0.51733789768E+02  0.00000000000E+00 0.  1.
         14    1    3    3    0    0  0.12880148671E+02 -0.27808034592E+02 -0.73572937552E+01  0.31516896882E+02  0.00000000000E+00 0. -1.
        -11    1    4    4    0    0  0.47480242661E+02  0.42446366602E+02 -0.55551662741E+02  0.84510678107E+02  0.00000000000E+00 0.  1.
         11    1    4    4    0    0  0.15216201805E+02 -0.27981038483E+02  0.25984517898E+02  0.41105552938E+02  0.00000000000E+00 0. -1.
         21    1    1    2  503  502 -0.42555164251E+01  0.26040918270E+02  0.35149753067E+02  0.43951609585E+02  0.00000000000E+00 0.  1.
         -4    1    1    2    0  503 -0.41802447068E+02 -0.53472892570E+02  0.26155789173E+02  0.72738711344E+02  0.00000000000E+00 0.  1.
<scales pt_clust_5="13000.00000" pt_clust_6="13000.00000" pt_clust_7="13000.00000" pt_clust_8="13000.00000" pt_clust_9="26.38634" pt_clust_10="13000.00000"></scales>
<clustering>
<clus scale="   26.386">  1  9  2 -1</clus>
<clus scale="   80.404">  5  6 -1 -1</clus>
<clus scale="   85.033">  2  5  1 -1</clus>
<clus scale="  103.755">  7  8 -1 -1</clus>
<clus scale="   61.728">  7 10 -1 -1</clus>
<clus scale="   26.386">  1  5  2 -1</clus>
</clustering>
</event>
<event>
10    4  0.2759992E-005  0.1330458E+03  0.7546771E-02  0.1244427E+00
         21   -1    0    0  503  502  0.00000000000E+00  0.00000000000E+00  0.63388281471E+02  0.63388281471E+02  0.00000000000E+00 0.  1.
          2   -1    0    0  502    0 -0.00000000000E+00 -0.00000000000E+00 -0.60410116423E+03  0.60410116423E+03  0.00000000000E+00 0. -1.
         24    2    1    2    0    0 -0.22253329911E+02  0.54677175471E+01 -0.41066138082E+03  0.41947566934E+03  0.82413353577E+02 0.  0.
         23    2    1    2    0    0  0.13856593379E+02  0.39537350964E+01 -0.64221518904E+02  0.11182485733E+03  0.90403307602E+02 0.  0.
        -11    1    3    3    0    0  0.31332692147E+02  0.35718234988E+01 -0.17175385114E+03  0.17462497216E+03  0.00000000000E+00 0.  1.
         12    1    3    3    0    0 -0.53586022058E+02  0.18958940484E+01 -0.23890752968E+03  0.24485069718E+03  0.00000000000E+00 0. -1.
        -13    1    4    4    0    0  0.21809419469E+02 -0.40703137260E+02 -0.33095562768E+02  0.56812960100E+02  0.00000000000E+00 0.  1.
         13    1    4    4    0    0 -0.79528260894E+01  0.44656872357E+02 -0.31125956137E+02  0.55011897231E+02  0.00000000000E+00 0. -1.
         21    1    1    2  503  501 -0.86567997987E+01 -0.28451151655E+02  0.26840363695E+02  0.40060121525E+02  0.00000000000E+00 0.  1.
          1    1    1    2  501    0  0.17053536330E+02  0.19029699012E+02 -0.92670346732E+02  0.96128797503E+02  0.00000000000E+00 0. -1.
<scales pt_clust_5="13000.00000" pt_clust_6="13000.00000" pt_clust_7="13000.00000" pt_clust_8="13000.00000" pt_clust_9="29.73900" pt_clust_10="13000.00000"></scales>
<clustering>
<clus scale="   29.739">  1  9  2 -1</clus>
<clus scale="   82.413">  5  6 -1 -1</clus>
<clus scale="   85.716">  2  5  1 -1</clus>
<clus scale="   90.403">  7  8 -1 -1</clus>
<clus scale="   18.907">  7 10 -1 -1</clus>
<clus scale="   29.739">  1  5  2 -1</clus>
</clustering>
</event>
<event>
10    4  0.2759992E-005  0.2122052E+03  0.7546771E-02  0.1176880E+00
         21   -1    0    0  503  502  0.00000000000E+00  0.00000000000E+00  0.28120182562E+03  0.28120182562E+03  0.00000000000E+00 0.  1.
          2   -1    0    0  502    0 -0.00000000000E+00 -0.00000000000E+00 -0.15937403419E+03  0.15937403419E+03  0.00000000000E+00 0. -1.
         24    2    1    2    0    0  0.12508835635E+02 -0.12001741850E+01  0.98231512035E+02  0.13083746300E+03  0.85504972845E+02 0.  0.
         23    2    1    2    0    0 -0.10633818535E+02  0.98899820785E+02 -0.11541675917E+02  0.14848572738E+03  0.10963826114E+03 0.  0.
        -13    1    3    3    0    0  0.27973614393E+02 -0.27733418958E+02  0.15051178002E+02  0.42168751328E+02  0.00000000000E+00 0.  1.
         14    1    3    3    0    0 -0.15464778758E+02  0.26533244773E+02  0.83180334034E+02  0.88668711675E+02  0.00000000000E+00 0. -1.
        -13    1    4    4    0    0 -0.45519979097E+02  0.10144288003E+03 -0.18788857003E+02  0.11276412352E+03  0.00000000000E+00 0.  1.
         13    1    4    4    0    0  0.34886160562E+02 -0.25430592421E+01  0.72471810867E+01  0.35721603866E+02  0.00000000000E+00 0. -1.
         21    1    1    2  503  501 -0.43504796338E+01 -0.39138504112E+02  0.78848496943E+02  0.88135320090E+02  0.00000000000E+00 0.  1.
          1    1    1    2  501    0  0.24754625342E+01 -0.58561142487E+02 -0.43710541632E+02  0.73117349336E+02  0.00000000000E+00 0. -1.
<scales pt_clust_5="13000.00000" pt_clust_6="13000.00000" pt_clust_7="13000.00000" pt_clust_8="13000.00000" pt_clust_9="39.37955" pt_clust_10="13000.00000"></scales>
<clustering>
<clus scale="   39.380">  1  9  2 -1</clus>
<clus scale="   85.505">  5  6 -1 -1</clus>
<clus scale="   89.335">  2  5  1 -1</clus>
<clus scale="  109.638">  7  8 -1 -1</clus>
<clus scale="   73.035">  7 10 -1 -1</clus>
<clus scale="   39.380">  1  5  2 -1</clus>
</clustering>
</event>
<event>
10    4  0.2759992E-005  0.1996555E+03  0.7546771E-02  0.1174356E+00
          2   -1    0    0  503    0 -0.00000000000E+00  0.00000000000E+00  0.69530535485E+03  0.69530535485E+03  0.00000000000E+00 0. -1.
         21   -1    0    0  501  502  0.00000000000E+00 -0.00000000000E+00 -0.51737562206E+02  0.51737562206E+02  0.00000000000E+00 0.  1.
         24    2    1    2    0    0 -0.53936889305E+02 -0.43971769014E+02  0.19867117182E+03  0.22420235372E+03  0.77160588394E+02 0.  0.
         23    2    1    2    0    0  0.10029923325E+02  0.86070260907E+02  0.25039564096E+03  0.28052143229E+03  0.92117358770E+02 0.  0.
        -13    1    3    3    0    0 -0.46259855180E+02  0.11650936296E+02  0.87747176766E+02  0.99876351296E+02  0.00000000000E+00 0.  1.
         14    1    3    3    0    0 -0.76770341249E+01 -0.55622705310E+02  0.11092399506E+03  0.12432600242E+03  0.00000000000E+00 0. -1.
        -11    1    4    4    0    0  0.66982660785E+01  0.34554387029E+02  0.12911300063E+02  0.37490986927E+02  0.00000000000E+00 0.  1.
         11    1    4    4    0    0  0.33316572466E+01  0.51515873877E+02  0.23748434089E+03  0.24303044536E+03  0.00000000000E+00 0. -1.
         21    1    1    2  503  502 -0.38228123072E+02 -0.16918485108E+02  0.17013792527E+02  0.45134174060E+02  0.00000000000E+00 0.  1.
          1    1    1    2  501    0  0.82135089052E+02 -0.25180006785E+02  0.17748718734E+03  0.19718495700E+03  0.00000000000E+00 0. -1.
<scales pt_clust_5="13000.00000" pt_clust_6="13000.00000" pt_clust_7="13000.00000" pt_clust_8="13000.00000" pt_clust_9="41.80460" pt_clust_10="13000.00000"></scales>
<clustering>
<clus scale="   41.805">  2  9  1 -1</clus>
<clus scale="   77.161">  5  6 -1 -1</clus>
<clus scale="   92.117">  7  8 -1 -1</clus>
<clus scale="   77.980">  7 10 -1 -1</clus>
<clus scale="  113.571">  1  5  2 -1</clus>
<clus scale="   41.805">  2  5  1 -1</clus>
</clustering>
</event>
<event>
10    4  0.2759992E-005  0.8123535E+03  0.7546771E-02  0.1014452E+00
          2   -1    0    0  503    0 -0.00000000000E+00  0.00000000000E+00  0.23955942264E+04  0.23955942264E+04  0.00000000000E+00 0. -1.
         21   -1    0    0  501  502  0.00000000000E+00 -0.00000000000E+00 -0.10770722391E+03  0.10770722391E+03  0.00000000000E+00 0. -1.
         24    2    1    2    0    0 -0.53467011938E+02 -0.58204113791E+02  0.55665489004E+03  0.56804177687E+03  0.80996008740E+02 0.  0.
         23    2    1    2    0    0 -0.32416983880E+03 -0.94475823045E+02  0.50604577825E+03  0.61568813550E+03  0.94751174075E+02 0.  0.
        -13    1    3    3    0    0 -0.54294697782E+02 -0.12176086469E+02  0.17532100425E+03  0.18393919055E+03  0.00000000000E+00 0.  1.
         14    1    3    3    0    0  0.82768584382E+00 -0.46028027322E+02  0.38133388579E+03  0.38410258632E+03  0.00000000000E+00 0. -1.
        -13    1    4    4    0    0 -0.22376110247E+03 -0.25426220266E+02  0.28454597718E+03  0.36288005840E+03  0.00000000000E+00 0. -1.
         13    1    4    4    0    0 -0.10040873633E+03 -0.69049602778E+02  0.22149980107E+03  0.25280807710E+03  0.00000000000E+00 0.  1.
         21    1    1    2  503  502 -0.41228107619E+02  0.11845115948E+01  0.15495601453E+03  0.16035125931E+03  0.00000000000E+00 0. -1.
          1    1    1    2  501    0  0.41886495836E+03  0.15149542524E+03  0.10702303197E+04  0.11592202787E+04  0.00000000000E+00 0. -1.
<scales pt_clust_5="13000.00000" pt_clust_6="13000.00000" pt_clust_7="13000.00000" pt_clust_8="13000.00000" pt_clust_9="41.24514" pt_clust_10="13000.00000"></scales>
<clustering>
<clus scale="   41.245">  2  9  1 -1</clus>
<clus scale="   80.996">  5  6 -1 -1</clus>
<clus scale="   94.751">  7  8 -1 -1</clus>
<clus scale="  114.207">  1  5  2 -1</clus>
<clus scale="  386.024">  7 10 -1 -1</clus>
<clus scale="   41.245">  2  5  1 -1</clus>
</clustering>
</event>
<event>
10    4  0.2759992E-005  0.3571467E+03  0.7546771E-02  0.1072208E+00
         21   -1    0    0  503  502  0.00000000000E+00  0.00000000000E+00  0.46641938677E+03  0.46641938677E+03  0.00000000000E+00 0. -1.
          2   -1    0    0  502    0 -0.00000000000E+00 -0.00000000000E+00 -0.23012814741E+03  0.23012814741E+03  0.00000000000E+00 0. -1.
         24    2    1    2    0    0 -0.21779117042E+03 -0.57340061080E+02  0.15129428866E+03  0.28641571304E+03  0.91777570110E+02 0.  0.
         23    2    1    2    0    0 -0.77010761530E+01  0.83743431565E+02  0.43086707379E+02  0.13166000173E+03  0.91682183654E+02 0.  0.
        -11    1    3    3    0    0 -0.25323915089E+01 -0.20042910388E+02 -0.80332367748E+00  0.20218224267E+02  0.00000000000E+00 0.  1.
         12    1    3    3    0    0 -0.21525877891E+03 -0.37297150692E+02  0.15209761234E+03  0.26619748877E+03  0.00000000000E+00 0. -1.
        -11    1    4    4    0    0 -0.37977920074E+02  0.31898905461E+01  0.17051931010E+02  0.41752439043E+02  0.00000000000E+00 0. -1.
         11    1    4    4    0    0  0.30276843921E+02  0.80553541019E+02  0.26034776368E+02  0.89907562691E+02  0.00000000000E+00 0.  1.
         21    1    1    2  503  501 -0.11994576052E+02 -0.32125527436E+02  0.20502621973E+02  0.39953433839E+02  0.00000000000E+00 0. -1.
          1    1    1    2  501    0  0.23748682263E+03  0.57221569507E+01  0.21407621339E+02  0.23851838557E+03  0.00000000000E+00 0. -1.
<scales pt_clust_5="13000.00000" pt_clust_6="13000.00000" pt_clust_7="13000.00000" pt_clust_8="13000.00000" pt_clust_9="34.29168" pt_clust_10="13000.00000"></scales>
<clustering>
<clus scale="   34.292">  1  9  2 -1</clus>
<clus scale="   91.682">  7  8 -1 -1</clus>
<clus scale="   91.778">  5  6 -1 -1</clus>
<clus scale="  233.945">  7 10 -1 -1</clus>
<clus scale="  252.804">  2  5  1 -1</clus>
<clus scale="   34.292">  1  5  2 -1</clus>
</clustering>
</event>
<event>
10    4  0.2759992E-005  0.2610838E+03  0.7546771E-02  0.1131908E+00
          2   -1    0    0  503    0 -0.00000000000E+00  0.00000000000E+00  0.45855576263E+03  0.45855576263E+03  0.00000000000E+00 0. -1.
         21   -1    0    0  501  502  0.00000000000E+00 -0.00000000000E+00 -0.19445963739E+03  0.19445963739E+03  0.00000000000E+00 0. -1.
         24    2    1    2    0    0  0.81308983059E+02 -0.10314263201E+03 -0.95289052622E+00  0.15433287541E+03  0.81044279053E+02 0.  0.
         23    2    1    2    0    0  0.37913883361E+02 -0.31163459374E+02  0.10527825430E+03  0.14767529770E+03  0.91191331675E+02 0.  0.
        -13    1    3    3    0    0 -0.15814792045E+02 -0.22893966613E+02 -0.50449223741E+01  0.28278836547E+02  0.00000000000E+00 0.  1.
         14    1    3    3    0    0  0.97123775103E+02 -0.80248665395E+02  0.40920318479E+01  0.12605403886E+03  0.00000000000E+00 0. -1.
        -13    1    4    4    0    0 -0.20256704392E+02  0.16011965174E+02  0.13249276774E+02  0.29021723529E+02  0.00000000000E+00 0.  1.
         13    1    4    4    0    0  0.58170587754E+02 -0.47175424547E+02  0.92028977522E+02  0.11865357418E+03  0.00000000000E+00 0. -1.
         21    1    1    2  503  502 -0.11099764158E+02  0.30321558826E+02 -0.69721569678E+02  0.76835531965E+02  0.00000000000E+00 0. -1.
          1    1    1    2  501    0 -0.10812310226E+03  0.10398453256E+03  0.22949233115E+03  0.27417169495E+03  0.00000000000E+00 0. -1.
<scales pt_clust_5="13000.00000" pt_clust_6="13000.00000" pt_clust_7="13000.00000" pt_clust_8="13000.00000" pt_clust_9="32.28934" pt_clust_10="13000.00000"></scales>
<clustering>
<clus scale="   32.289">  2  9  1 -1</clus>
<clus scale="   81.044">  5  6 -1 -1</clus>
<clus scale="   91.191">  7  8 -1 -1</clus>
<clus scale="  138.136">  1  5  2 -1</clus>
<clus scale="   78.716">  7 10 -1 -1</clus>
<clus scale="   32.289">  2  5  1 -1</clus>
</clustering>
</event>
<event>
10    4  0.2759992E-005  0.8638736E+03  0.7546771E-02  0.9999873E-01
          2   -1    0    0  502    0 -0.00000000000E+00  0.00000000000E+00  0.12227200961E+04  0.12227200961E+04  0.00000000000E+00 0. -1.
         21   -1    0    0  503  502  0.00000000000E+00 -0.00000000000E+00 -0.30397167522E+03  0.30397167522E+03  0.00000000000E+00 0.  1.
         24    2    1    2    0    0  0.11056835501E+03 -0.61650574799E+02  0.36168392178E+03  0.39194007063E+03  0.82314064337E+02 0.  0.
         23    2    1    2    0    0 -0.17615757128E+03  0.11429822754E+03 -0.15845050131E+03  0.28369462040E+03  0.10620970549E+03 0.  0.
        -13    1    3    3    0    0 -0.93213448983E+01 -0.23039942153E+02  0.67311304665E+02  0.71753314494E+02  0.00000000000E+00 0.  1.
         14    1    3    3    0    0  0.11988969990E+03 -0.38610632646E+02  0.29437261712E+03  0.32018675613E+03  0.00000000000E+00 0. -1.
        -13    1    4    4    0    0 -0.14905096812E+03  0.62089896214E+02 -0.66688994729E+02  0.17469621727E+03  0.00000000000E+00 0.  1.
         13    1    4    4    0    0 -0.27106603157E+02  0.52208331324E+02 -0.91761506585E+02  0.10899840313E+03  0.00000000000E+00 0. -1.
         21    1    1    2  503  501  0.80406958698E+00  0.90973176740E+02 -0.24691581716E+02  0.94267914063E+02  0.00000000000E+00 0.  1.
          1    1    1    2  501    0  0.64785146686E+02 -0.14362082948E+03  0.74020658211E+03  0.75678916620E+03  0.00000000000E+00 0. -1.
<scales pt_clust_5="13000.00000" pt_clust_6="13000.00000" pt_clust_7="13000.00000" pt_clust_8="13000.00000" pt_clust_9="90.97673" pt_clust_10="13000.00000"></scales>
<clustering>
<clus scale="   82.314">  5  6 -1 -1</clus>
<clus scale="   90.977">  2  9  1 -1</clus>
<clus scale="  106.210">  7  8 -1 -1</clus>
<clus scale="  148.830">  1  5  2 -1</clus>
<clus scale="  246.322">  7 10 -1 -1</clus>
<clus scale="   90.977">  2  5  1 -1</clus>
</clustering>
</event>
<event>
10    4  0.2759992E-005  0.3938349E+03  0.7546771E-02  0.1093316E+00
         21   -1    0    0  503  502  0.00000000000E+00  0.00000000000E+00  0.21161605809E+03  0.21161605809E+03  0.00000000000E+00 0.  1.
          2   -1    0    0  502    0 -0.00000000000E+00 -0.00000000000E+00 -0.51541096106E+03  0.51541096106E+03  0.00000000000E+00 0. -1.
         24    2    1    2    0    0  0.48327012297E+02  0.24652363137E+02  0.72984898896E+02  0.12204365779E+03  0.81391767477E+02 0.  0.
         23    2    1    2    0    0 -0.14848279834E+03 -0.10967500719E+03 -0.70622666998E+02  0.21724461743E+03  0.90177126255E+02 0.  0.
        -11    1    3    3    0    0  0.39781786693E+02  0.51315994632E+02  0.67217282427E+02  0.93456326241E+02  0.00000000000E+00 0.  1.
         12    1    3    3    0    0  0.85452256040E+01 -0.26663631495E+02  0.57676164696E+01  0.28587331545E+02  0.00000000000E+00 0. -1.
        -11    1    4    4    0    0 -0.10111557385E+03 -0.53418423820E+02 -0.84773680291E+02  0.14235330748E+03  0.00000000000E+00 0.  1.
         11    1    4    4    0    0 -0.47367224489E+02 -0.56256583374E+02  0.14151013293E+02  0.74891309950E+02  0.00000000000E+00 0. -1.
         21    1    1    2  503  501  0.21335735313E+02  0.19427122910E+02  0.26780051620E+02  0.39367472242E+02  0.00000000000E+00 0.  1.
          1    1    1    2  501    0  0.78820050734E+02  0.65595521148E+02 -0.33293718649E+03  0.34837127169E+03  0.00000000000E+00 0. -1.
<scales pt_clust_5="13000.00000" pt_clust_6="13000.00000" pt_clust_7="13000.00000" pt_clust_8="13000.00000" pt_clust_9="28.85527" pt_clust_10="13000.00000"></scales>
<clustering>
<clus scale="   28.855">  1  9  2 -1</clus>
<clus scale="   81.392">  5  6 -1 -1</clus>
<clus scale="   90.177">  7  8 -1 -1</clus>
<clus scale="  103.791">  7 10 -1 -1</clus>
<clus scale="  107.078">  2  5  1 -1</clus>
<clus scale="   28.855">  1  5  2 -1</clus>
</clustering>
</event>
<event>
10    4  0.2759992E-005  0.1684713E+03  0.7546771E-02  0.1200718E+00
         21   -1    0    0  503  502  0.00000000000E+00  0.00000000000E+00  0.14561806560E+03  0.14561806560E+03  0.00000000000E+00 0.  1.
          2   -1    0    0  502    0 -0.00000000000E+00 -0.00000000000E+00 -0.57118917913E+03  0.57118917913E+03  0.00000000000E+00 0. -1.
         24    2    1    2    0    0 -0.74095189864E+01 -0.92781664372E+02 -0.12545772786E+03  0.17598946525E+03  0.81051293529E+02 0.  0.
         23    2    1    2    0    0  0.19785919164E+02 -0.22006946409E+02 -0.17203469960E+03  0.19517003037E+03  0.87290403822E+02 0.  0.
        -13    1    3    3    0    0  0.17028928790E+02 -0.93933867808E+02 -0.80798309280E+02  0.12506767256E+03  0.00000000000E+00 0.  1.
         14    1    3    3    0    0 -0.24438447777E+02  0.11522034366E+01 -0.44659418579E+02  0.50921792685E+02  0.00000000000E+00 0. -1.
        -13    1    4    4    0    0 -0.77196844443E+01  0.31242028521E+02 -0.63362065973E+02  0.71066231632E+02  0.00000000000E+00 0.  1.
         13    1    4    4    0    0  0.27505603608E+02 -0.53248974930E+02 -0.10867263363E+03  0.12410379873E+03  0.00000000000E+00 0. -1.
         21    1    1    2  503  501 -0.30465647107E+02  0.50685318871E+02  0.95517278710E+02  0.11234192332E+03  0.00000000000E+00 0.  1.
          1    1    1    2  501    0  0.18089246930E+02  0.64103291910E+02 -0.22359596478E+03  0.23330582580E+03  0.00000000000E+00 0. -1.
<scales pt_clust_5="13000.00000" pt_clust_6="13000.00000" pt_clust_7="13000.00000" pt_clust_8="13000.00000" pt_clust_9="59.13677" pt_clust_10="13000.00000"></scales>
<clustering>
<clus scale="   59.137">  1  9  2 -1</clus>
<clus scale="   81.051">  5  6 -1 -1</clus>
<clus scale="   87.290">  7  8 -1 -1</clus>
<clus scale="   71.500">  7 10 -1 -1</clus>
<clus scale="  105.312">  2  5  1 -1</clus>
<clus scale="   59.137">  1  5  2 -1</clus>
</clustering>
</event>
<event>
10    4  0.2759992E-005  0.2517262E+03  0.7546771E-02  0.1157400E+00
         -1   -1    0    0    0  501 -0.00000000000E+00  0.00000000000E+00  0.67273547654E+03  0.67273547654E+03  0.00000000000E+00 0.  1.
         21   -1    0    0  503  502  0.00000000000E+00 -0.00000000000E+00 -0.49275327478E+02  0.49275327478E+02  0.00000000000E+00 0.  1.
         24    2    1    2    0    0  0.74057405404E+01  0.16194152556E+02  0.13055460966E+03  0.15442815600E+03  0.80538523031E+02 0.  0.
         23    2    1    2    0    0 -0.63765841984E+02 -0.10954927732E+02  0.41006012072E+03  0.42483926994E+03  0.90294017692E+02 0.  0.
        -13    1    3    3    0    0  0.19569850930E+02  0.41752224580E+02  0.45470944231E+02  0.64759818499E+02  0.00000000000E+00 0.  1.
         14    1    3    3    0    0 -0.12164110390E+02 -0.25558072024E+02  0.85083665433E+02  0.89668337504E+02  0.00000000000E+00 0. -1.
        -13    1    4    4    0    0  0.18954781573E+02  0.13740571499E+02  0.11743274136E+03  0.11974362527E+03  0.00000000000E+00 0.  1.
         13    1    4    4    0    0 -0.82720623557E+02 -0.24695499231E+02  0.29262737936E+03  0.30509564467E+03  0.00000000000E+00 0. -1.
         21    1    1    2  503  501 -0.10358996816E+02  0.24487315969E+02  0.60939666202E+02  0.66487445245E+02  0.00000000000E+00 0. -1.
         -2    1    1    2    0  502  0.66719098260E+02 -0.29726540793E+02  0.21905752472E+02  0.76255932828E+02  0.00000000000E+00 0.  1.
<scales pt_clust_5="13000.00000" pt_clust_6="13000.00000" pt_clust_7="13000.00000" pt_clust_8="13000.00000" pt_clust_9="26.58831" pt_clust_10="13000.00000"></scales>
<clustering>
<clus scale="   26.588">  2  9  1 -1</clus>
<clus scale="   80.539">  5  6 -1 -1</clus>
<clus scale="   83.752">  1  5  2 -1</clus>
<clus scale="   90.294">  7  8 -1 -1</clus>
<clus scale="   62.548">  7 10 -1 -1</clus>
<clus scale="   26.588">  2  5  1 -1</clus>
</clustering>
</event>
<event>
10    4  0.2759992E-005  0.5490215E+03  0.7546771E-02  0.1046068E+00
          2   -1    0    0  503    0 -0.00000000000E+00  0.00000000000E+00  0.13584224842E+04  0.13584224842E+04  0.00000000000E+00 0. -1.
         21   -1    0    0  501  502  0.00000000000E+00 -0.00000000000E+00 -0.10831667298E+03  0.10831667298E+03  0.00000000000E+00 0.  1.
         24    2    1    2    0    0  0.12633692860E+03  0.54802672184E+01  0.45619514731E+03  0.47993311802E+03  0.78934988970E+02 0.  0.
         23    2    1    2    0    0  0.17586521659E+03  0.55105138109E+02  0.11342231224E+03  0.23491273922E+03  0.91401441351E+02 0.  0.
        -11    1    3    3    0    0  0.12920109409E+03 -0.93855097395E+01  0.36093804597E+03  0.38348048651E+03  0.00000000000E+00 0.  1.
         12    1    3    3    0    0 -0.28641654901E+01  0.14865776958E+02  0.95257101345E+02  0.96452631510E+02  0.00000000000E+00 0. -1.
        -13    1    4    4    0    0  0.10337362516E+03  0.38699046871E+02  0.11654881092E+03  0.16052211042E+03  0.00000000000E+00 0. -1.
         13    1    4    4    0    0  0.72491591438E+02  0.16406091237E+02 -0.31264986871E+01  0.74390628798E+02  0.00000000000E+00 0.  1.
         21    1    1    2  503  502 -0.42709125503E+02  0.68873463807E+01  0.46352020903E+02  0.63403586517E+02  0.00000000000E+00 0. -1.
          1    1    1    2  501    0 -0.25949301969E+03 -0.67472751708E+02  0.63413633078E+03  0.68848971343E+03  0.00000000000E+00 0. -1.
<scales pt_clust_5="13000.00000" pt_clust_6="13000.00000" pt_clust_7="13000.00000" pt_clust_8="13000.00000" pt_clust_9="43.26089" pt_clust_10="13000.00000"></scales>
<clustering>
<clus scale="   43.261">  2  9  1 -1</clus>
<clus scale="   78.935">  5  6 -1 -1</clus>
<clus scale="   91.401">  7  8 -1 -1</clus>
<clus scale="  144.823">  1  5  2 -1</clus>
<clus scale="  184.698">  7 10 -1 -1</clus>
<clus scale="   43.261">  2  5  1 -1</clus>
</clustering>
</event>
<event>
10    4  0.2759992E-005  0.2013049E+03  0.7546771E-02  0.1187485E+00
         21   -1    0    0  503  502  0.00000000000E+00  0.00000000000E+00  0.63782773693E+02  0.63782773693E+02  0.00000000000E+00 0.  1.
         -1   -1    0    0    0  501 -0.00000000000E+00 -0.00000000000E+00 -0.43633294584E+03  0.43633294584E+03  0.00000000000E+00 0.  1.
         24    2    1    2    0    0 -0.93080188252E+01  0.11330078928E+02 -0.18303820045E+03  0.20048379794E+03  0.80472110138E+02 0.  0.
         23    2    1    2    0    0 -0.15223149278E+02  0.27899554201E+02 -0.22875864188E+02  0.99630973526E+02  0.91612751977E+02 0.  0.
        -13    1    3    3    0    0 -0.38055637238E+02  0.21312635416E+01 -0.15383065817E+03  0.15848231827E+03  0.00000000000E+00 0.  1.
         14    1    3    3    0    0  0.28747618413E+02  0.91988153864E+01 -0.29207542283E+02  0.42001479678E+02  0.00000000000E+00 0. -1.
        -13    1    4    4    0    0 -0.25205211109E+02 -0.12086152232E+02 -0.44909126128E+02  0.52898084582E+02  0.00000000000E+00 0. -1.
         13    1    4    4    0    0  0.99820618309E+01  0.39985706433E+02  0.22033261940E+02  0.46732888944E+02  0.00000000000E+00 0.  1.
         21    1    1    2  503  501 -0.46400527540E+01  0.24707612636E+02 -0.78157847644E+01  0.26326463933E+02  0.00000000000E+00 0.  1.
         -2    1    1    2    0  502  0.29171220858E+02 -0.63937245765E+02 -0.15882032274E+03  0.17367448413E+03  0.00000000000E+00 0.  1.
<scales pt_clust_5="13000.00000" pt_clust_6="13000.00000" pt_clust_7="13000.00000" pt_clust_8="13000.00000" pt_clust_9="25.13953" pt_clust_10="13000.00000"></scales>
<clustering>
<clus scale="   25.140">  1  9  2 -1</clus>
<clus scale="   80.472">  5  6 -1 -1</clus>
<clus scale="   82.525">  2  5  1 -1</clus>
<clus scale="   91.613">  7  8 -1 -1</clus>
<clus scale="   55.350">  7 10 -1 -1</clus>
<clus scale="   25.140">  1  5  2 -1</clus>
</clustering>
</event>
<event>
10    4  0.2759992E-005  0.5029119E+03  0.7546771E-02  0.1055804E+00
         21   -1    0    0  503  502  0.00000000000E+00  0.00000000000E+00  0.27241490749E+03  0.27241490749E+03  0.00000000000E+00 0.  1.
          2   -1    0    0  502    0 -0.00000000000E+00 -0.00000000000E+00 -0.15687620823E+04  0.15687620823E+04  0.00000000000E+00 0. -1.
         24    2    1    2    0    0  0.19382660755E+03 -0.24190006055E+03 -0.68972211452E+02  0.32625624417E+03  0.74843689232E+02 0.  0.
         23    2    1    2    0    0 -0.13603685730E+03 -0.20708002946E+03 -0.39806264728E+03  0.47484941565E+03  0.75099475605E+02 0.  0.
        -13    1    3    3    0    0  0.15648649867E+03 -0.23206593693E+03 -0.65696363840E+02  0.28750414879E+03  0.00000000000E+00 0.  1.
         14    1    3    3    0    0  0.37340108880E+02 -0.98341236162E+01 -0.32758476115E+01  0.38752095376E+02  0.00000000000E+00 0. -1.
        -11    1    4    4    0    0 -0.13741278921E+03 -0.15738320241E+03 -0.32956834566E+03  0.39021409701E+03  0.00000000000E+00 0. -1.
         11    1    4    4    0    0  0.13759319114E+01 -0.49696827049E+02 -0.68494301617E+02  0.84635318641E+02  0.00000000000E+00 0.  1.
         21    1    1    2  503  501 -0.12448901949E+03  0.25652300809E+03 -0.13309095128E+03  0.31466612618E+03  0.00000000000E+00 0. -1.
          1    1    1    2  501    0  0.66699269237E+02  0.19245708192E+03 -0.69622136481E+03  0.72540520381E+03  0.00000000000E+00 0. -1.
<scales pt_clust_5="13000.00000" pt_clust_6="13000.00000" pt_clust_7="13000.00000" pt_clust_8="13000.00000" pt_clust_9="285.13430" pt_clust_10="13000.00000"></scales>
<clustering>
<clus scale="   74.844">  5  6 -1 -1</clus>
<clus scale="   75.099">  7  8 -1 -1</clus>
<clus scale="  203.687">  7 10 -1 -1</clus>
<clus scale="  285.134">  1  9  2 -1</clus>
<clus scale="  142.793">  2  5  1 -1</clus>
<clus scale="  285.134">  1  5  2 -1</clus>
</clustering>
</event>
<event>
10    4  0.2759992E-005  0.3344191E+03  0.7546771E-02  0.1077971E+00
         -1   -1    0    0    0  501 -0.00000000000E+00  0.00000000000E+00  0.35133641633E+03  0.35133641633E+03  0.00000000000E+00 0.  1.
         21   -1    0    0  503  502  0.00000000000E+00 -0.00000000000E+00 -0.37803698704E+03  0.37803698704E+03  0.00000000000E+00 0.  1.
         24    2    1    2    0    0  0.21311476665E+03  0.13694813400E+03 -0.40956204833E+02  0.26903165100E+03  0.80795565207E+02 0.  0.
         23    2    1    2    0    0 -0.31403675582E+02 -0.12814790012E+03 -0.12857520773E+02  0.16131433749E+03  0.91918031380E+02 0.  0.
        -11    1    3    3    0    0  0.17980343000E+03  0.12442799365E+03 -0.62520650865E+02  0.22742126292E+03  0.00000000000E+00 0.  1.
         12    1    3    3    0    0  0.33311336646E+02  0.12520140348E+02  0.21564446032E+02  0.41610388079E+02  0.00000000000E+00 0. -1.
        -13    1    4    4    0    0 -0.45006946890E+02 -0.11139150894E+03  0.20208228451E+02  0.12182801824E+03  0.00000000000E+00 0.  1.
         13    1    4    4    0    0  0.13603271308E+02 -0.16756391185E+02 -0.33065749224E+02  0.39486319245E+02  0.00000000000E+00 0. -1.
         21    1    1    2  503  501 -0.42766404842E+02  0.48875323360E+02 -0.88162178982E+02  0.10950037634E+03  0.00000000000E+00 0.  1.
         -2    1    1    2    0  502 -0.13894468623E+03 -0.57675557236E+02  0.11527533387E+03  0.18952703853E+03  0.00000000000E+00 0.  1.
<scales pt_clust_5="13000.00000" pt_clust_6="13000.00000" pt_clust_7="13000.00000" pt_clust_8="13000.00000" pt_clust_9="64.94430" pt_clust_10="13000.00000"></scales>
<clustering>
<clus scale="   64.944">  2  9  1 -1</clus>
<clus scale="   80.796">  5  6 -1 -1</clus>
<clus scale="   91.918">  7  8 -1 -1</clus>
<clus scale="  153.419">  7 10 -1 -1</clus>
<clus scale="  263.273">  1  5  2 -1</clus>
<clus scale="   64.944">  2  5  1 -1</clus>
</clustering>
</event>
<event>
10    4  0.2759992E-005  0.2610445E+03  0.7546771E-02  0.1154126E+00
          2   -1    0    0  502    0 -0.00000000000E+00  0.00000000000E+00  0.81022041403E+03  0.81022041403E+03  0.00000000000E+00 0. -1.
         21   -1    0    0  503  502  0.00000000000E+00 -0.00000000000E+00 -0.74240467266E+02  0.74240467266E+02  0.00000000000E+00 0.  1.
         24    2    1    2    0    0  0.11032406979E+02 -0.25189533432E+02  0.17397918261E+02  0.87304601744E+02  0.81013451522E+02 0.  0.
         23    2    1    2    0    0 -0.62938049011E+02  0.78636841922E+02  0.47922842162E+03  0.49829836597E+03  0.92176084323E+02 0.  0.
        -11    1    3    3    0    0  0.31920533645E+02 -0.41328858332E+01 -0.21263785341E+02  0.38576544434E+02  0.00000000000E+00 0.  1.
         12    1    3    3    0    0 -0.20888126665E+02 -0.21056647599E+02  0.38661703602E+02  0.48728057309E+02  0.00000000000E+00 0. -1.
        -11    1    4    4    0    0 -0.48270477975E+02 -0.55860074956E+01  0.13077915647E+03  0.13951498232E+03  0.00000000000E+00 0.  1.
         11    1    4    4    0    0 -0.14667571037E+02  0.84222849418E+02  0.34844926514E+03  0.35878338365E+03  0.00000000000E+00 0. -1.
         21    1    1    2  503  501 -0.20810095923E+02  0.36557812670E+02  0.11984220580E+02  0.43739630799E+02  0.00000000000E+00 0.  1.
          1    1    1    2  501    0  0.72715737955E+02 -0.90005121161E+02  0.22736938631E+03  0.25511828278E+03  0.00000000000E+00 0. -1.
<scales pt_clust_5="13000.00000" pt_clust_6="13000.00000" pt_clust_7="13000.00000" pt_clust_8="13000.00000" pt_clust_9="42.06583" pt_clust_10="13000.00000"></scales>
<clustering>
<clus scale="   42.066">  2  9  1 -1</clus>
<clus scale="   81.013">  5  6 -1 -1</clus>
<clus scale="   81.093">  1  5  2 -1</clus>
<clus scale="   92.176">  7  8 -1 -1</clus>
<clus scale="  106.314">  7 10 -1 -1</clus>
<clus scale="   42.066">  2  5  1 -1</clus>
</clustering>
</event>
<event>
10    4  0.2759992E-005  0.4060113E+03  0.7546771E-02  0.1074654E+00
         21   -1    0    0  503  502  0.00000000000E+00  0.00000000000E+00  0.11656315108E+03  0.11656315108E+03  0.00000000000E+00 0.  1.
          2   -1    0    0  502    0 -0.00000000000E+00 -0.00000000000E+00 -0.10716438371E+04  0.10716438371E+04  0.00000000000E+00 0. -1.
         24    2    1    2    0    0 -0.14441623705E+03  0.26206888971E+02 -0.44834415817E+03  0.47838183711E+03  0.79333771893E+02 0.  0.
         23    2    1    2    0    0 -0.10164139676E+03  0.79040558858E+02 -0.12396851401E+03  0.20466944924E+03  0.99714630342E+02 0.  0.
        -11    1    3    3    0    0 -0.11412476494E+03  0.49951403642E+02 -0.29387420055E+03  0.31918905127E+03  0.00000000000E+00 0.  1.
         12    1    3    3    0    0 -0.30291472110E+02 -0.23744514671E+02 -0.15446995762E+03  0.15919278585E+03  0.00000000000E+00 0. -1.
        -13    1    4    4    0    0 -0.29697584630E+02  0.78737985055E+02 -0.95527914613E+02  0.12730749897E+03  0.00000000000E+00 0. -1.
         13    1    4    4    0    0 -0.71943812135E+02  0.30257380332E+00 -0.28440599400E+02  0.77361950270E+02  0.00000000000E+00 0.  1.
         21    1    1    2  503  501  0.29271609027E+02 -0.65051874033E+02 -0.99544455853E+01  0.72025442707E+02  0.00000000000E+00 0.  1.
          1    1    1    2  501    0  0.21678602479E+03 -0.40195573796E+02 -0.37281356827E+03  0.43313025914E+03  0.00000000000E+00 0. -1.
<scales pt_clust_5="13000.00000" pt_clust_6="13000.00000" pt_clust_7="13000.00000" pt_clust_8="13000.00000" pt_clust_9="71.33424" pt_clust_10="13000.00000"></scales>
<clustering>
<clus scale="   71.334">  1  9  2 -1</clus>
<clus scale="   79.334">  5  6 -1 -1</clus>
<clus scale="   99.715">  7  8 -1 -1</clus>
<clus scale="  160.967">  2  5  1 -1</clus>
<clus scale="  133.653">  7 10 -1 -1</clus>
<clus scale="   71.334">  1  5  2 -1</clus>
</clustering>
</event>
<event>
10    4  0.2759992E-005  0.2292607E+03  0.7546771E-02  0.1157999E+00
         21   -1    0    0  503  502  0.00000000000E+00  0.00000000000E+00  0.38872547256E+03  0.38872547256E+03  0.00000000000E+00 0.  1.
         -1   -1    0    0    0  501 -0.00000000000E+00 -0.00000000000E+00 -0.21949485149E+03  0.21949485149E+03  0.00000000000E+00 0.  1.
         24    2    1    2    0    0  0.39246077626E+02 -0.73606215775E+02  0.17906525705E+02  0.11889589084E+03  0.82809779537E+02 0.  0.
         23    2    1    2    0    0  0.10405698432E+02  0.36449961502E+02 -0.13418427233E+03  0.17617052618E+03  0.10767431030E+03 0.  0.
        -13    1    3    3    0    0  0.39423795506E+02 -0.64299577055E+02 -0.21481641514E+02  0.78422778475E+02  0.00000000000E+00 0.  1.
         14    1    3    3    0    0 -0.17771787975E+00 -0.93066387200E+01  0.39388167220E+02  0.40473112369E+02  0.00000000000E+00 0. -1.
        -11    1    4    4    0    0  0.51452788123E+02 -0.96555676047E+01 -0.58488214741E+02  0.78495163259E+02  0.00000000000E+00 0.  1.
         11    1    4    4    0    0 -0.41047089691E+02  0.46105529107E+02 -0.75696057589E+02  0.97675362916E+02  0.00000000000E+00 0. -1.
         21    1    1    2  503  501  0.30788105491E+01  0.31602798855E+02  0.24335349953E+03  0.24541626210E+03  0.00000000000E+00 0.  1.
         -2    1    1    2    0  502 -0.52730586607E+02  0.55534554177E+01  0.42154868165E+02  0.67737644933E+02  0.00000000000E+00 0.  1.
<scales pt_clust_5="13000.00000" pt_clust_6="13000.00000" pt_clust_7="13000.00000" pt_clust_8="13000.00000" pt_clust_9="31.75242" pt_clust_10="13000.00000"></scales>
<clustering>
<clus scale="   31.752">  1  9  2 -1</clus>
<clus scale="   82.810">  5  6 -1 -1</clus>
<clus scale="  107.674">  7  8 -1 -1</clus>
<clus scale="   54.475">  7 10 -1 -1</clus>
<clus scale="  109.325">  2  5  1 -1</clus>
<clus scale="   31.752">  1  5  2 -1</clus>
</clustering>
</event>
<event>
10    4  0.2759992E-005  0.3852627E+03  0.7546771E-02  0.1075875E+00
         21   -1    0    0  501  502  0.00000000000E+00  0.00000000000E+00  0.21395209083E+03  0.21395209083E+03  0.00000000000E+00 0.  1.
         -1   -1    0    0    0  501 -0.00000000000E+00 -0.00000000000E+00 -0.58871239029E+03  0.58871239029E+03  0.00000000000E+00 0.  1.
         24    2    1    2    0    0  0.12298655886E+03 -0.12850840027E+03 -0.11213210724E+03  0.22585251414E+03  0.82435708714E+02 0.  0.
         23    2    1    2    0    0  0.11318261371E+03  0.10091773370E+03 -0.23658376678E+03  0.29492915753E+03  0.89535670196E+02 0.  0.
        -13    1    3    3    0    0  0.73860248570E+02 -0.10257493812E+03 -0.11407875251E+03  0.17026719010E+03  0.00000000000E+00 0.  1.
         14    1    3    3    0    0  0.49126310286E+02 -0.25933462153E+02  0.19466452717E+01  0.55585324047E+02  0.00000000000E+00 0. -1.
        -11    1    4    4    0    0  0.49570798073E+02  0.92787411143E+02 -0.10543337840E+03  0.14893946746E+03  0.00000000000E+00 0.  1.
         11    1    4    4    0    0  0.63611815636E+02  0.81303225600E+01 -0.13115038838E+03  0.14598969007E+03  0.00000000000E+00 0. -1.
         21    1    1    2  503  502 -0.56015331913E+02  0.26486909115E+01  0.58747675216E+02  0.81215899405E+02  0.00000000000E+00 0.  1.
         -2    1    1    2    0  503 -0.18015384065E+03  0.24941975655E+02 -0.84792100662E+02  0.20066691004E+03  0.00000000000E+00 0.  1.
<scales pt_clust_5="13000.00000" pt_clust_6="13000.00000" pt_clust_7="13000.00000" pt_clust_8="13000.00000" pt_clust_9="56.07792" pt_clust_10="13000.00000"></scales>
<clustering>
<clus scale="   56.078">  1  9  2 -1</clus>
<clus scale="   82.436">  5  6 -1 -1</clus>
<clus scale="   89.536">  7  8 -1 -1</clus>
<clus scale="  182.252">  2  5  1 -1</clus>
<clus scale="  162.306">  7 10 -1 -1</clus>
<clus scale="   56.078">  1  5  2 -1</clus>
</clustering>
</event>
<event>
10    4  0.2759992E-005  0.3739943E+03  0.7546771E-02  0.1107031E+00
         21   -1    0    0  503  502  0.00000000000E+00  0.00000000000E+00  0.14990326218E+04  0.14990326218E+04  0.00000000000E+00 0. -1.
          2   -1    0    0  502    0 -0.00000000000E+00 -0.00000000000E+00 -0.33586040774E+03  0.33586040774E+03  0.00000000000E+00 0. -1.
         24    2    1    2    0    0 -0.13596339636E+02  0.30719126997E+02 -0.28357088966E+03  0.29679597015E+03  0.80912750689E+02 0.  0.
         23    2    1    2    0    0 -0.18653967667E+03  0.31776519173E+01  0.26383458676E+03  0.33551071797E+03  0.90286235150E+02 0.  0.
        -11    1    3    3    0    0  0.32322380033E+02  0.18243054211E+02 -0.87744981908E+02  0.95271859056E+02  0.00000000000E+00 0.  1.
         12    1    3    3    0    0 -0.45918719670E+02  0.12476072786E+02 -0.19582590775E+03  0.20152411110E+03  0.00000000000E+00 0. -1.
        -13    1    4    4    0    0 -0.18121730778E+03  0.24678885820E+02  0.21764934035E+03  0.28428857768E+03  0.00000000000E+00 0. -1.
         13    1    4    4    0    0 -0.53223688899E+01 -0.21501233902E+02  0.46185246409E+02  0.51222140289E+02  0.00000000000E+00 0.  1.
         21    1    1    2  503  501  0.99460693015E+02 -0.54619867807E+02  0.65714165992E+03  0.66686649385E+03  0.00000000000E+00 0. -1.
          1    1    1    2  501    0  0.10067532329E+03  0.20723088892E+02  0.52576685704E+03  0.53571984758E+03  0.00000000000E+00 0. -1.
<scales pt_clust_5="13000.00000" pt_clust_6="13000.00000" pt_clust_7="13000.00000" pt_clust_8="13000.00000" pt_clust_9="110.64994" pt_clust_10="13000.00000"></scales>
<clustering>
<clus scale="   80.913">  5  6 -1 -1</clus>
<clus scale="   87.609">  2  5  1 -1</clus>
<clus scale="   90.286">  7  8 -1 -1</clus>
<clus scale="  102.073">  7 10 -1 -1</clus>
<clus scale="  110.650">  1  9  2 -1</clus>
<clus scale="  110.650">  1  5  2 -1</clus>
</clustering>
</event>
<event>
10    4  0.2759992E-005  0.4452811E+03  0.7546771E-02  0.1085273E+00
         21   -1    0    0  503  502  0.00000000000E+00  0.00000000000E+00  0.44169960988E+03  0.44169960988E+03  0.00000000000E+00 0.  1.
          2   -1    0    0  502    0 -0.00000000000E+00 -0.00000000000E+00 -0.18765433092E+03  0.18765433092E+03  0.00000000000E+00 0. -1.
         24    2    1    2    0    0  0.37501303611E+02  0.32009980132E+02  0.10250598568E+03  0.13829231660E+03  0.78653042726E+02 0.  0.
         23    2    1    2    0    0 -0.24164810114E+02  0.12026779812E+03  0.24950804168E+03  0.29316902176E+03  0.92981348392E+02 0.  0.
        -13    1    3    3    0    0  0.58520835112E+02  0.32672240999E+02  0.94357395920E+02  0.11573885104E+03  0.00000000000E+00 0.  1.
         14    1    3    3    0    0 -0.21019531501E+02 -0.66226086643E+00  0.81485897623E+01  0.22553465568E+02  0.00000000000E+00 0. -1.
        -11    1    4    4    0    0 -0.28277696272E+02  0.59404545983E+02  0.44878900696E+02  0.79640717711E+02  0.00000000000E+00 0. -1.
         11    1    4    4    0    0  0.41128861582E+01  0.60863252133E+02  0.20462914098E+03  0.21352830405E+03  0.00000000000E+00 0.  1.
         21    1    1    2  503  501  0.57900804317E+01 -0.20590306251E+02  0.12649793492E+02  0.24849608011E+02  0.00000000000E+00 0. -1.
          1    1    1    2  501    0 -0.19126573928E+02 -0.13168747200E+03 -0.11061854189E+03  0.17304299443E+03  0.00000000000E+00 0. -1.
<scales pt_clust_5="13000.00000" pt_clust_6="13000.00000" pt_clust_7="13000.00000" pt_clust_8="13000.00000" pt_clust_9="21.38892" pt_clust_10="13000.00000"></scales>
<clustering>
<clus scale="   21.389">  1  9  2 -1</clus>
<clus scale="   78.653">  5  6 -1 -1</clus>
<clus scale="   91.666">  2  5  1 -1</clus>
<clus scale="   92.981">  7  8 -1 -1</clus>
<clus scale="  111.668">  7 10 -1 -1</clus>
<clus scale="   21.389">  1  5  2 -1</clus>
</clustering>
</event>
<event>
10    4  0.2759992E-005  0.6503064E+03  0.7546771E-02  0.1019635E+00
         21   -1    0    0  501  502  0.00000000000E+00  0.00000000000E+00  0.88773071539E+03  0.88773071539E+03  0.00000000000E+00 0. -1.
          2   -1    0    0  503    0 -0.00000000000E+00 -0.00000000000E+00 -0.74512687471E+03  0.74512687471E+03  0.00000000000E+00 0. -1.
         24    2    1    2    0    0 -0.99909471936E+02  0.14057839294E+03 -0.15610541686E+03  0.24600062549E+03  0.80020118860E+02 0.  0.
         23    2    1    2    0    0 -0.32340608695E+02  0.93547880716E+02 -0.15820771669E+03  0.21128667416E+03  0.99071974349E+02 0.  0.
        -13    1    3    3    0    0 -0.18375289230E+02  0.66201857322E+02 -0.10227835337E+03  0.12321200727E+03  0.00000000000E+00 0.  1.
         14    1    3    3    0    0 -0.81534182706E+02  0.74376535619E+02 -0.53827063494E+02  0.12278861822E+03  0.00000000000E+00 0. -1.
        -11    1    4    4    0    0 -0.11212999737E+02  0.34907753432E+02 -0.14231542512E+03  0.14696245384E+03  0.00000000000E+00 0. -1.
         11    1    4    4    0    0 -0.21127608958E+02  0.58640127285E+02 -0.15892291569E+02  0.64324220318E+02  0.00000000000E+00 0.  1.
         21    1    1    2  503  502  0.15998379791E+03 -0.60600735727E+03  0.49782654256E+03  0.80041926460E+03  0.00000000000E+00 0. -1.
          1    1    1    2  501    0 -0.27733717279E+02  0.37188108361E+03 -0.40909568333E+02  0.37515102586E+03  0.00000000000E+00 0. -1.
<scales pt_clust_5="13000.00000" pt_clust_6="13000.00000" pt_clust_7="13000.00000" pt_clust_8="13000.00000" pt_clust_9="582.12539" pt_clust_10="13000.00000"></scales>
<clustering>
<clus scale="   80.020">  5  6 -1 -1</clus>
<clus scale="   99.072">  7  8 -1 -1</clus>
<clus scale="  190.125">  2  5  1 -1</clus>
<clus scale="  430.709">  7 10 -1 -1</clus>
<clus scale="  582.125">  1  9  2 -1</clus>
<clus scale="  582.125">  1  5  2 -1</clus>
</clustering>
</event>
<event>
10    4  0.2759992E-005  0.4526176E+03  0.7546771E-02  0.1039931E+00
         21   -1    0    0  501  502  0.00000000000E+00  0.00000000000E+00  0.43050388871E+03  0.43050388871E+03  0.00000000000E+00 0.  1.
          2   -1    0    0  503    0 -0.00000000000E+00 -0.00000000000E+00 -0.16965691950E+04  0.16965691950E+04  0.00000000000E+00 0. -1.
         24    2    1    2    0    0  0.26006434517E+03  0.10178680295E+03  0.15463771892E+03  0.32911987178E+03  0.80081514748E+02 0.  0.
         23    2    1    2    0    0  0.51974265496E+02  0.62204120161E-01 -0.40045508824E+03  0.41328587643E+03  0.87975052261E+02 0.  0.
        -13    1    3    3    0    0  0.23872173803E+03  0.96635536327E+02  0.16392240906E+03  0.30528192098E+03  0.00000000000E+00 0.  1.
         14    1    3    3    0    0  0.21342607142E+02  0.51512666239E+01 -0.92846901325E+01  0.23837950799E+02  0.00000000000E+00 0. -1.
        -13    1    4    4    0    0  0.17998178491E+02 -0.43343491905E+02 -0.19447200141E+03  0.20005487260E+03  0.00000000000E+00 0. -1.
         13    1    4    4    0    0  0.33976087005E+02  0.43405696025E+02 -0.20598308683E+03  0.21323100383E+03  0.00000000000E+00 0.  1.
         21    1    1    2  503  502  0.30548755493E+02 -0.24123293746E+02  0.15408025133E+03  0.15892099802E+03  0.00000000000E+00 0. -1.
          1    1    1    2  501    0 -0.34258736616E+03 -0.77725713325E+02 -0.11743281883E+04  0.12257463375E+04  0.00000000000E+00 0. -1.
<scales pt_clust_5="13000.00000" pt_clust_6="13000.00000" pt_clust_7="13000.00000" pt_clust_8="13000.00000" pt_clust_9="38.92505" pt_clust_10="13000.00000"></scales>
<clustering>
<clus scale="   38.925">  1  9  2 -1</clus>
<clus scale="   80.082">  5  6 -1 -1</clus>
<clus scale="   87.975">  7  8 -1 -1</clus>
<clus scale="  308.673">  2  5  1 -1</clus>
<clus scale="  128.095">  7 10 -1 -1</clus>
<clus scale="   38.925">  1  5  2 -1</clus>
</clustering>
</event>
<event>
10    4  0.2759992E-005  0.1634815E+03  0.7546771E-02  0.1201031E+00
          2   -1    0    0  503    0 -0.00000000000E+00  0.00000000000E+00  0.22426001668E+03  0.22426001668E+03  0.00000000000E+00 0. -1.
         21   -1    0    0  501  502  0.00000000000E+00 -0.00000000000E+00 -0.21212186350E+03  0.21212186350E+03  0.00000000000E+00 0. -1.
         24    2    1    2    0    0 -0.58429969828E+02 -0.68420186579E+01 -0.11854908497E+03  0.15542824545E+03  0.81505701296E+02 0.  0.
         23    2    1    2    0    0  0.26903086912E+02 -0.53589571270E+02  0.10152083028E+03  0.14910374702E+03  0.91267903239E+02 0.  0.
        -13    1    3    3    0    0  0.79712370787E+01 -0.26436342515E+02 -0.16676148242E+02  0.32257010808E+02  0.00000000000E+00 0.  1.
         14    1    3    3    0    0 -0.66401206906E+02  0.19594323857E+02 -0.10187293673E+03  0.12317123464E+03  0.00000000000E+00 0. -1.
        -13    1    4    4    0    0  0.98696348741E+01 -0.67094702078E+02  0.10700461525E+03  0.12668502841E+03  0.00000000000E+00 0. -1.
         13    1    4    4    0    0  0.17033452038E+02  0.13505130808E+02 -0.54837849711E+01  0.22418718610E+02  0.00000000000E+00 0.  1.
         21    1    1    2  503  502 -0.22816309664E+02  0.40057508810E+02 -0.25017871993E+02  0.52450757076E+02  0.00000000000E+00 0. -1.
          1    1    1    2  501    0  0.54343192580E+02  0.20374081118E+02  0.54184279869E+02  0.79399130638E+02  0.00000000000E+00 0. -1.
<scales pt_clust_5="13000.00000" pt_clust_6="13000.00000" pt_clust_7="13000.00000" pt_clust_8="13000.00000" pt_clust_9="46.09976" pt_clust_10="13000.00000"></scales>
<clustering>
<clus scale="   46.100">  2  9  1 -1</clus>
<clus scale="   81.506">  5  6 -1 -1</clus>
<clus scale="   91.268">  7  8 -1 -1</clus>
<clus scale="   57.601">  7 10 -1 -1</clus>
<clus scale="  114.473">  1  5  2 -1</clus>
<clus scale="   46.100">  2  5  1 -1</clus>
</clustering>
</event>
<event>
10    4  0.2759992E-005  0.3200837E+03  0.7546771E-02  0.1120186E+00
          2   -1    0    0  503    0 -0.00000000000E+00  0.00000000000E+00  0.12273789155E+04  0.12273789155E+04  0.00000000000E+00 0. -1.
         21   -1    0    0  501  502  0.00000000000E+00 -0.00000000000E+00 -0.44525092115E+02  0.44525092115E+02  0.00000000000E+00 0. -1.
         24    2    1    2    0    0 -0.53945965640E+02  0.14564149506E+02  0.22110015343E+03  0.24159981116E+03  0.79767845946E+02 0.  0.
         23    2    1    2    0    0 -0.48705324736E+02  0.92985742116E+02  0.31925809434E+03  0.34790891687E+03  0.89979590720E+02 0.  0.
        -11    1    3    3    0    0 -0.32795857972E+02  0.46444941223E+02  0.10567914571E+03  0.12000326122E+03  0.00000000000E+00 0.  1.
         12    1    3    3    0    0 -0.21150107668E+02 -0.31880791716E+02  0.11542100771E+03  0.12159654994E+03  0.00000000000E+00 0. -1.
        -13    1    4    4    0    0 -0.48795394446E+01  0.89898993568E+02  0.17065892686E+03  0.19295105148E+03  0.00000000000E+00 0. -1.
         13    1    4    4    0    0 -0.43825785292E+02  0.30867485478E+01  0.14859916747E+03  0.15495786539E+03  0.00000000000E+00 0.  1.
         21    1    1    2  503  502 -0.41815690695E+01  0.40751118740E+02  0.66586307509E+02  0.78178485187E+02  0.00000000000E+00 0. -1.
          1    1    1    2  501    0  0.10683285945E+03 -0.14830101036E+03  0.57590926812E+03  0.60421679441E+03  0.00000000000E+00 0. -1.
<scales pt_clust_5="13000.00000" pt_clust_6="13000.00000" pt_clust_7="13000.00000" pt_clust_8="13000.00000" pt_clust_9="40.96510" pt_clust_10="13000.00000"></scales>
<clustering>
<clus scale="   40.965">  2  9  1 -1</clus>
<clus scale="   79.768">  5  6 -1 -1</clus>
<clus scale="   89.980">  7  8 -1 -1</clus>
<clus scale="  100.181">  1  5  2 -1</clus>
<clus scale="  140.843">  7 10 -1 -1</clus>
<clus scale="   40.965">  2  5  1 -1</clus>
</clustering>
</event>
<event>
10    4  0.2759992E-005  0.4395335E+03  0.7546771E-02  0.1049389E+00
          4   -1    0    0  503    0 -0.00000000000E+00  0.00000000000E+00  0.35345897585E+03  0.35345897585E+03  0.00000000000E+00 0. -1.
         21   -1    0    0  501  502  0.00000000000E+00 -0.00000000000E+00 -0.85427568177E+03  0.85427568177E+03  0.00000000000E+00 0. -1.
         24    2    1    2    0    0 -0.12732983129E+03  0.14134077590E+03 -0.18498171387E+03  0.27717796487E+03  0.80120464759E+02 0.  0.
         23    2    1    2    0    0  0.24560935019E+03 -0.17302713933E+03  0.20244762377E+02  0.31475318366E+03  0.91637177899E+02 0.  0.
        -13    1    3    3    0    0 -0.83790421327E+02  0.65911213750E+02 -0.53013311649E+02  0.11906105163E+03  0.00000000000E+00 0.  1.
         14    1    3    3    0    0 -0.43539409967E+02  0.75429562150E+02 -0.13196840222E+03  0.15811691323E+03  0.00000000000E+00 0. -1.
        -11    1    4    4    0    0  0.14368735758E+03 -0.14641723338E+03  0.35888266387E+02  0.20825952709E+03  0.00000000000E+00 0. -1.
         11    1    4    4    0    0  0.10192199261E+03 -0.26609905957E+02 -0.15643504010E+02  0.10649365657E+03  0.00000000000E+00 0.  1.
         21    1    1    2  503  502 -0.11731114621E+02  0.11111067006E+03 -0.43564826853E+03  0.44974727784E+03  0.00000000000E+00 0. -1.
          3    1    1    2  501    0 -0.10654840428E+03 -0.79424306629E+02  0.99568514097E+02  0.16605623125E+03  0.00000000000E+00 0. -1.
<scales pt_clust_5="13000.00000" pt_clust_6="13000.00000" pt_clust_7="13000.00000" pt_clust_8="13000.00000" pt_clust_9="111.72824" pt_clust_10="13000.00000"></scales>
<clustering>
<clus scale="   80.120">  5  6 -1 -1</clus>
<clus scale="   91.637">  7  8 -1 -1</clus>
<clus scale="  111.728">  2  9  1 -1</clus>
<clus scale="  128.525">  7 10 -1 -1</clus>
<clus scale="  256.625">  1  5  2 -1</clus>
<clus scale="  111.728">  2  5  1 -1</clus>
</clustering>
</event>
<event>
10    4  0.2759992E-005  0.3684978E+03  0.7546771E-02  0.1109377E+00
         21   -1    0    0  501  502  0.00000000000E+00  0.00000000000E+00  0.14871203324E+03  0.14871203324E+03  0.00000000000E+00 0.  1.
          2   -1    0    0  503    0 -0.00000000000E+00 -0.00000000000E+00 -0.72551937992E+03  0.72551937992E+03  0.00000000000E+00 0. -1.
         24    2    1    2    0    0 -0.58015906923E+01  0.70454916857E+01 -0.26651584350E+03  0.28018401072E+03  0.85959802326E+02 0.  0.
         23    2    1    2    0    0 -0.14334663530E+03  0.11136266000E+03 -0.20262126115E+03  0.28768023538E+03  0.93566246386E+02 0.  0.
        -11    1    3    3    0    0  0.20791119336E+02  0.32567827533E+02 -0.20387117605E+03  0.20750033845E+03  0.00000000000E+00 0.  1.
         12    1    3    3    0    0 -0.26592710028E+02 -0.25522335847E+02 -0.62644667451E+02  0.72683672264E+02  0.00000000000E+00 0. -1.
        -11    1    4    4    0    0 -0.14900463190E+03  0.82921352921E+02 -0.14779943990E+03  0.22566126281E+03  0.00000000000E+00 0.  1.
         11    1    4    4    0    0  0.56579965926E+01  0.28441307081E+02 -0.54821821250E+02  0.62018972574E+02  0.00000000000E+00 0. -1.
         21    1    1    2  503  502  0.23589127606E+02 -0.11942135195E+02  0.63559098122E+02  0.68839091281E+02  0.00000000000E+00 0.  1.
          1    1    1    2  501    0  0.12555909839E+03 -0.10646601649E+03 -0.17122934015E+03  0.23752807578E+03  0.00000000000E+00 0. -1.
<scales pt_clust_5="13000.00000" pt_clust_6="13000.00000" pt_clust_7="13000.00000" pt_clust_8="13000.00000" pt_clust_9="26.43977" pt_clust_10="13000.00000"></scales>
<clustering>
<clus scale="   26.440">  1  9  2 -1</clus>
<clus scale="   85.960">  5  6 -1 -1</clus>
<clus scale="   86.259">  2  5  1 -1</clus>
<clus scale="   93.566">  7  8 -1 -1</clus>
<clus scale="  171.469">  7 10 -1 -1</clus>
<clus scale="   26.440">  1  5  2 -1</clus>
</clustering>
</event>
<event>
10    4  0.2759992E-005  0.3995310E+03  0.7546771E-02  0.1100941E+00
          2   -1    0    0  503    0 -0.00000000000E+00  0.00000000000E+00  0.23500248864E+04  0.23500248864E+04  0.00000000000E+00 0. -1.
         21   -1    0    0  501  502  0.00000000000E+00 -0.00000000000E+00 -0.74616800943E+02  0.74616800943E+02  0.00000000000E+00 0. -1.
         24    2    1    2    0    0  0.24354075425E+02  0.64751251733E+01  0.16176517085E+03  0.18230359514E+03  0.80197145004E+02 0.  0.
         23    2    1    2    0    0  0.29424257156E+01  0.13584666165E+03  0.77525239711E+03  0.79223236447E+03  0.90293226446E+02 0.  0.
        -13    1    3    3    0    0 -0.13979912166E+02 -0.16175144212E+02  0.90254484711E+01  0.23206291270E+02  0.00000000000E+00 0.  1.
         14    1    3    3    0    0  0.38333987591E+02  0.22650269385E+02  0.15273972238E+03  0.15909730387E+03  0.00000000000E+00 0. -1.
        -11    1    4    4    0    0  0.41377914557E+02  0.79409198792E+02  0.53595495130E+03  0.54338353167E+03  0.00000000000E+00 0.  1.
         11    1    4    4    0    0 -0.38435488841E+02  0.56437462862E+02  0.23929744580E+03  0.24884883280E+03  0.00000000000E+00 0. -1.
         21    1    1    2  503  502 -0.92990094811E+02  0.79828475454E+02  0.36657513651E+02  0.12791996143E+03  0.00000000000E+00 0. -1.
          1    1    1    2  501    0  0.65693593670E+02 -0.22215026228E+03  0.13017330039E+04  0.13221857663E+04  0.00000000000E+00 0. -1.
<scales pt_clust_5="13000.00000" pt_clust_6="13000.00000" pt_clust_7="13000.00000" pt_clust_8="13000.00000" pt_clust_9="122.01877" pt_clust_10="13000.00000"></scales>
<clustering>
<clus scale="   80.197">  5  6 -1 -1</clus>
<clus scale="   84.063">  1  5  2 -1</clus>
<clus scale="   90.293">  7  8 -1 -1</clus>
<clus scale="  122.019">  2  9  1 -1</clus>
<clus scale="  179.483">  7 10 -1 -1</clus>
<clus scale="  122.019">  2  5  1 -1</clus>
</clustering>
</event>
<event>
10    4  0.2759992E-005  0.3429696E+03  0.7546771E-02  0.1096305E+00
         21   -1    0    0  501  502  0.00000000000E+00  0.00000000000E+00  0.12718387496E+03  0.12718387496E+03  0.00000000000E+00 0. -1.
          2   -1    0    0  503    0 -0.00000000000E+00 -0.00000000000E+00 -0.98487490206E+03  0.98487490206E+03  0.00000000000E+00 0. -1.
         24    2    1    2    0    0 -0.47578140904E+02 -0.10426748461E+03 -0.13601830062E+03  0.19588805895E+03  0.82071710700E+02 0.  0.
         23    2    1    2    0    0 -0.21065237772E+02 -0.59078820883E+02 -0.99389437665E+02  0.14494391220E+03  0.84831751396E+02 0.  0.
        -11    1    3    3    0    0 -0.28223822465E+02 -0.90537374891E+02 -0.14260647728E+03  0.17126064279E+03  0.00000000000E+00 0.  1.
         12    1    3    3    0    0 -0.19354318438E+02 -0.13730109714E+02  0.65881766590E+01  0.24627416159E+02  0.00000000000E+00 0. -1.
        -13    1    4    4    0    0 -0.25143643560E+02 -0.35692249115E+02 -0.11044133593E+03  0.11875785507E+03  0.00000000000E+00 0. -1.
         13    1    4    4    0    0  0.40784057886E+01 -0.23386571768E+02  0.11051898264E+02  0.26186057131E+02  0.00000000000E+00 0.  1.
         21    1    1    2  503  502 -0.39858857121E+02 -0.64919899998E+01  0.52930396519E+02  0.66577032832E+02  0.00000000000E+00 0. -1.
          1    1    1    2  501    0  0.10850223580E+03  0.16983829549E+03 -0.67521368534E+03  0.70464977304E+03  0.00000000000E+00 0. -1.
<scales pt_clust_5="13000.00000" pt_clust_6="13000.00000" pt_clust_7="13000.00000" pt_clust_8="13000.00000" pt_clust_9="40.38409" pt_clust_10="13000.00000"></scales>
<clustering>
<clus scale="   40.384">  1  9  2 -1</clus>
<clus scale="   82.072">  5  6 -1 -1</clus>
<clus scale="   84.832">  7  8 -1 -1</clus>
<clus scale="  149.925">  2  5  1 -1</clus>
<clus scale="   92.361">  7 10 -1 -1</clus>
<clus scale="   40.384">  1  5  2 -1</clus>
</clustering>
</event>
<event>
10    4  0.2759992E-005  0.3745437E+03  0.7546771E-02  0.1102143E+00
          2   -1    0    0  502    0 -0.00000000000E+00  0.00000000000E+00  0.64612086117E+03  0.64612086117E+03  0.00000000000E+00 0. -1.
         21   -1    0    0  503  502  0.00000000000E+00 -0.00000000000E+00 -0.13637988041E+03  0.13637988041E+03  0.00000000000E+00 0. -1.
         24    2    1    2    0    0  0.37922219133E+02  0.35687570615E+02  0.33688157893E+02  0.98461060191E+02  0.76472158275E+02 0.  0.
         23    2    1    2    0    0 -0.13066982493E+03 -0.50865948896E+02  0.54094552595E+03  0.56607794703E+03  0.90334003354E+02 0.  0.
        -11    1    3    3    0    0  0.60238647395E+02  0.33782150886E+02  0.31648495980E+02  0.75970755270E+02  0.00000000000E+00 0.  1.
         12    1    3    3    0    0 -0.22316428262E+02  0.19054197293E+01  0.20396619137E+01  0.22490304921E+02  0.00000000000E+00 0. -1.
        -13    1    4    4    0    0 -0.24095424749E+02  0.97878691610E+01  0.26157532919E+02  0.36886425755E+02  0.00000000000E+00 0.  1.
         13    1    4    4    0    0 -0.10657440018E+03 -0.60653818057E+02  0.51478799303E+03  0.52919152127E+03  0.00000000000E+00 0. -1.
         21    1    1    2  503  501  0.29287245504E+02  0.14041107491E+02 -0.35181035204E+02  0.47881109916E+02  0.00000000000E+00 0. -1.
          1    1    1    2  501    0  0.63460360296E+02  0.11372707894E+01 -0.29711667887E+02  0.70080624443E+02  0.00000000000E+00 0. -1.
<scales pt_clust_5="13000.00000" pt_clust_6="13000.00000" pt_clust_7="13000.00000" pt_clust_8="13000.00000" pt_clust_9="32.47915" pt_clust_10="13000.00000"></scales>
<clustering>
<clus scale="   32.479">  2  9  1 -1</clus>
<clus scale="   76.472">  5  6 -1 -1</clus>
<clus scale="   90.334">  7  8 -1 -1</clus>
<clus scale="   79.327">  7 10 -1 -1</clus>
<clus scale="   98.911">  1  5  2 -1</clus>
<clus scale="   32.479">  2  5  1 -1</clus>
</clustering>
</event>
<event>
10    4  0.2759992E-005  0.1435355E+03  0.7546771E-02  0.1234805E+00
          2   -1    0    0  502    0 -0.00000000000E+00  0.00000000000E+00  0.85486575660E+03  0.85486575660E+03  0.00000000000E+00 0. -1.
         21   -1    0    0  503  502  0.00000000000E+00 -0.00000000000E+00 -0.78583262492E+02  0.78583262492E+02  0.00000000000E+00 0.  1.
         24    2    1    2    0    0  0.12911982857E+02 -0.31567547955E+01  0.45309031303E+03  0.46038005384E+03  0.80512594090E+02 0.  0.
         23    2    1    2    0    0 -0.12552713458E+02  0.14386008565E+02  0.25835633073E+03  0.27676862893E+03  0.97408174567E+02 0.  0.
        -13    1    3    3    0    0 -0.28600158600E+02  0.18601988684E+02  0.16352790717E+03  0.16704903316E+03  0.00000000000E+00 0.  1.
         14    1    3    3    0    0  0.41512141458E+02 -0.21758743479E+02  0.28956240585E+03  0.29333102068E+03  0.00000000000E+00 0. -1.
        -11    1    4    4    0    0  0.23131227415E+02 -0.32758884270E+02  0.10790208861E+03  0.11511324383E+03  0.00000000000E+00 0.  1.
         11    1    4    4    0    0 -0.35683940873E+02  0.47144892835E+02  0.15045424213E+03  0.16165538510E+03  0.00000000000E+00 0. -1.
         21    1    1    2  503  501  0.36479812167E+02  0.26276022595E+02 -0.51665047235E+02  0.68487102180E+02  0.00000000000E+00 0.  1.
          1    1    1    2  501    0 -0.36839081567E+02 -0.37505276364E+02  0.11650089759E+03  0.12781323415E+03  0.00000000000E+00 0. -1.
<scales pt_clust_5="13000.00000" pt_clust_6="13000.00000" pt_clust_7="13000.00000" pt_clust_8="13000.00000" pt_clust_9="44.95783" pt_clust_10="13000.00000"></scales>
<clustering>
<clus scale="   44.958">  2  9  1 -1</clus>
<clus scale="   80.513">  5  6 -1 -1</clus>
<clus scale="   83.007">  1  5  2 -1</clus>
<clus scale="   97.408">  7  8 -1 -1</clus>
<clus scale="   36.181">  7 10 -1 -1</clus>
<clus scale="   44.958">  2  5  1 -1</clus>
</clustering>
</event>
<event>
10    4  0.2759992E-005  0.2465571E+03  0.7546771E-02  0.1160948E+00
         21   -1    0    0  501  502  0.00000000000E+00  0.00000000000E+00  0.89651361078E+02  0.89651361078E+02  0.00000000000E+00 0.  1.
         -3   -1    0    0    0  501 -0.00000000000E+00 -0.00000000000E+00 -0.44414979888E+03  0.44414979888E+03  0.00000000000E+00 0.  1.
         24    2    1    2    0    0 -0.18342370025E+02  0.16008189271E+01 -0.71221915845E+02  0.10917905958E+03  0.80675278708E+02 0.  0.
         23    2    1    2    0    0 -0.68449823273E+02  0.32513701698E+02 -0.28812103111E+03  0.31699999521E+03  0.10831781613E+03 0.  0.
        -13    1    3    3    0    0 -0.73319856053E+01 -0.36388956846E+02 -0.14117496559E+02  0.39714202779E+02  0.00000000000E+00 0.  1.
         14    1    3    3    0    0 -0.11010384420E+02  0.37989775773E+02 -0.57104419286E+02  0.69464856800E+02  0.00000000000E+00 0. -1.
        -11    1    4    4    0    0 -0.93092659702E+02  0.45022369506E+02 -0.24301102344E+03  0.26409773675E+03  0.00000000000E+00 0.  1.
         11    1    4    4    0    0  0.24642836429E+02 -0.12508667808E+02 -0.45110007668E+02  0.52902258453E+02  0.00000000000E+00 0. -1.
         21    1    1    2  503  502  0.16390975609E+02 -0.27500253723E+02  0.16403628209E+02  0.35972309554E+02  0.00000000000E+00 0.  1.
         -4    1    1    2    0  503  0.70401217690E+02 -0.66142669027E+01 -0.11559119061E+02  0.71649795619E+02  0.00000000000E+00 0.  1.
<scales pt_clust_5="13000.00000" pt_clust_6="13000.00000" pt_clust_7="13000.00000" pt_clust_8="13000.00000" pt_clust_9="32.01450" pt_clust_10="13000.00000"></scales>
<clustering>
<clus scale="   32.014">  1  9  2 -1</clus>
<clus scale="   80.675">  5  6 -1 -1</clus>
<clus scale="   82.055">  2  5  1 -1</clus>
<clus scale="  108.318">  7  8 -1 -1</clus>
<clus scale="   78.646">  7 10 -1 -1</clus>
<clus scale="   32.014">  1  5  2 -1</clus>
</clustering>
</event>
<event>
10    4  0.2759992E-005  0.2347308E+03  0.7546771E-02  0.1154617E+00
          4   -1    0    0  503    0 -0.00000000000E+00  0.00000000000E+00  0.29428040504E+03  0.29428040504E+03  0.00000000000E+00 0. -1.
         21   -1    0    0  501  502  0.00000000000E+00 -0.00000000000E+00 -0.13789824344E+03  0.13789824344E+03  0.00000000000E+00 0.  1.
         24    2    1    2    0    0  0.70265116363E+02  0.11184461000E+02  0.11275190778E+03  0.15549427523E+03  0.80019986105E+02 0.  0.
         23    2    1    2    0    0  0.27013926941E+02  0.32423421299E+02  0.27795739862E+02  0.11081535522E+03  0.98622559797E+02 0.  0.
        -11    1    3    3    0    0  0.48155200486E+02  0.42775604699E+02  0.48768851733E+02  0.80790324858E+02  0.00000000000E+00 0.  1.
         12    1    3    3    0    0  0.22109915877E+02 -0.31591143699E+02  0.63983056044E+02  0.74703950371E+02  0.00000000000E+00 0. -1.
        -11    1    4    4    0    0  0.41790360879E+02 -0.77323469991E+01 -0.19738450784E+02  0.46859683011E+02  0.00000000000E+00 0.  1.
         11    1    4    4    0    0 -0.14776433938E+02  0.40155768298E+02  0.47534190646E+02  0.63955672210E+02  0.00000000000E+00 0. -1.
         21    1    1    2  503  502  0.24458236988E+02  0.15442059782E+02 -0.37091734623E+01  0.29161970692E+02  0.00000000000E+00 0.  1.
          3    1    1    2  501    0 -0.12173728029E+03 -0.59049942081E+02  0.19543687427E+02  0.13670704733E+03  0.00000000000E+00 0. -1.
<scales pt_clust_5="13000.00000" pt_clust_6="13000.00000" pt_clust_7="13000.00000" pt_clust_8="13000.00000" pt_clust_9="28.92512" pt_clust_10="13000.00000"></scales>
<clustering>
<clus scale="   28.925">  2  9  1 -1</clus>
<clus scale="   80.020">  5  6 -1 -1</clus>
<clus scale="   98.623">  7  8 -1 -1</clus>
<clus scale="  110.258">  1  5  2 -1</clus>
<clus scale="   88.787">  7 10 -1 -1</clus>
<clus scale="   28.925">  2  5  1 -1</clus>
</clustering>
</event>
<event>
10    4  0.2759992E-005  0.9352640E+03  0.7546771E-02  0.1010748E+00
          2   -1    0    0  503    0 -0.00000000000E+00  0.00000000000E+00  0.87494293443E+03  0.87494293443E+03  0.00000000000E+00 0. -1.
         21   -1    0    0  501  502  0.00000000000E+00 -0.00000000000E+00 -0.31866896930E+03  0.31866896930E+03  0.00000000000E+00 0. -1.
         24    2    1    2    0    0 -0.19373431288E+02  0.16163377760E+02  0.44264166320E+02  0.95220496018E+02  0.80442786012E+02 0.  0.
         23    2    1    2    0    0 -0.94572315794E+02 -0.40552020180E+03  0.46045031382E+03  0.62860848050E+03  0.98709539948E+02 0.  0.
        -13    1    3    3    0    0 -0.49174568433E+02  0.77286900772E+01  0.13522643420E+02  0.51582290720E+02  0.00000000000E+00 0.  1.
         14    1    3    3    0    0  0.29801137145E+02  0.84346876825E+01  0.30741522899E+02  0.43638205298E+02  0.00000000000E+00 0. -1.
        -11    1    4    4    0    0 -0.92060389180E+01 -0.18865645275E+03  0.15462321698E+03  0.24409905274E+03  0.00000000000E+00 0.  1.
         11    1    4    4    0    0 -0.85366276876E+02 -0.21686374906E+03  0.30582709683E+03  0.38450942776E+03  0.00000000000E+00 0. -1.
         21    1    1    2  503  502 -0.53810333617E+00 -0.30833583103E+02 -0.24699955992E+01  0.30937037357E+02  0.00000000000E+00 0.  1.
          1    1    1    2  501    0  0.11448385042E+03  0.42019040715E+03  0.54029480594E+02  0.43884588985E+03  0.00000000000E+00 0. -1.
<scales pt_clust_5="13000.00000" pt_clust_6="13000.00000" pt_clust_7="13000.00000" pt_clust_8="13000.00000" pt_clust_9="30.83828" pt_clust_10="13000.00000"></scales>
<clustering>
<clus scale="   30.838">  2  9  1 -1</clus>
<clus scale="   80.443">  5  6 -1 -1</clus>
<clus scale="   83.857">  1  5  2 -1</clus>
<clus scale="   98.710">  7  8 -1 -1</clus>
<clus scale="  418.796">  7 10 -1 -1</clus>
<clus scale="   30.838">  2  5  1 -1</clus>
</clustering>
</event>
<event>
10    4  0.2759992E-005  0.2805923E+03  0.7546771E-02  0.1142580E+00
         21   -1    0    0  503  502  0.00000000000E+00  0.00000000000E+00  0.96301100224E+03  0.96301100224E+03  0.00000000000E+00 0.  1.
          2   -1    0    0  502    0 -0.00000000000E+00 -0.00000000000E+00 -0.35866131904E+03  0.35866131904E+03  0.00000000000E+00 0. -1.
         24    2    1    2    0    0  0.67058130670E+01 -0.28176547563E+02 -0.94223022404E+02  0.12751247433E+03  0.80886138471E+02 0.  0.
         23    2    1    2    0    0  0.13917833495E+03 -0.38967412029E+02 -0.31830992238E+02  0.17525927009E+03  0.93880410985E+02 0.  0.
        -13    1    3    3    0    0 -0.14661345760E+02  0.23520292386E+02 -0.18318368668E+02  0.33222309433E+02  0.00000000000E+00 0.  1.
         14    1    3    3    0    0  0.21367158827E+02 -0.51696839949E+02 -0.75904653736E+02  0.94290164894E+02  0.00000000000E+00 0. -1.
        -11    1    4    4    0    0  0.90090640905E+02  0.22178797993E+02 -0.71546055704E+01  0.93055956499E+02  0.00000000000E+00 0. -1.
         11    1    4    4    0    0  0.49087694047E+02 -0.61146210023E+02 -0.24676386667E+02  0.82203313595E+02  0.00000000000E+00 0.  1.
         21    1    1    2  503  501 -0.13575008054E+03  0.10915633609E+03  0.86249994632E+03  0.87991439781E+03  0.00000000000E+00 0.  1.
          1    1    1    2  501    0 -0.10134067483E+02 -0.42012376495E+02 -0.13209624848E+03  0.13898617904E+03  0.00000000000E+00 0. -1.
<scales pt_clust_5="13000.00000" pt_clust_6="13000.00000" pt_clust_7="13000.00000" pt_clust_8="13000.00000" pt_clust_9="173.39002" pt_clust_10="13000.00000"></scales>
<clustering>
<clus scale="   80.886">  5  6 -1 -1</clus>
<clus scale="   85.915">  2  5  1 -1</clus>
<clus scale="   93.880">  7  8 -1 -1</clus>
<clus scale="   57.788">  7 10 -1 -1</clus>
<clus scale="  173.390">  1  9  2 -1</clus>
<clus scale="  173.390">  1  5  2 -1</clus>
</clustering>
</event>
<event>
10    4  0.2759992E-005  0.1961110E+03  0.7546771E-02  0.1189852E+00
         21   -1    0    0  503  502  0.00000000000E+00  0.00000000000E+00  0.22036734038E+03  0.22036734038E+03  0.00000000000E+00 0. -1.
          2   -1    0    0  502    0 -0.00000000000E+00 -0.00000000000E+00 -0.17628638765E+03  0.17628638765E+03  0.00000000000E+00 0. -1.
         24    2    1    2    0    0  0.19701924593E+02  0.13884641791E+02 -0.70655965690E+02  0.10928002133E+03  0.79805441319E+02 0.  0.
         23    2    1    2    0    0 -0.32781438276E+02 -0.78471401838E+02 -0.24793363463E+02  0.12948992849E+03  0.94448647992E+02 0.  0.
        -13    1    3    3    0    0 -0.18941197280E+02  0.31420783297E+02 -0.15850470213E+02  0.39965885244E+02  0.00000000000E+00 0.  1.
         14    1    3    3    0    0  0.38643121873E+02 -0.17536141506E+02 -0.54805495476E+02  0.69314136087E+02  0.00000000000E+00 0. -1.
        -13    1    4    4    0    0  0.26755440318E+01 -0.83911189441E+02  0.31590864627E+01  0.84013249411E+02  0.00000000000E+00 0. -1.
         13    1    4    4    0    0 -0.35456982308E+02  0.54397876028E+01 -0.27952449926E+02  0.45476679083E+02  0.00000000000E+00 0.  1.
         21    1    1    2  503  501  0.20809493888E+02  0.24772414833E+02  0.74800781461E+02  0.81497634811E+02  0.00000000000E+00 0. -1.
          1    1    1    2  501    0 -0.77299802059E+01  0.39814345214E+02  0.64729500424E+02  0.76386143403E+02  0.00000000000E+00 0. -1.
<scales pt_clust_5="13000.00000" pt_clust_6="13000.00000" pt_clust_7="13000.00000" pt_clust_8="13000.00000" pt_clust_9="32.35286" pt_clust_10="13000.00000"></scales>
<clustering>
<clus scale="   32.353">  1  9  2 -1</clus>
<clus scale="   79.805">  5  6 -1 -1</clus>
<clus scale="   84.699">  2  5  1 -1</clus>
<clus scale="   94.449">  7  8 -1 -1</clus>
<clus scale="   55.029">  7 10 -1 -1</clus>
<clus scale="   32.353">  1  5  2 -1</clus>
</clustering>
</event>
<event>
10    4  0.2759992E-005  0.3837644E+03  0.7546771E-02  0.1058516E+00
          2   -1    0    0  502    0 -0.00000000000E+00  0.00000000000E+00  0.12962951425E+04  0.12962951425E+04  0.00000000000E+00 0. -1.
         21   -1    0    0  503  502  0.00000000000E+00 -0.00000000000E+00 -0.38061008921E+03  0.38061008921E+03  0.00000000000E+00 0. -1.
         24    2    1    2    0    0 -0.26705115024E+03 -0.17810825768E+02  0.32572357119E+03  0.42897164504E+03  0.79292402245E+02 0.  0.
         23    2    1    2    0    0  0.33790470629E+03  0.16470466125E+00  0.72969605682E+03  0.80915016110E+03  0.89933476581E+02 0.  0.
        -13    1    3    3    0    0 -0.84434957341E+02 -0.30461625264E+02  0.66868147498E+02  0.11193087950E+03  0.00000000000E+00 0.  1.
         14    1    3    3    0    0 -0.18261619290E+03  0.12650799497E+02  0.25885542370E+03  0.31704076554E+03  0.00000000000E+00 0. -1.
        -11    1    4    4    0    0  0.13553731213E+03 -0.19719292490E+02  0.20614362480E+03  0.24749627779E+03  0.00000000000E+00 0.  1.
         11    1    4    4    0    0  0.20236739417E+03  0.19883997151E+02  0.52355243202E+03  0.56165388331E+03  0.00000000000E+00 0. -1.
         21    1    1    2  503  501 -0.36419675674E+02  0.45345749728E+02 -0.28297023034E+03  0.28888541163E+03  0.00000000000E+00 0. -1.
          1    1    1    2  501    0 -0.34433880379E+02 -0.27699628622E+02  0.14323565565E+03  0.14989801398E+03  0.00000000000E+00 0. -1.
<scales pt_clust_5="13000.00000" pt_clust_6="13000.00000" pt_clust_7="13000.00000" pt_clust_8="13000.00000" pt_clust_9="58.16038" pt_clust_10="13000.00000"></scales>
<clustering>
<clus scale="   58.160">  2  9  1 -1</clus>
<clus scale="   79.292">  5  6 -1 -1</clus>
<clus scale="   89.933">  7  8 -1 -1</clus>
<clus scale="   44.238">  7 10 -1 -1</clus>
<clus scale="  297.744">  1  5  2 -1</clus>
<clus scale="   58.160">  2  5  1 -1</clus>
</clustering>
</event>
<event>
10    4  0.2759992E-005  0.8004559E+03  0.7546771E-02  0.1017879E+00
          2   -1    0    0  502    0 -0.00000000000E+00  0.00000000000E+00  0.17302440437E+04  0.17302440437E+04  0.00000000000E+00 0. -1.
         21   -1    0    0  503  502  0.00000000000E+00 -0.00000000000E+00 -0.37223998387E+03  0.37223998387E+03  0.00000000000E+00 0. -1.
         24    2    1    2    0    0 -0.60804644269E+02  0.10816613833E+02  0.41537225047E+02  0.11527096346E+03  0.88021872577E+02 0.  0.
         23    2    1    2    0    0 -0.11715788763E+03 -0.34936842022E+03  0.39503820255E+03  0.54759863778E+03  0.89581376070E+02 0.  0.
        -13    1    3    3    0    0 -0.17449727045E+02  0.36732949675E+02 -0.11266542016E+02  0.42198785939E+02  0.00000000000E+00 0.  1.
         14    1    3    3    0    0 -0.43354917224E+02 -0.25916335841E+02  0.52803767063E+02  0.73072177517E+02  0.00000000000E+00 0. -1.
        -11    1    4    4    0    0 -0.87155924730E+02 -0.32326280183E+03  0.37615149810E+03  0.50357218329E+03  0.00000000000E+00 0. -1.
         11    1    4    4    0    0 -0.30001962902E+02 -0.26105618391E+02  0.18886704453E+02  0.44026454486E+02  0.00000000000E+00 0.  1.
         21    1    1    2  503  501 -0.47101473595E+02  0.98219860031E+02 -0.22331131989E+03  0.24846254308E+03  0.00000000000E+00 0. -1.
          1    1    1    2  501    0  0.22506400550E+03  0.24033194636E+03  0.11447399522E+04  0.11911518833E+04  0.00000000000E+00 0. -1.
<scales pt_clust_5="13000.00000" pt_clust_6="13000.00000" pt_clust_7="13000.00000" pt_clust_8="13000.00000" pt_clust_9="109.20483" pt_clust_10="13000.00000"></scales>
<clustering>
<clus scale="   88.022">  5  6 -1 -1</clus>
<clus scale="   89.581">  7  8 -1 -1</clus>
<clus scale="  107.527">  1  5  2 -1</clus>
<clus scale="  109.205">  2  9  1 -1</clus>
<clus scale="  327.820">  7 10 -1 -1</clus>
<clus scale="  109.205">  2  5  1 -1</clus>
</clustering>
</event>
<event>
10    4  0.2759992E-005  0.2229295E+03  0.7546771E-02  0.1146976E+00
          2   -1    0    0  502    0 -0.00000000000E+00  0.00000000000E+00  0.14152609085E+03  0.14152609085E+03  0.00000000000E+00 0. -1.
         21   -1    0    0  503  502  0.00000000000E+00 -0.00000000000E+00 -0.40218278740E+03  0.40218278740E+03  0.00000000000E+00 0. -1.
         24    2    1    2    0    0 -0.93797251521E+02 -0.10333654549E+03 -0.83081508113E+02  0.18144992690E+03  0.80902243213E+02 0.  0.
         23    2    1    2    0    0 -0.10765072039E+02  0.17009879102E+02 -0.52611902144E+02  0.97395278387E+02  0.79451905212E+02 0.  0.
        -13    1    3    3    0    0 -0.62863275160E+02 -0.10172850322E+03 -0.35624070184E+02  0.12477801933E+03  0.00000000000E+00 0.  1.
         14    1    3    3    0    0 -0.30933976362E+02 -0.16080422676E+01 -0.47457437929E+02  0.56671907576E+02  0.00000000000E+00 0. -1.
        -13    1    4    4    0    0 -0.96554461782E+01 -0.22961893272E+02  0.67626010498E+01  0.25811023933E+02  0.00000000000E+00 0. -1.
         13    1    4    4    0    0 -0.11096258604E+01  0.39971772374E+02 -0.59374503193E+02  0.71584254454E+02  0.00000000000E+00 0.  1.
         21    1    1    2  503  501 -0.83620508842E+01  0.31926316351E+02 -0.13513512468E+03  0.13910684920E+03  0.00000000000E+00 0. -1.
          1    1    1    2  501    0  0.11292437444E+03  0.54400350032E+02  0.10171838389E+02  0.12575682376E+03  0.00000000000E+00 0. -1.
<scales pt_clust_5="13000.00000" pt_clust_6="13000.00000" pt_clust_7="13000.00000" pt_clust_8="13000.00000" pt_clust_9="33.00324" pt_clust_10="13000.00000"></scales>
<clustering>
<clus scale="   33.003">  2  9  1 -1</clus>
<clus scale="   79.452">  7  8 -1 -1</clus>
<clus scale="   80.902">  5  6 -1 -1</clus>
<clus scale="  126.920">  7 10 -1 -1</clus>
<clus scale="  154.217">  1  5  2 -1</clus>
<clus scale="   33.003">  2  5  1 -1</clus>
</clustering>
</event>
<event>
10    4  0.2759992E-005  0.4632105E+03  0.7546771E-02  0.1061932E+00
         21   -1    0    0  503  502  0.00000000000E+00  0.00000000000E+00  0.14513279329E+03  0.14513279329E+03  0.00000000000E+00 0. -1.
          2   -1    0    0  502    0 -0.00000000000E+00 -0.00000000000E+00 -0.94853158747E+03  0.94853158747E+03  0.00000000000E+00 0. -1.
         24    2    1    2    0    0  0.60130585634E+02  0.12424532650E+03 -0.16190243992E+03  0.22689035351E+03  0.78830476202E+02 0.  0.
         23    2    1    2    0    0  0.29426902236E+02  0.31298404320E+02  0.21342609757E+02  0.10482610224E+03  0.93206609373E+02 0.  0.
        -11    1    3    3    0    0  0.51305177802E+02  0.37757512492E+02 -0.33910509261E+02  0.72164905994E+02  0.00000000000E+00 0.  1.
         12    1    3    3    0    0  0.88254078321E+01  0.86487814005E+02 -0.12799193065E+03  0.15472544751E+03  0.00000000000E+00 0. -1.
        -11    1    4    4    0    0 -0.28307713413E+02 -0.44417373520E+01 -0.95822635859E+01  0.30213828702E+02  0.00000000000E+00 0.  1.
         11    1    4    4    0    0  0.57734615649E+02  0.35740141672E+02  0.30924873343E+02  0.74612273536E+02  0.00000000000E+00 0. -1.
         21    1    1    2  503  501  0.48071952410E+02 -0.50109260477E+02  0.72282374963E+01  0.69814740645E+02  0.00000000000E+00 0. -1.
          1    1    1    2  501    0 -0.13762944028E+03 -0.10543447034E+03 -0.67006720151E+03  0.69213318437E+03  0.00000000000E+00 0. -1.
<scales pt_clust_5="13000.00000" pt_clust_6="13000.00000" pt_clust_7="13000.00000" pt_clust_8="13000.00000" pt_clust_9="69.43955" pt_clust_10="13000.00000"></scales>
<clustering>
<clus scale="   69.440">  1  9  2 -1</clus>
<clus scale="   78.830">  5  6 -1 -1</clus>
<clus scale="   93.207">  7  8 -1 -1</clus>
<clus scale="  153.889">  2  5  1 -1</clus>
<clus scale="   66.449">  7 10 -1 -1</clus>
<clus scale="   69.440">  1  5  2 -1</clus>
</clustering>
</event>
<event>
10    4  0.2759992E-005  0.1172801E+03  0.7546771E-02  0.1259120E+00
         21   -1    0    0  501  502  0.00000000000E+00  0.00000000000E+00  0.40870242566E+03  0.40870242566E+03  0.00000000000E+00 0. -1.
          2   -1    0    0  503    0 -0.00000000000E+00 -0.00000000000E+00 -0.10423489925E+03  0.10423489925E+03  0.00000000000E+00 0. -1.
         24    2    1    2    0    0  0.24331664006E+02 -0.16340063059E+02  0.22291099223E+03  0.24246017028E+03  0.90766712941E+02 0.  0.
         23    2    1    2    0    0  0.10288033214E+02 -0.48481006616E+01 -0.23120501810E+02  0.94770145252E+02  0.91200192542E+02 0.  0.
        -13    1    3    3    0    0 -0.72627239557E+01 -0.41889352539E+02  0.53982161769E+02  0.68713454320E+02  0.00000000000E+00 0.  1.
         14    1    3    3    0    0  0.31594387961E+02  0.25549289480E+02  0.16892883046E+03  0.17374671596E+03  0.00000000000E+00 0. -1.
        -11    1    4    4    0    0 -0.10833919855E+02  0.39450128097E+02 -0.20150882895E+02  0.45604215899E+02  0.00000000000E+00 0.  1.
         11    1    4    4    0    0  0.21121953070E+02 -0.44298228759E+02 -0.29696189150E+01  0.49165929353E+02  0.00000000000E+00 0. -1.
         21    1    1    2  503  502 -0.52400894589E+02  0.98022117053E+01  0.13131055350E+03  0.14171943610E+03  0.00000000000E+00 0.  1.
          1    1    1    2  501    0  0.17781197370E+02  0.11385952015E+02 -0.26633517508E+02  0.33987573288E+02  0.00000000000E+00 0. -1.
<scales pt_clust_5="13000.00000" pt_clust_6="13000.00000" pt_clust_7="13000.00000" pt_clust_8="13000.00000" pt_clust_9="53.30982" pt_clust_10="13000.00000"></scales>
<clustering>
<clus scale="   53.310">  1  9  2 -1</clus>
<clus scale="   90.767">  5  6 -1 -1</clus>
<clus scale="   91.200">  7  8 -1 -1</clus>
<clus scale="   20.595">  7 10 -1 -1</clus>
<clus scale="   93.385">  2  5  1 -1</clus>
<clus scale="   53.310">  1  5  2 -1</clus>
</clustering>
</event>
<event>
10    4  0.2759992E-005  0.5939571E+03  0.7546771E-02  0.1054896E+00
          2   -1    0    0  502    0 -0.00000000000E+00  0.00000000000E+00  0.22099161602E+03  0.22099161602E+03  0.00000000000E+00 0. -1.
         21   -1    0    0  503  502  0.00000000000E+00 -0.00000000000E+00 -0.74988883081E+03  0.74988883081E+03  0.00000000000E+00 0. -1.
         24    2    1    2    0    0 -0.39991076153E+02 -0.18942812220E+01 -0.27767573039E+01  0.90035617531E+02  0.80596697015E+02 0.  0.
         23    2    1    2    0    0 -0.16828543781E+03  0.16652247058E+03  0.31765937001E+02  0.25565963091E+03  0.91121075162E+02 0.  0.
        -13    1    3    3    0    0 -0.29297945771E+02 -0.30230775693E+02 -0.28051435271E+02  0.50588066242E+02  0.00000000000E+00 0.  1.
         14    1    3    3    0    0 -0.10693130382E+02  0.28336494471E+02  0.25274677967E+02  0.39447551288E+02  0.00000000000E+00 0. -1.
        -13    1    4    4    0    0 -0.21166295678E+02 -0.10345045941E+02  0.46052887182E+01  0.24005014735E+02  0.00000000000E+00 0.  1.
         13    1    4    4    0    0 -0.14711914213E+03  0.17686751652E+03  0.27160648283E+02  0.23165461618E+03  0.00000000000E+00 0. -1.
         21    1    1    2  503  501  0.31821086077E+02 -0.31621368170E+02 -0.19683310393E+03  0.20188056679E+03  0.00000000000E+00 0. -1.
          1    1    1    2  501    0  0.17645542788E+03 -0.13300682119E+03 -0.36105329055E+03  0.42330463160E+03  0.00000000000E+00 0. -1.
<scales pt_clust_5="13000.00000" pt_clust_6="13000.00000" pt_clust_7="13000.00000" pt_clust_8="13000.00000" pt_clust_9="44.86081" pt_clust_10="13000.00000"></scales>
<clustering>
<clus scale="   44.861">  2  9  1 -1</clus>
<clus scale="   80.597">  5  6 -1 -1</clus>
<clus scale="   88.930">  1  5  2 -1</clus>
<clus scale="   91.121">  7  8 -1 -1</clus>
<clus scale="  246.325">  7 10 -1 -1</clus>
<clus scale="   44.861">  2  5  1 -1</clus>
</clustering>
</event>
<event>
10    4  0.2759992E-005  0.3770472E+03  0.7546771E-02  0.1100624E+00
         21   -1    0    0  503  502  0.00000000000E+00  0.00000000000E+00  0.27176738047E+03  0.27176738047E+03  0.00000000000E+00 0.  1.
          2   -1    0    0  502    0 -0.00000000000E+00 -0.00000000000E+00 -0.15702939961E+04  0.15702939961E+04  0.00000000000E+00 0. -1.
         24    2    1    2    0    0 -0.33062752639E+02 -0.51656770457E+02  0.15355424628E+01  0.10085434235E+03  0.80047941477E+02 0.  0.
         23    2    1    2    0    0 -0.78582088104E+00 -0.88002377915E+02 -0.36743002993E+03  0.38845774129E+03  0.90274879348E+02 0.  0.
        -11    1    3    3    0    0 -0.29663736980E+02 -0.71024960405E+02 -0.10675134125E+02  0.77707404929E+02  0.00000000000E+00 0.  1.
         12    1    3    3    0    0 -0.33990156586E+01  0.19368189949E+02  0.12210676588E+02  0.23146937423E+02  0.00000000000E+00 0. -1.
        -11    1    4    4    0    0 -0.22607932530E+02 -0.66498446112E+02 -0.34049650471E+03  0.34766511425E+03  0.00000000000E+00 0.  1.
         11    1    4    4    0    0  0.21822111649E+02 -0.21503931803E+02 -0.26933525215E+02  0.40792627033E+02  0.00000000000E+00 0. -1.
         21    1    1    2  503  501  0.23541122483E+03  0.16235018129E+03  0.98042675713E+02  0.30230513129E+03  0.00000000000E+00 0.  1.
          1    1    1    2  501    0 -0.20156265131E+03 -0.22691032919E+02 -0.10306748039E+04  0.10504441617E+04  0.00000000000E+00 0. -1.
<scales pt_clust_5="13000.00000" pt_clust_6="13000.00000" pt_clust_7="13000.00000" pt_clust_8="13000.00000" pt_clust_9="282.17184" pt_clust_10="13000.00000"></scales>
<clustering>
<clus scale="   80.048">  5  6 -1 -1</clus>
<clus scale="   90.275">  7  8 -1 -1</clus>
<clus scale="  100.843">  2  5  1 -1</clus>
<clus scale="  231.578">  7 10 -1 -1</clus>
<clus scale="  282.172">  1  9  2 -1</clus>
<clus scale="  282.172">  1  5  2 -1</clus>
</clustering>
</event>
<event>
10    4  0.2759992E-005  0.3663620E+03  0.7546771E-02  0.1111907E+00
         -1   -1    0    0    0  501 -0.00000000000E+00  0.00000000000E+00  0.18258565375E+03  0.18258565375E+03  0.00000000000E+00 0.  1.
         21   -1    0    0  503  502  0.00000000000E+00 -0.00000000000E+00 -0.39726148633E+03  0.39726148633E+03  0.00000000000E+00 0.  1.
         24    2    1    2    0    0 -0.47621140573E+01  0.29996069116E+02  0.57852276040E+02  0.10044445484E+03  0.76287356566E+02 0.  0.
         23    2    1    2    0    0 -0.81519225098E+02 -0.13693480818E+03 -0.22772175915E+03  0.29228247721E+03  0.90417482499E+02 0.  0.
        -13    1    3    3    0    0  0.18966197712E+02  0.34108142505E+02  0.13791968531E+01  0.39051046397E+02  0.00000000000E+00 0.  1.
         14    1    3    3    0    0 -0.23728311769E+02 -0.41120733890E+01  0.56473079187E+02  0.61393408440E+02  0.00000000000E+00 0. -1.
        -11    1    4    4    0    0 -0.25761654684E+02 -0.57695561081E+02 -0.25670904740E+02  0.68201436720E+02  0.00000000000E+00 0. -1.
         11    1    4    4    0    0 -0.55757570414E+02 -0.79239247103E+02 -0.20205085441E+03  0.22408104049E+03  0.00000000000E+00 0.  1.
         21    1    1    2  503  501 -0.26037957260E+02  0.44041106347E+01 -0.19776450571E+02  0.32992111269E+02  0.00000000000E+00 0.  1.
         -2    1    1    2    0  502  0.11231929642E+03  0.10253462843E+03 -0.25029898899E+02  0.15412809677E+03  0.00000000000E+00 0.  1.
<scales pt_clust_5="13000.00000" pt_clust_6="13000.00000" pt_clust_7="13000.00000" pt_clust_8="13000.00000" pt_clust_9="26.40779" pt_clust_10="13000.00000"></scales>
<clustering>
<clus scale="   26.408">  2  9  1 -1</clus>
<clus scale="   76.287">  5  6 -1 -1</clus>
<clus scale="   82.304">  1  5  2 -1</clus>
<clus scale="   90.417">  7  8 -1 -1</clus>
<clus scale="  159.329">  7 10 -1 -1</clus>
<clus scale="   26.408">  2  5  1 -1</clus>
</clustering>
</event>
<event>
10    4  0.2759992E-005  0.3118711E+03  0.7546771E-02  0.1098233E+00
          2   -1    0    0  503    0 -0.00000000000E+00  0.00000000000E+00  0.15324029269E+04  0.15324029269E+04  0.00000000000E+00 0. -1.
         21   -1    0    0  501  502  0.00000000000E+00 -0.00000000000E+00 -0.21811420933E+03  0.21811420933E+03  0.00000000000E+00 0.  1.
         24    2    1    2    0    0 -0.16047635362E+03  0.59250581259E+02  0.12002274510E+04  0.12153675864E+04  0.85493534147E+02 0.  0.
         23    2    1    2    0    0  0.16577720507E+03 -0.66914541895E+02  0.27942045657E+03  0.34402057881E+03  0.91185138361E+02 0.  0.
        -13    1    3    3    0    0 -0.75641521109E+02  0.48733294814E+01  0.29632493157E+03  0.30586574526E+03  0.00000000000E+00 0.  1.
         14    1    3    3    0    0 -0.84834832507E+02  0.54377251777E+02  0.90390251944E+03  0.90950184110E+03  0.00000000000E+00 0. -1.
        -11    1    4    4    0    0  0.12055536001E+03 -0.39220485866E+02  0.11465331056E+03  0.17093046236E+03  0.00000000000E+00 0.  1.
         11    1    4    4    0    0  0.45221845057E+02 -0.27694056029E+02  0.16476714601E+03  0.17309011645E+03  0.00000000000E+00 0. -1.
         21    1    1    2  503  502  0.88586932180E+01 -0.31366354047E+02 -0.13706109243E+03  0.14088317028E+03  0.00000000000E+00 0.  1.
          1    1    1    2  501    0 -0.14159544672E+02  0.39030314683E+02 -0.28298097574E+02  0.50245800779E+02  0.00000000000E+00 0. -1.
<scales pt_clust_5="13000.00000" pt_clust_6="13000.00000" pt_clust_7="13000.00000" pt_clust_8="13000.00000" pt_clust_9="32.59332" pt_clust_10="13000.00000"></scales>
<clustering>
<clus scale="   32.593">  2  9  1 -1</clus>
<clus scale="   85.494">  5  6 -1 -1</clus>
<clus scale="   91.185">  7  8 -1 -1</clus>
<clus scale="   25.416">  7 10 -1 -1</clus>
<clus scale="  189.617">  1  5  2 -1</clus>
<clus scale="   32.593">  2  5  1 -1</clus>
</clustering>
</event>
<event>
10    4  0.2759992E-005  0.3423489E+03  0.7546771E-02  0.1110909E+00
         21   -1    0    0  501  502  0.00000000000E+00  0.00000000000E+00  0.17949716238E+03  0.17949716238E+03  0.00000000000E+00 0.  1.
          2   -1    0    0  503    0 -0.00000000000E+00 -0.00000000000E+00 -0.76225595948E+03  0.76225595948E+03  0.00000000000E+00 0. -1.
         24    2    1    2    0    0 -0.59570237939E+02 -0.29713684393E+02 -0.31690821817E+03  0.33370787032E+03  0.80613942214E+02 0.  0.
         23    2    1    2    0    0 -0.12182268329E+03  0.56515194759E+02 -0.11581218487E+03  0.20187097178E+03  0.96460840130E+02 0.  0.
        -13    1    3    3    0    0 -0.53979517315E+01 -0.46808055501E+02 -0.12574164199E+03  0.13427990346E+03  0.00000000000E+00 0.  1.
         14    1    3    3    0    0 -0.54172286207E+02  0.17094371108E+02 -0.19116657618E+03  0.19942796686E+03  0.00000000000E+00 0. -1.
        -11    1    4    4    0    0 -0.11093066204E+03  0.78711909792E+02 -0.78308175477E+02  0.15695014135E+03  0.00000000000E+00 0.  1.
         11    1    4    4    0    0 -0.10892021246E+02 -0.22196715033E+02 -0.37504009397E+02  0.44920830424E+02  0.00000000000E+00 0. -1.
         21    1    1    2  503  502  0.21359667179E+02 -0.77996879636E+01  0.10338119438E+03  0.10585245328E+03  0.00000000000E+00 0.  1.
          1    1    1    2  501    0  0.16003325405E+03 -0.19001822402E+02 -0.25341958844E+03  0.30032182648E+03  0.00000000000E+00 0. -1.
<scales pt_clust_5="13000.00000" pt_clust_6="13000.00000" pt_clust_7="13000.00000" pt_clust_8="13000.00000" pt_clust_9="22.73918" pt_clust_10="13000.00000"></scales>
<clustering>
<clus scale="   22.739">  1  9  2 -1</clus>
<clus scale="   80.614">  5  6 -1 -1</clus>
<clus scale="   96.461">  7  8 -1 -1</clus>
<clus scale="  103.456">  2  5  1 -1</clus>
<clus scale="  134.604">  7 10 -1 -1</clus>
<clus scale="   22.739">  1  5  2 -1</clus>
</clustering>
</event>
<event>
10    4  0.2759992E-005  0.1611438E+03  0.7546771E-02  0.1215251E+00
          2   -1    0    0  502    0 -0.00000000000E+00  0.00000000000E+00  0.59939234195E+03  0.59939234195E+03  0.00000000000E+00 0. -1.
         21   -1    0    0  503  502  0.00000000000E+00 -0.00000000000E+00 -0.49892581802E+02  0.49892581802E+02  0.00000000000E+00 0. -1.
         24    2    1    2    0    0 -0.32642449297E+02 -0.10104654863E+02  0.13827189432E+03  0.16397472514E+03  0.81246293323E+02 0.  0.
         23    2    1    2    0    0  0.36436036642E+02 -0.13849735402E+02  0.20956125830E+03  0.23170151843E+03  0.90831011903E+02 0.  0.
        -13    1    3    3    0    0 -0.37613059188E+02  0.28445840709E+01  0.14408109651E+03  0.14893688680E+03  0.00000000000E+00 0.  1.
         14    1    3    3    0    0  0.49706098907E+01 -0.12949238934E+02 -0.58092021880E+01  0.15037838332E+02  0.00000000000E+00 0. -1.
        -11    1    4    4    0    0 -0.25807768224E+02  0.15212997095E+02  0.57202695410E+02  0.64572629987E+02  0.00000000000E+00 0.  1.
         11    1    4    4    0    0  0.62243804867E+02 -0.29062732497E+02  0.15235856289E+03  0.16712888844E+03  0.00000000000E+00 0. -1.
         21    1    1    2  503  501 -0.31886950159E+02  0.82338050789E+02  0.10431119459E+03  0.13666439739E+03  0.00000000000E+00 0. -1.
          1    1    1    2  501    0  0.28093362813E+02 -0.58383660524E+02  0.97355412936E+02  0.11694428279E+03  0.00000000000E+00 0. -1.
<scales pt_clust_5="13000.00000" pt_clust_6="13000.00000" pt_clust_7="13000.00000" pt_clust_8="13000.00000" pt_clust_9="89.40341" pt_clust_10="13000.00000"></scales>
<clustering>
<clus scale="   81.246">  5  6 -1 -1</clus>
<clus scale="   88.140">  1  5  2 -1</clus>
<clus scale="   89.403">  2  9  1 -1</clus>
<clus scale="   90.831">  7  8 -1 -1</clus>
<clus scale="   30.606">  7 10 -1 -1</clus>
<clus scale="   89.403">  2  5  1 -1</clus>
</clustering>
</event>
<event>
10    4  0.2759992E-005  0.2707135E+03  0.7546771E-02  0.1134854E+00
         21   -1    0    0  503  502  0.00000000000E+00  0.00000000000E+00  0.14416995400E+03  0.14416995400E+03  0.00000000000E+00 0. -1.
          2   -1    0    0  502    0 -0.00000000000E+00 -0.00000000000E+00 -0.42413266590E+03  0.42413266590E+03  0.00000000000E+00 0. -1.
         24    2    1    2    0    0  0.92118761592E+02  0.47476795583E+02 -0.75845890274E+02  0.15140687960E+03  0.80196831368E+02 0.  0.
         23    2    1    2    0    0  0.59104529898E+02  0.65121591395E+02 -0.10699436161E+03  0.16559922443E+03  0.90780739119E+02 0.  0.
        -11    1    3    3    0    0  0.29570044145E+02 -0.29990804429E+00 -0.65699025014E+02  0.72047479785E+02  0.00000000000E+00 0.  1.
         12    1    3    3    0    0  0.62548717448E+02  0.47776703627E+02 -0.10146865261E+02  0.79359399811E+02  0.00000000000E+00 0. -1.
        -11    1    4    4    0    0 -0.17656280809E+02  0.11948682944E+02  0.27591087494E+01  0.21497161608E+02  0.00000000000E+00 0.  1.
         11    1    4    4    0    0  0.76760810707E+02  0.53172908451E+02 -0.10975347035E+03  0.14410206282E+03  0.00000000000E+00 0. -1.
         21    1    1    2  503  501 -0.45664472110E+02 -0.26741837014E+02  0.33539952538E+02  0.62652200889E+02  0.00000000000E+00 0. -1.
          1    1    1    2  501    0 -0.10555881938E+03 -0.85856549964E+02 -0.13066241256E+03  0.18864431499E+03  0.00000000000E+00 0. -1.
<scales pt_clust_5="13000.00000" pt_clust_6="13000.00000" pt_clust_7="13000.00000" pt_clust_8="13000.00000" pt_clust_9="52.91852" pt_clust_10="13000.00000"></scales>
<clustering>
<clus scale="   52.919">  1  9  2 -1</clus>
<clus scale="   80.197">  5  6 -1 -1</clus>
<clus scale="   90.781">  7  8 -1 -1</clus>
<clus scale="  115.315">  2  5  1 -1</clus>
<clus scale="  102.198">  7 10 -1 -1</clus>
<clus scale="   52.919">  1  5  2 -1</clus>
</clustering>
</event>
<event>
10    4  0.2759992E-005  0.2176652E+03  0.7546771E-02  0.1161326E+00
          2   -1    0    0  502    0 -0.00000000000E+00  0.00000000000E+00  0.96153304282E+03  0.96153304282E+03  0.00000000000E+00 0. -1.
         21   -1    0    0  503  502  0.00000000000E+00 -0.00000000000E+00 -0.67634177489E+02  0.67634177489E+02  0.00000000000E+00 0. -1.
         24    2    1    2    0    0 -0.63312730254E+02 -0.41087106098E+02  0.35284000805E+02  0.11600399724E+03  0.80717498489E+02 0.  0.
         23    2    1    2    0    0 -0.84644207022E+00  0.10955062678E+03  0.72164131673E+03  0.73567007321E+03  0.91881501506E+02 0.  0.
        -13    1    3    3    0    0 -0.21710531605E+02  0.16873936603E+02  0.35189069712E+02  0.44658118481E+02  0.00000000000E+00 0.  1.
         14    1    3    3    0    0 -0.41602198649E+02 -0.57961042702E+02  0.94931092913E-01  0.71345878756E+02  0.00000000000E+00 0. -1.
        -11    1    4    4    0    0  0.35824476643E+02  0.94014703849E+02  0.57405246835E+03  0.58280219122E+03  0.00000000000E+00 0. -1.
         11    1    4    4    0    0 -0.36670918713E+02  0.15535922926E+02  0.14758884838E+03  0.15286788200E+03  0.00000000000E+00 0.  1.
         21    1    1    2  503  501  0.13090866724E+02 -0.35935293052E+02  0.14558560910E+02  0.40922704873E+02  0.00000000000E+00 0.  1.
          1    1    1    2  501    0  0.51068305599E+02 -0.32528227625E+02  0.12241498689E+03  0.13657044499E+03  0.00000000000E+00 0. -1.
<scales pt_clust_5="13000.00000" pt_clust_6="13000.00000" pt_clust_7="13000.00000" pt_clust_8="13000.00000" pt_clust_9="38.24547" pt_clust_10="13000.00000"></scales>
<clustering>
<clus scale="   38.245">  2  9  1 -1</clus>
<clus scale="   80.717">  5  6 -1 -1</clus>
<clus scale="   91.882">  7  8 -1 -1</clus>
<clus scale="   64.563">  7 10 -1 -1</clus>
<clus scale="  118.219">  1  5  2 -1</clus>
<clus scale="   38.245">  2  5  1 -1</clus>
</clustering>
</event>
<event>
10    4  0.2759992E-005  0.2355216E+03  0.7546771E-02  0.1145831E+00
          2   -1    0    0  502    0 -0.00000000000E+00  0.00000000000E+00  0.28420754701E+03  0.28420754701E+03  0.00000000000E+00 0. -1.
         21   -1    0    0  503  502  0.00000000000E+00 -0.00000000000E+00 -0.32208340745E+03  0.32208340745E+03  0.00000000000E+00 0.  1.
         24    2    1    2    0    0 -0.62718713188E+02 -0.85403202384E+02  0.76698289201E+02  0.15301044264E+03  0.79386548165E+02 0.  0.
         23    2    1    2    0    0 -0.26040559515E+02  0.10560519028E+03  0.11212249551E+03  0.17805715879E+03  0.85453676593E+02 0.  0.
        -11    1    3    3    0    0 -0.16524373299E+02  0.14371408128E+02  0.18155000921E+02  0.28446376622E+02  0.00000000000E+00 0.  1.
         12    1    3    3    0    0 -0.46194339890E+02 -0.99774610512E+02  0.58543288280E+02  0.12456406602E+03  0.00000000000E+00 0. -1.
        -11    1    4    4    0    0  0.13834192752E+02  0.92385532204E+02  0.93287329758E+02  0.13201892797E+03  0.00000000000E+00 0. -1.
         11    1    4    4    0    0 -0.39874752266E+02  0.13219658074E+02  0.18835165755E+02  0.46038230819E+02  0.00000000000E+00 0.  1.
         21    1    1    2  503  501  0.19320997474E+02 -0.22682985762E+02 -0.19770042298E+03  0.19993317891E+03  0.00000000000E+00 0.  1.
          1    1    1    2  501    0  0.69438275229E+02  0.24809978678E+01 -0.28996222178E+02  0.75290174112E+02  0.00000000000E+00 0. -1.
<scales pt_clust_5="13000.00000" pt_clust_6="13000.00000" pt_clust_7="13000.00000" pt_clust_8="13000.00000" pt_clust_9="29.79629" pt_clust_10="13000.00000"></scales>
<clustering>
<clus scale="   29.796">  2  9  1 -1</clus>
<clus scale="   79.387">  5  6 -1 -1</clus>
<clus scale="   85.454">  7  8 -1 -1</clus>
<clus scale="   77.937">  7 10 -1 -1</clus>
<clus scale="  134.401">  1  5  2 -1</clus>
<clus scale="   29.796">  2  5  1 -1</clus>
</clustering>
</event>
<event>
10    4  0.2759992E-005  0.5205484E+03  0.7546771E-02  0.1016904E+00
          2   -1    0    0  503    0 -0.00000000000E+00  0.00000000000E+00  0.34435341403E+04  0.34435341403E+04  0.00000000000E+00 0. -1.
         21   -1    0    0  501  502  0.00000000000E+00 -0.00000000000E+00 -0.74832908603E+02  0.74832908603E+02  0.00000000000E+00 0. -1.
         24    2    1    2    0    0  0.74638371290E+02  0.38174684526E+03  0.18236064972E+04  0.18661779982E+04  0.76013973554E+02 0.  0.
         23    2    1    2    0    0  0.99576475172E+02 -0.13919226159E+03  0.44303194600E+03  0.48352161631E+03  0.90696682249E+02 0.  0.
        -11    1    3    3    0    0 -0.99929670757E+01  0.70078773946E+02  0.25328519242E+03  0.26299103150E+03  0.00000000000E+00 0.  1.
         12    1    3    3    0    0  0.84631338365E+02  0.31166807131E+03  0.15703213047E+04  0.16031869667E+04  0.00000000000E+00 0. -1.
        -11    1    4    4    0    0  0.42997745135E+02 -0.40192158446E+02  0.26968824705E+03  0.27603616843E+03  0.00000000000E+00 0.  1.
         11    1    4    4    0    0  0.56578730038E+02 -0.99000103147E+02  0.17334369895E+03  0.20748544788E+03  0.00000000000E+00 0. -1.
         21    1    1    2  503  502  0.38986601049E+02  0.12834130576E+02  0.47014674005E+02  0.62410332004E+02  0.00000000000E+00 0.  1.
          1    1    1    2  501    0 -0.21320144751E+03 -0.25538871424E+03  0.10550481145E+04  0.11062571024E+04  0.00000000000E+00 0. -1.
<scales pt_clust_5="13000.00000" pt_clust_6="13000.00000" pt_clust_7="13000.00000" pt_clust_8="13000.00000" pt_clust_9="41.04473" pt_clust_10="13000.00000"></scales>
<clustering>
<clus scale="   41.045">  2  9  1 -1</clus>
<clus scale="   76.014">  5  6 -1 -1</clus>
<clus scale="   90.697">  7  8 -1 -1</clus>
<clus scale="  319.504">  7 10 -1 -1</clus>
<clus scale="  402.742">  1  5  2 -1</clus>
<clus scale="   41.045">  2  5  1 -1</clus>
</clustering>
</event>
<event>
10    4  0.2759992E-005  0.3325583E+03  0.7546771E-02  0.1118151E+00
          2   -1    0    0  502    0 -0.00000000000E+00  0.00000000000E+00  0.96530395311E+03  0.96530395311E+03  0.00000000000E+00 0. -1.
         21   -1    0    0  503  502  0.00000000000E+00 -0.00000000000E+00 -0.31748495451E+03  0.31748495451E+03  0.00000000000E+00 0. -1.
         24    2    1    2    0    0  0.31854327030E+02 -0.39487018971E+02  0.14877629559E+03  0.17598139979E+03  0.79127391736E+02 0.  0.
         23    2    1    2    0    0  0.18839622216E+03  0.29814793121E+02  0.57511816746E+03  0.61271365446E+03  0.90967342482E+02 0.  0.
        -11    1    3    3    0    0 -0.43019771532E+01  0.21289393004E+02  0.22641276092E+02  0.31374713464E+02  0.00000000000E+00 0.  1.
         12    1    3    3    0    0  0.36156304184E+02 -0.60776411974E+02  0.12613501950E+03  0.14460668632E+03  0.00000000000E+00 0. -1.
        -11    1    4    4    0    0  0.95519209027E+02 -0.96664479901E+00  0.16110596795E+03  0.18729652054E+03  0.00000000000E+00 0. -1.
         11    1    4    4    0    0  0.92877013136E+02  0.30781437920E+02  0.41401219951E+03  0.42541713392E+03  0.00000000000E+00 0.  1.
         21    1    1    2  503  501 -0.20211398023E+03 -0.93584393583E+02 -0.22196238447E+03  0.31444458947E+03  0.00000000000E+00 0. -1.
          1    1    1    2  501    0 -0.18136568960E+02  0.10325661943E+03  0.14588692001E+03  0.17964926390E+03  0.00000000000E+00 0. -1.
<scales pt_clust_5="13000.00000" pt_clust_6="13000.00000" pt_clust_7="13000.00000" pt_clust_8="13000.00000" pt_clust_9="222.03764" pt_clust_10="13000.00000"></scales>
<clustering>
<clus scale="   79.127">  5  6 -1 -1</clus>
<clus scale="   90.967">  7  8 -1 -1</clus>
<clus scale="   93.995">  1  5  2 -1</clus>
<clus scale="   95.965">  7 10 -1 -1</clus>
<clus scale="  222.038">  2  9  1 -1</clus>
<clus scale="  222.038">  2  5  1 -1</clus>
</clustering>
</event>
<event>
10    4  0.2759992E-005  0.2540819E+03  0.7546771E-02  0.1147703E+00
         21   -1    0    0  501  502  0.00000000000E+00  0.00000000000E+00  0.13526279180E+03  0.13526279180E+03  0.00000000000E+00 0. -1.
          2   -1    0    0  503    0 -0.00000000000E+00 -0.00000000000E+00 -0.26555791182E+03  0.26555791182E+03  0.00000000000E+00 0. -1.
         24    2    1    2    0    0 -0.62063592818E+02  0.19538532211E+01 -0.38184196934E+02  0.10831346796E+03  0.80112841361E+02 0.  0.
         23    2    1    2    0    0 -0.22783627723E+02  0.70603017408E+02 -0.70225960118E+01  0.11924984296E+03  0.93098487802E+02 0.  0.
        -11    1    3    3    0    0  0.17117001487E+02  0.12258815118E+02 -0.12253320219E+02  0.24360093276E+02  0.00000000000E+00 0.  1.
         12    1    3    3    0    0 -0.79180594305E+02 -0.10304961897E+02 -0.25930876715E+02  0.83953374688E+02  0.00000000000E+00 0. -1.
        -11    1    4    4    0    0 -0.50680552581E+02  0.70994516563E+02  0.79443708113E+01  0.87589113590E+02  0.00000000000E+00 0. -1.
         11    1    4    4    0    0  0.27896924858E+02 -0.39149915429E+00 -0.14966966823E+02  0.31660729366E+02  0.00000000000E+00 0.  1.
         21    1    1    2  503  502 -0.44351855399E+01  0.21057835095E+02 -0.10752302045E+02  0.24056502009E+02  0.00000000000E+00 0. -1.
          1    1    1    2  501    0  0.89282406081E+02 -0.93614705724E+02 -0.74336025028E+02  0.14920089068E+03  0.00000000000E+00 0. -1.
<scales pt_clust_5="13000.00000" pt_clust_6="13000.00000" pt_clust_7="13000.00000" pt_clust_8="13000.00000" pt_clust_9="21.51985" pt_clust_10="13000.00000"></scales>
<clustering>
<clus scale="   21.520">  1  9  2 -1</clus>
<clus scale="   80.113">  5  6 -1 -1</clus>
<clus scale="   93.098">  7  8 -1 -1</clus>
<clus scale="  102.375">  2  5  1 -1</clus>
<clus scale="   97.834">  7 10 -1 -1</clus>
<clus scale="   21.520">  1  5  2 -1</clus>
</clustering>
</event>
<event>
10    4  0.2759992E-005  0.1517341E+03  0.7546771E-02  0.1225036E+00
          2   -1    0    0  503    0 -0.00000000000E+00  0.00000000000E+00  0.61925843107E+03  0.61925843107E+03  0.00000000000E+00 0. -1.
         21   -1    0    0  501  502  0.00000000000E+00 -0.00000000000E+00 -0.28563355960E+02  0.28563355960E+02  0.00000000000E+00 0.  1.
         24    2    1    2    0    0 -0.19769048472E+02  0.30510555134E+02  0.27719397322E+03  0.29080939473E+03  0.80074315626E+02 0.  0.
         23    2    1    2    0    0  0.18115042439E+02 -0.52647000330E+02  0.18765759172E+03  0.21582314643E+03  0.90908731132E+02 0.  0.
        -13    1    3    3    0    0  0.43328460870E+01  0.21732288856E+02  0.13664053935E+02  0.26034060461E+02  0.00000000000E+00 0.  1.
         14    1    3    3    0    0 -0.24101894559E+02  0.87782662781E+01  0.26352991929E+03  0.26477533427E+03  0.00000000000E+00 0. -1.
        -11    1    4    4    0    0 -0.37282070736E+02 -0.20803609739E+02  0.73544607063E+02  0.85038533645E+02  0.00000000000E+00 0.  1.
         11    1    4    4    0    0  0.55397113174E+02 -0.31843390591E+02  0.11411298466E+03  0.13078461278E+03  0.00000000000E+00 0. -1.
         21    1    1    2  503  502  0.42223913334E+01 -0.19810493883E+02  0.26759129376E+02  0.33560918661E+02  0.00000000000E+00 0.  1.
          1    1    1    2  501    0 -0.25683853005E+01  0.41946939078E+02  0.99084380790E+02  0.10762832721E+03  0.00000000000E+00 0. -1.
<scales pt_clust_5="13000.00000" pt_clust_6="13000.00000" pt_clust_7="13000.00000" pt_clust_8="13000.00000" pt_clust_9="20.25547" pt_clust_10="13000.00000"></scales>
<clustering>
<clus scale="   20.255">  2  9  1 -1</clus>
<clus scale="   80.074">  5  6 -1 -1</clus>
<clus scale="   85.973">  1  5  2 -1</clus>
<clus scale="   90.909">  7  8 -1 -1</clus>
<clus scale="   46.245">  7 10 -1 -1</clus>
<clus scale="   20.255">  2  5  1 -1</clus>
</clustering>
</event>
<event>
10    4  0.2759992E-005  0.2479602E+03  0.7546771E-02  0.1153763E+00
         21   -1    0    0  501  502  0.00000000000E+00  0.00000000000E+00  0.16960697981E+03  0.16960697981E+03  0.00000000000E+00 0.  1.
          2   -1    0    0  503    0 -0.00000000000E+00 -0.00000000000E+00 -0.56847814727E+03  0.56847814727E+03  0.00000000000E+00 0. -1.
         24    2    1    2    0    0  0.62736068797E+02 -0.36391858488E+02 -0.37957502248E+03  0.39106909813E+03  0.59980497906E+02 0.  0.
         23    2    1    2    0    0 -0.62401992841E+02  0.66054878522E+02 -0.13482518045E+03  0.18773262249E+03  0.93853356766E+02 0.  0.
        -11    1    3    3    0    0  0.51318996391E+02  0.18204454233E+00 -0.15571073866E+03  0.16394970773E+03  0.00000000000E+00 0.  1.
         12    1    3    3    0    0  0.11417072406E+02 -0.36573903030E+02 -0.22386428382E+03  0.22711939040E+03  0.00000000000E+00 0. -1.
        -11    1    4    4    0    0 -0.81456253823E+02  0.25853995571E+02 -0.97573917335E+02  0.12970820991E+03  0.00000000000E+00 0. -1.
         11    1    4    4    0    0  0.19054260981E+02  0.40200882951E+02 -0.37251263116E+02  0.58024412580E+02  0.00000000000E+00 0.  1.
         21    1    1    2  503  502  0.43333214045E+02  0.15340899317E+02  0.59521823194E+02  0.75206103925E+02  0.00000000000E+00 0.  1.
          1    1    1    2  501    0 -0.43667290001E+02 -0.45003919351E+02  0.56007212283E+02  0.84077302530E+02  0.00000000000E+00 0. -1.
<scales pt_clust_5="13000.00000" pt_clust_6="13000.00000" pt_clust_7="13000.00000" pt_clust_8="13000.00000" pt_clust_9="45.96858" pt_clust_10="13000.00000"></scales>
<clustering>
<clus scale="   45.969">  1  9  2 -1</clus>
<clus scale="   59.980">  5  6 -1 -1</clus>
<clus scale="   93.853">  7  8 -1 -1</clus>
<clus scale="   37.220">  7 10 -1 -1</clus>
<clus scale="   95.433">  2  5  1 -1</clus>
<clus scale="   45.969">  1  5  2 -1</clus>
</clustering>
</event>
<event>
10    4  0.2759992E-005  0.4405335E+03  0.7546771E-02  0.1069414E+00
         21   -1    0    0  503  502  0.00000000000E+00  0.00000000000E+00  0.22751208493E+03  0.22751208493E+03  0.00000000000E+00 0.  1.
          2   -1    0    0  502    0 -0.00000000000E+00 -0.00000000000E+00 -0.50999946235E+03  0.50999946235E+03  0.00000000000E+00 0. -1.
         24    2    1    2    0    0  0.94688636254E+02  0.74917561809E+02 -0.41058050287E+02  0.15106946665E+03  0.80979264992E+02 0.  0.
         23    2    1    2    0    0  0.43560357965E+00 -0.12542561900E+01  0.13779002779E+03  0.16579434056E+03  0.92194949402E+02 0.  0.
        -13    1    3    3    0    0  0.76502087890E+02  0.35134459056E+02  0.89160852549E+01  0.84655160746E+02  0.00000000000E+00 0.  1.
         14    1    3    3    0    0  0.18186548364E+02  0.39783102753E+02 -0.49974135542E+02  0.66414305908E+02  0.00000000000E+00 0. -1.
        -13    1    4    4    0    0  0.19364484824E+02 -0.41287576044E+02  0.88327848080E+02  0.99405512697E+02  0.00000000000E+00 0.  1.
         13    1    4    4    0    0 -0.18928881244E+02  0.40033319854E+02  0.49462179705E+02  0.66388827862E+02  0.00000000000E+00 0. -1.
         21    1    1    2  503  501 -0.35233470591E+02  0.40149503142E+02 -0.11333011665E+03  0.12528804968E+03  0.00000000000E+00 0.  1.
          1    1    1    2  501    0 -0.59890769242E+02 -0.11381280876E+03 -0.26588923827E+03  0.29535969039E+03  0.00000000000E+00 0. -1.
<scales pt_clust_5="13000.00000" pt_clust_6="13000.00000" pt_clust_7="13000.00000" pt_clust_8="13000.00000" pt_clust_9="53.41707" pt_clust_10="13000.00000"></scales>
<clustering>
<clus scale="   53.417">  1  9  2 -1</clus>
<clus scale="   80.979">  5  6 -1 -1</clus>
<clus scale="   92.195">  7  8 -1 -1</clus>
<clus scale="  127.380">  7 10 -1 -1</clus>
<clus scale="  145.427">  2  5  1 -1</clus>
<clus scale="   53.417">  1  5  2 -1</clus>
</clustering>
</event>
<event>
10    4  0.2759992E-005  0.2228812E+03  0.7546771E-02  0.1161068E+00
         21   -1    0    0  503  502  0.00000000000E+00  0.00000000000E+00  0.24418181626E+03  0.24418181626E+03  0.00000000000E+00 0. -1.
          2   -1    0    0  502    0 -0.00000000000E+00 -0.00000000000E+00 -0.12511108864E+04  0.12511108864E+04  0.00000000000E+00 0. -1.
         24    2    1    2    0    0  0.75841395096E+02  0.52822117565E+02 -0.81581004898E+03  0.82495848152E+03  0.80426158079E+02 0.  0.
         23    2    1    2    0    0  0.84361872002E+02  0.78579428638E+01 -0.26002473139E+03  0.28881334613E+03  0.92852653459E+02 0.  0.
        -13    1    3    3    0    0  0.61727443329E+02  0.44457893135E+01 -0.27864788271E+03  0.28543770747E+03  0.00000000000E+00 0.  1.
         14    1    3    3    0    0  0.14113951767E+02  0.48376328252E+02 -0.53716216627E+03  0.53952077406E+03  0.00000000000E+00 0. -1.
        -13    1    4    4    0    0  0.23671434453E+01 -0.30073785419E+02 -0.10639117441E+03  0.11058534229E+03  0.00000000000E+00 0.  1.
         13    1    4    4    0    0  0.81994728557E+02  0.37931728283E+02 -0.15363355698E+03  0.17822800384E+03  0.00000000000E+00 0. -1.
         21    1    1    2  503  501 -0.79138538234E+02 -0.83517849288E+02  0.19704792730E+03  0.22817980856E+03  0.00000000000E+00 0. -1.
          1    1    1    2  501    0 -0.81064728864E+02  0.22837788859E+02 -0.12814221707E+03  0.15334106645E+03  0.00000000000E+00 0. -1.
<scales pt_clust_5="13000.00000" pt_clust_6="13000.00000" pt_clust_7="13000.00000" pt_clust_8="13000.00000" pt_clust_9="115.05711" pt_clust_10="13000.00000"></scales>
<clustering>
<clus scale="   80.426">  5  6 -1 -1</clus>
<clus scale="   92.853">  7  8 -1 -1</clus>
<clus scale="   84.220">  7 10 -1 -1</clus>
<clus scale="  115.057">  1  9  2 -1</clus>
<clus scale="  110.772">  2  5  1 -1</clus>
<clus scale="  115.057">  1  5  2 -1</clus>
</clustering>
</event>
<event>
10    4  0.2759992E-005  0.6870996E+03  0.7546771E-02  0.1040293E+00
          2   -1    0    0  503    0 -0.00000000000E+00  0.00000000000E+00  0.32319518431E+03  0.32319518431E+03  0.00000000000E+00 0. -1.
         21   -1    0    0  501  502  0.00000000000E+00 -0.00000000000E+00 -0.56722987499E+03  0.56722987499E+03  0.00000000000E+00 0.  1.
         24    2    1    2    0    0 -0.24379022670E+02 -0.16572954438E+02  0.82925231831E+01  0.86710401858E+02  0.81122920833E+02 0.  0.
         23    2    1    2    0    0  0.11885301114E+03  0.16986715272E+03 -0.38017537534E+03  0.44257835137E+03  0.91440654282E+02 0.  0.
        -11    1    3    3    0    0  0.14299979358E+02 -0.32516811073E+02 -0.15303683063E+02  0.38678613306E+02  0.00000000000E+00 0.  1.
         12    1    3    3    0    0 -0.38679002028E+02  0.15943856635E+02  0.23596206246E+02  0.48031788552E+02  0.00000000000E+00 0. -1.
        -13    1    4    4    0    0  0.61103531454E+02  0.64971752469E+02 -0.25131283140E+03  0.26667041343E+03  0.00000000000E+00 0.  1.
         13    1    4    4    0    0  0.57749479690E+02  0.10489540025E+03 -0.12886254394E+03  0.17590793793E+03  0.00000000000E+00 0. -1.
         21    1    1    2  503  502 -0.44020101529E+02  0.57195781429E+01 -0.81886556563E+02  0.93144463381E+02  0.00000000000E+00 0.  1.
          1    1    1    2  501    0 -0.50453886945E+02 -0.15901377642E+03  0.20973471803E+03  0.26799184269E+03  0.00000000000E+00 0. -1.
<scales pt_clust_5="13000.00000" pt_clust_6="13000.00000" pt_clust_7="13000.00000" pt_clust_8="13000.00000" pt_clust_9="44.39012" pt_clust_10="13000.00000"></scales>
<clustering>
<clus scale="   44.390">  2  9  1 -1</clus>
<clus scale="   81.123">  5  6 -1 -1</clus>
<clus scale="   87.310">  1  5  2 -1</clus>
<clus scale="   91.441">  7  8 -1 -1</clus>
<clus scale="  189.488">  7 10 -1 -1</clus>
<clus scale="   44.390">  2  5  1 -1</clus>
</clustering>
</event>
<event>
10    4  0.2759992E-005  0.1511647E+03  0.7546771E-02  0.1226167E+00
         -3   -1    0    0    0  501 -0.00000000000E+00  0.00000000000E+00  0.69794043747E+03  0.69794043747E+03  0.00000000000E+00 0.  1.
         21   -1    0    0  501  502  0.00000000000E+00 -0.00000000000E+00 -0.72345078477E+02  0.72345078477E+02  0.00000000000E+00 0. -1.
         24    2    1    2    0    0  0.20993643439E+02  0.21518190058E+02  0.62993529969E+02  0.10563920753E+03  0.79294966936E+02 0.  0.
         23    2    1    2    0    0 -0.20450807066E+02  0.27914771740E+01  0.24519814286E+03  0.26243773023E+03  0.91243658025E+02 0.  0.
        -11    1    3    3    0    0  0.50498849963E+02  0.19878680181E+02  0.48235425291E+02  0.72608209083E+02  0.00000000000E+00 0.  1.
         12    1    3    3    0    0 -0.29505206524E+02  0.16395098777E+01  0.14758104678E+02  0.33030998446E+02  0.00000000000E+00 0. -1.
        -11    1    4    4    0    0  0.11353512233E+02  0.40498764497E+02  0.85343152137E+02  0.95144657140E+02  0.00000000000E+00 0.  1.
         11    1    4    4    0    0 -0.31804319298E+02 -0.37707287323E+02  0.15985499073E+03  0.16729307309E+03  0.00000000000E+00 0. -1.
         21    1    1    2  503  502 -0.14479177566E+02 -0.74757596424E+02 -0.43068632273E+01  0.76268564146E+02  0.00000000000E+00 0. -1.
         -4    1    1    2    0  503  0.13936341193E+02  0.50447929192E+02  0.32171054939E+03  0.32594001404E+03  0.00000000000E+00 0.  1.
<scales pt_clust_5="13000.00000" pt_clust_6="13000.00000" pt_clust_7="13000.00000" pt_clust_8="13000.00000" pt_clust_9="76.14686" pt_clust_10="13000.00000"></scales>
<clustering>
<clus scale="   76.147">  2  9  1 -1</clus>
<clus scale="   79.295">  5  6 -1 -1</clus>
<clus scale="   84.926">  1  5  2 -1</clus>
<clus scale="   91.244">  7  8 -1 -1</clus>
<clus scale="   36.907">  7 10 -1 -1</clus>
<clus scale="   76.147">  2  5  1 -1</clus>
</clustering>
</event>
<event>
10    4  0.2759992E-005  0.5499777E+03  0.7546771E-02  0.1062073E+00
          2   -1    0    0  503    0 -0.00000000000E+00  0.00000000000E+00  0.21938342323E+03  0.21938342323E+03  0.00000000000E+00 0. -1.
         21   -1    0    0  501  502  0.00000000000E+00 -0.00000000000E+00 -0.13834492410E+04  0.13834492410E+04  0.00000000000E+00 0. -1.
         24    2    1    2    0    0 -0.45382338056E+01  0.42732777868E+02 -0.28864103029E+02  0.96020937065E+02  0.80871490903E+02 0.  0.
         23    2    1    2    0    0 -0.25242687668E+03  0.84026628739E+02 -0.25339312512E+03  0.37784304635E+03  0.88190075442E+02 0.  0.
        -13    1    3    3    0    0 -0.27816769233E+02 -0.42968962448E+01  0.10897629414E+02  0.30182682033E+02  0.00000000000E+00 0.  1.
         14    1    3    3    0    0  0.23278535427E+02  0.47029674113E+02 -0.39761732443E+02  0.65838255032E+02  0.00000000000E+00 0. -1.
        -11    1    4    4    0    0 -0.13598515049E+03  0.19681061589E+02 -0.17821614171E+03  0.22503399411E+03  0.00000000000E+00 0.  1.
         11    1    4    4    0    0 -0.11644172619E+03  0.64345567150E+02 -0.75176983403E+02  0.15280905223E+03  0.00000000000E+00 0. -1.
         21    1    1    2  503  502  0.16702778527E+03  0.95834204769E+02 -0.86733648839E+03  0.88845656053E+03  0.00000000000E+00 0. -1.
          1    1    1    2  501    0  0.89937325222E+02 -0.22259361138E+03 -0.14472101238E+02  0.24051212029E+03  0.00000000000E+00 0. -1.
<scales pt_clust_5="13000.00000" pt_clust_6="13000.00000" pt_clust_7="13000.00000" pt_clust_8="13000.00000" pt_clust_9="193.56596" pt_clust_10="13000.00000"></scales>
<clustering>
<clus scale="   80.871">  5  6 -1 -1</clus>
<clus scale="   88.190">  7  8 -1 -1</clus>
<clus scale="   91.580">  1  5  2 -1</clus>
<clus scale="  193.566">  2  9  1 -1</clus>
<clus scale="  216.005">  7 10 -1 -1</clus>
<clus scale="  193.566">  2  5  1 -1</clus>
</clustering>
</event>
<event>
10    4  0.2759992E-005  0.5489370E+03  0.7546771E-02  0.1010352E+00
         21   -1    0    0  501  502  0.00000000000E+00  0.00000000000E+00  0.20119768138E+03  0.20119768138E+03  0.00000000000E+00 0. -1.
          2   -1    0    0  503    0 -0.00000000000E+00 -0.00000000000E+00 -0.18371391934E+04  0.18371391934E+04  0.00000000000E+00 0. -1.
         24    2    1    2    0    0 -0.43352722382E+03  0.87443227469E+02 -0.31150710422E+03  0.54705525843E+03  0.81489925631E+02 0.  0.
         23    2    1    2    0    0 -0.24942577873E+02 -0.11129861066E+03 -0.38437676363E+03  0.41031933263E+03  0.87217804286E+02 0.  0.
        -11    1    3    3    0    0 -0.10549432456E+03 -0.86589796996E+01 -0.96513020866E+02  0.14324382583E+03  0.00000000000E+00 0.  1.
         12    1    3    3    0    0 -0.32803289926E+03  0.96102207169E+02 -0.21499408335E+03  0.40381143260E+03  0.00000000000E+00 0. -1.
        -13    1    4    4    0    0 -0.16744653436E+02 -0.70400152341E+02 -0.34650181988E+03  0.35397750783E+03  0.00000000000E+00 0.  1.
         13    1    4    4    0    0 -0.81979244367E+01 -0.40898458317E+02 -0.37874943753E+02  0.56341824802E+02  0.00000000000E+00 0. -1.
         21    1    1    2  503  502  0.65865268337E+02  0.71624781938E+02 -0.55517660854E+02  0.11202925344E+03  0.00000000000E+00 0. -1.
          1    1    1    2  501    0  0.39260453336E+03 -0.47769398749E+02 -0.88453998333E+03  0.96893303029E+03  0.00000000000E+00 0. -1.
<scales pt_clust_5="13000.00000" pt_clust_6="13000.00000" pt_clust_7="13000.00000" pt_clust_8="13000.00000" pt_clust_9="97.30541" pt_clust_10="13000.00000"></scales>
<clustering>
<clus scale="   81.490">  5  6 -1 -1</clus>
<clus scale="   87.218">  7  8 -1 -1</clus>
<clus scale="   97.305">  1  9  2 -1</clus>
<clus scale="  409.797">  7 10 -1 -1</clus>
<clus scale="  419.837">  2  5  1 -1</clus>
<clus scale="   97.305">  1  5  2 -1</clus>
</clustering>
</event>
<event>
10    4  0.2759992E-005  0.1183135E+04  0.7546771E-02  0.9293565E-01
          2   -1    0    0  503    0 -0.00000000000E+00  0.00000000000E+00  0.12240042598E+04  0.12240042598E+04  0.00000000000E+00 0. -1.
         21   -1    0    0  501  502  0.00000000000E+00 -0.00000000000E+00 -0.11578094950E+04  0.11578094950E+04  0.00000000000E+00 0. -1.
         24    2    1    2    0    0  0.45928130477E+03 -0.44512229086E+03  0.68345511618E+03  0.93951489035E+03  0.80648388910E+02 0.  0.
         23    2    1    2    0    0 -0.46044947768E+02  0.22114461576E+03 -0.71305828571E+03  0.75369643651E+03  0.92634341833E+02 0.  0.
        -13    1    3    3    0    0  0.18454078243E+03 -0.20896157185E+03  0.34672243527E+03  0.44490075973E+03  0.00000000000E+00 0.  1.
         14    1    3    3    0    0  0.27474052234E+03 -0.23616071902E+03  0.33673268091E+03  0.49461413063E+03  0.00000000000E+00 0. -1.
        -13    1    4    4    0    0 -0.28657945723E+02  0.12154635037E+03 -0.53061015500E+03  0.54510726443E+03  0.00000000000E+00 0. -1.
         13    1    4    4    0    0 -0.17387002045E+02  0.99598265391E+02 -0.18244813071E+03  0.20858917208E+03  0.00000000000E+00 0.  1.
         21    1    1    2  503  502 -0.89707682743E+02 -0.16343775953E+02 -0.17894870680E+03  0.20084129809E+03  0.00000000000E+00 0. -1.
          1    1    1    2  501    0 -0.32352867426E+03  0.24032145106E+03  0.27474664116E+03  0.48776112979E+03  0.00000000000E+00 0. -1.
<scales pt_clust_5="13000.00000" pt_clust_6="13000.00000" pt_clust_7="13000.00000" pt_clust_8="13000.00000" pt_clust_9="91.18436" pt_clust_10="13000.00000"></scales>
<clustering>
<clus scale="   80.648">  5  6 -1 -1</clus>
<clus scale="   91.184">  2  9  1 -1</clus>
<clus scale="   92.634">  7  8 -1 -1</clus>
<clus scale="  409.938">  7 10 -1 -1</clus>
<clus scale="  637.768">  1  5  2 -1</clus>
<clus scale="   91.184">  2  5  1 -1</clus>
</clustering>
</event>
<event>
10    4  0.2759992E-005  0.3528178E+03  0.7546771E-02  0.1066936E+00
          2   -1    0    0  503    0 -0.00000000000E+00  0.00000000000E+00  0.97162762489E+03  0.97162762489E+03  0.00000000000E+00 0. -1.
         21   -1    0    0  501  502  0.00000000000E+00 -0.00000000000E+00 -0.67458808425E+03  0.67458808425E+03  0.00000000000E+00 0. -1.
         24    2    1    2    0    0 -0.53552435777E+02  0.35025085645E+03  0.68679567847E+03  0.77810140549E+03  0.90608870593E+02 0.  0.
         23    2    1    2    0    0  0.96294735478E+01 -0.27210000869E+02  0.61626701496E+01  0.96627846672E+02  0.92010061086E+02 0.  0.
        -13    1    3    3    0    0 -0.17588027971E+02  0.12651944491E+02  0.18411651899E+02  0.28432364534E+02  0.00000000000E+00 0.  1.
         14    1    3    3    0    0 -0.35964407805E+02  0.33759891196E+03  0.66838402657E+03  0.74966904096E+03  0.00000000000E+00 0. -1.
        -11    1    4    4    0    0  0.17055220556E+02  0.13749820657E+02 -0.32910492756E+02  0.39535283605E+02  0.00000000000E+00 0. -1.
         11    1    4    4    0    0 -0.74257470080E+01 -0.40959821526E+02  0.39073162906E+02  0.57092563067E+02  0.00000000000E+00 0.  1.
         21    1    1    2  503  502 -0.13546598483E+03 -0.25693029779E+03 -0.48126282722E+03  0.56211931103E+03  0.00000000000E+00 0. -1.
          1    1    1    2  501    0  0.17938894706E+03 -0.66110557797E+02  0.85344019242E+02  0.20936714594E+03  0.00000000000E+00 0. -1.
<scales pt_clust_5="13000.00000" pt_clust_6="13000.00000" pt_clust_7="13000.00000" pt_clust_8="13000.00000" pt_clust_9="290.45518" pt_clust_10="13000.00000"></scales>
<clustering>
<clus scale="   90.609">  5  6 -1 -1</clus>
<clus scale="   92.010">  7  8 -1 -1</clus>
<clus scale="  191.183">  7 10 -1 -1</clus>
<clus scale="  290.455">  2  9  1 -1</clus>
<clus scale="  303.097">  1  5  2 -1</clus>
<clus scale="  290.455">  2  5  1 -1</clus>
</clustering>
</event>
<event>
10    4  0.2759992E-005  0.1411173E+03  0.7546771E-02  0.1223212E+00
         -1   -1    0    0    0  501 -0.00000000000E+00  0.00000000000E+00  0.41640802687E+03  0.41640802687E+03  0.00000000000E+00 0.  1.
         21   -1    0    0  503  502  0.00000000000E+00 -0.00000000000E+00 -0.52622445267E+03  0.52622445267E+03  0.00000000000E+00 0.  1.
         24    2    1    2    0    0  0.34186212005E+02  0.68427499072E+02  0.37382166629E+03  0.38992141814E+03  0.80281096273E+02 0.  0.
         23    2    1    2    0    0 -0.67488713705E+02 -0.24461979783E+02 -0.39271641049E+03  0.40963029310E+03  0.91747931971E+02 0.  0.
        -11    1    3    3    0    0  0.48598353040E+02  0.78640169725E+02  0.32910824944E+03  0.34184545640E+03  0.00000000000E+00 0.  1.
         12    1    3    3    0    0 -0.14412141035E+02 -0.10212670653E+02  0.44713416845E+02  0.48075961738E+02  0.00000000000E+00 0. -1.
        -11    1    4    4    0    0 -0.45425692618E+02 -0.55725575697E+02 -0.31374345012E+03  0.32187541973E+03  0.00000000000E+00 0.  1.
         11    1    4    4    0    0 -0.22063021088E+02  0.31263595914E+02 -0.78972960377E+02  0.87754873367E+02  0.00000000000E+00 0. -1.
         21    1    1    2  503  501  0.61147534314E+02 -0.18794589919E+02 -0.28036017370E+02  0.69844655005E+02  0.00000000000E+00 0.  1.
         -2    1    1    2    0  502 -0.27845032614E+02 -0.25170929370E+02 -0.62885664220E+02  0.73236113298E+02  0.00000000000E+00 0.  1.
<scales pt_clust_5="13000.00000" pt_clust_6="13000.00000" pt_clust_7="13000.00000" pt_clust_8="13000.00000" pt_clust_9="63.97076" pt_clust_10="13000.00000"></scales>
<clustering>
<clus scale="   63.971">  2  9  1 -1</clus>
<clus scale="   80.281">  5  6 -1 -1</clus>
<clus scale="   91.748">  7  8 -1 -1</clus>
<clus scale="   33.786">  7 10 -1 -1</clus>
<clus scale="  111.015">  1  5  2 -1</clus>
<clus scale="   63.971">  2  5  1 -1</clus>
</clustering>
</event>
<event>
10    4  0.2759992E-005  0.2660231E+03  0.7546771E-02  0.1148873E+00
         -3   -1    0    0    0  501 -0.00000000000E+00  0.00000000000E+00  0.11071702575E+03  0.11071702575E+03  0.00000000000E+00 0.  1.
         21   -1    0    0  501  502  0.00000000000E+00 -0.00000000000E+00 -0.56022480205E+03  0.56022480205E+03  0.00000000000E+00 0.  1.
         24    2    1    2    0    0  0.41754039159E+01 -0.41917288058E+02 -0.32143075799E+03  0.33366668026E+03  0.79001444916E+02 0.  0.
         23    2    1    2    0    0  0.32496566619E+02 -0.20450187882E+02 -0.16690971491E+03  0.19364085262E+03  0.90353139650E+02 0.  0.
        -11    1    3    3    0    0  0.19951903506E+02 -0.47190553026E+02 -0.10744683881E+03  0.11903717873E+03  0.00000000000E+00 0.  1.
         12    1    3    3    0    0 -0.15776499590E+02  0.52732649682E+01 -0.21398391918E+03  0.21462950153E+03  0.00000000000E+00 0. -1.
        -13    1    4    4    0    0 -0.29162841166E+02  0.80221545241E+01 -0.52777112705E+02  0.60829679381E+02  0.00000000000E+00 0.  1.
         13    1    4    4    0    0  0.61659407784E+02 -0.28472342407E+02 -0.11413260220E+03  0.13281117324E+03  0.00000000000E+00 0. -1.
         21    1    1    2  503  502 -0.36844220057E+02  0.18383659222E+02 -0.37398108360E+02  0.55624401003E+02  0.00000000000E+00 0. -1.
         -4    1    1    2    0  503  0.17224952284E+00  0.43983816719E+02  0.76230804954E+02  0.88009893915E+02  0.00000000000E+00 0.  1.
<scales pt_clust_5="13000.00000" pt_clust_6="13000.00000" pt_clust_7="13000.00000" pt_clust_8="13000.00000" pt_clust_9="41.17591" pt_clust_10="13000.00000"></scales>
<clustering>
<clus scale="   41.176">  2  9  1 -1</clus>
<clus scale="   79.001">  5  6 -1 -1</clus>
<clus scale="   86.753">  1  5  2 -1</clus>
<clus scale="   90.353">  7  8 -1 -1</clus>
<clus scale="   25.006">  7 10 -1 -1</clus>
<clus scale="   41.176">  2  5  1 -1</clus>
</clustering>
</event>
<event>
10    4  0.2759992E-005  0.3984293E+03  0.7546771E-02  0.1081922E+00
         21   -1    0    0  503  502  0.00000000000E+00  0.00000000000E+00  0.73639154407E+03  0.73639154407E+03  0.00000000000E+00 0.  1.
         -3   -1    0    0    0  501 -0.00000000000E+00 -0.00000000000E+00 -0.12974758490E+03  0.12974758490E+03  0.00000000000E+00 0.  1.
         24    2    1    2    0    0 -0.21758066119E+02  0.10792057708E+03  0.38006510347E+02  0.14116516094E+03  0.79767433436E+02 0.  0.
         23    2    1    2    0    0 -0.14762970918E+03  0.17791584786E+02  0.17956171540E+03  0.25031041915E+03  0.91114350014E+02 0.  0.
        -13    1    3    3    0    0  0.86037255347E+01  0.10497350355E+03  0.31954488054E+02  0.11006611580E+03  0.00000000000E+00 0.  1.
         14    1    3    3    0    0 -0.30361791654E+02  0.29470735270E+01  0.60520222935E+01  0.31099045140E+02  0.00000000000E+00 0. -1.
        -13    1    4    4    0    0 -0.12537092955E+03  0.43935112381E+01  0.18523637507E+03  0.22371787494E+03  0.00000000000E+00 0.  1.
         13    1    4    4    0    0 -0.22258779628E+02  0.13398073548E+02 -0.56746596748E+01  0.26592544214E+02  0.00000000000E+00 0. -1.
         21    1    1    2  503  501  0.41775031588E+01  0.37375737873E+02  0.77189713245E+02  0.85864131889E+02  0.00000000000E+00 0.  1.
         -4    1    1    2    0  502  0.16521027214E+03 -0.16308789974E+03  0.31188602019E+03  0.38879941699E+03  0.00000000000E+00 0.  1.
<scales pt_clust_5="13000.00000" pt_clust_6="13000.00000" pt_clust_7="13000.00000" pt_clust_8="13000.00000" pt_clust_9="37.60847" pt_clust_10="13000.00000"></scales>
<clustering>
<clus scale="   37.608">  1  9  2 -1</clus>
<clus scale="   79.767">  5  6 -1 -1</clus>
<clus scale="   91.114">  7  8 -1 -1</clus>
<clus scale="  139.958">  2  5  1 -1</clus>
<clus scale="  179.795">  7 10 -1 -1</clus>
<clus scale="   37.608">  1  5  2 -1</clus>
</clustering>
</event>
<event>
10    4  0.2759992E-005  0.2442844E+03  0.7546771E-02  0.1150357E+00
         21   -1    0    0  501  502  0.00000000000E+00  0.00000000000E+00  0.60864967554E+03  0.60864967554E+03  0.00000000000E+00 0.  1.
         -1   -1    0    0    0  501 -0.00000000000E+00 -0.00000000000E+00 -0.74277391567E+02  0.74277391567E+02  0.00000000000E+00 0.  1.
         24    2    1    2    0    0  0.64257354638E+02  0.45344221548E+02  0.12368713648E+03  0.16780111776E+03  0.81692113074E+02 0.  0.
         23    2    1    2    0    0  0.98686718196E+01 -0.10734235322E+02  0.25203549129E+03  0.27083854698E+03  0.98076578103E+02 0.  0.
        -13    1    3    3    0    0  0.26515924552E+02  0.61748532188E+02  0.99498549764E+02  0.12006638533E+03  0.00000000000E+00 0.  1.
         14    1    3    3    0    0  0.37741430086E+02 -0.16404310640E+02  0.24188586715E+02  0.47734732426E+02  0.00000000000E+00 0. -1.
        -13    1    4    4    0    0  0.34459645384E+02  0.28592924099E+02  0.70877076640E+02  0.83836641522E+02  0.00000000000E+00 0. -1.
         13    1    4    4    0    0 -0.24590973565E+02 -0.39327159421E+02  0.18115841465E+03  0.18700190546E+03  0.00000000000E+00 0.  1.
         21    1    1    2  503  502 -0.23891275752E+02 -0.58961846187E+01  0.18069877412E+03  0.18236667738E+03  0.00000000000E+00 0.  1.
         -2    1    1    2    0  503 -0.50234750706E+02 -0.28713801608E+02 -0.22049117915E+02  0.61920724980E+02  0.00000000000E+00 0.  1.
<scales pt_clust_5="13000.00000" pt_clust_6="13000.00000" pt_clust_7="13000.00000" pt_clust_8="13000.00000" pt_clust_9="24.60809" pt_clust_10="13000.00000"></scales>
<clustering>
<clus scale="   24.608">  1  9  2 -1</clus>
<clus scale="   81.692">  5  6 -1 -1</clus>
<clus scale="   98.077">  7  8 -1 -1</clus>
<clus scale="   58.968">  7 10 -1 -1</clus>
<clus scale="  108.162">  2  5  1 -1</clus>
<clus scale="   24.608">  1  5  2 -1</clus>
</clustering>
</event>
<event>
10    4  0.2759992E-005  0.2232363E+03  0.7546771E-02  0.1137448E+00
         21   -1    0    0  501  502  0.00000000000E+00  0.00000000000E+00  0.50150019635E+03  0.50150019635E+03  0.00000000000E+00 0. -1.
          2   -1    0    0  503    0 -0.00000000000E+00 -0.00000000000E+00 -0.13621584036E+03  0.13621584036E+03  0.00000000000E+00 0. -1.
         24    2    1    2    0    0  0.30317242417E+02 -0.18682811397E+03  0.20874525449E+03  0.29247798340E+03  0.78389477272E+02 0.  0.
         23    2    1    2    0    0 -0.75449894557E+02  0.13734470930E+03  0.23159609211E+02  0.18279903667E+03  0.91229734993E+02 0.  0.
        -11    1    3    3    0    0  0.32633376425E+02 -0.27407754889E+02  0.65499266360E+02  0.78142665546E+02  0.00000000000E+00 0.  1.
         12    1    3    3    0    0 -0.23161340078E+01 -0.15942035908E+03  0.14324598813E+03  0.21433531786E+03  0.00000000000E+00 0. -1.
        -13    1    4    4    0    0 -0.41786935184E+02  0.22018309852E+01  0.90627373994E+01  0.42815058343E+02  0.00000000000E+00 0.  1.
         13    1    4    4    0    0 -0.33662959373E+02  0.13514287832E+03  0.14096871811E+02  0.13998397833E+03  0.00000000000E+00 0. -1.
         21    1    1    2  503  502  0.19442975060E+02  0.23827055272E+02  0.11978581358E+03  0.12367052591E+03  0.00000000000E+00 0. -1.
          1    1    1    2  501    0  0.25689677080E+02  0.25656349395E+02  0.13593678703E+02  0.38768490729E+02  0.00000000000E+00 0. -1.
<scales pt_clust_5="13000.00000" pt_clust_6="13000.00000" pt_clust_7="13000.00000" pt_clust_8="13000.00000" pt_clust_9="30.75318" pt_clust_10="13000.00000"></scales>
<clustering>
<clus scale="   30.753">  1  9  2 -1</clus>
<clus scale="   78.389">  5  6 -1 -1</clus>
<clus scale="   91.230">  7  8 -1 -1</clus>
<clus scale="   38.417">  7 10 -1 -1</clus>
<clus scale="  193.089">  2  5  1 -1</clus>
<clus scale="   30.753">  1  5  2 -1</clus>
</clustering>
</event>
<event>
10    4  0.2759992E-005  0.1976370E+03  0.7546771E-02  0.1169973E+00
         21   -1    0    0  503  502  0.00000000000E+00  0.00000000000E+00  0.45013107925E+03  0.45013107925E+03  0.00000000000E+00 0. -1.
          4   -1    0    0  502    0 -0.00000000000E+00 -0.00000000000E+00 -0.42102314262E+03  0.42102314262E+03  0.00000000000E+00 0. -1.
         24    2    1    2    0    0 -0.98211923486E+02  0.53713632814E+02 -0.17765164701E+03  0.22484575593E+03  0.80403793511E+02 0.  0.
         23    2    1    2    0    0  0.41587141032E+02 -0.11707845398E+03 -0.17048437191E+03  0.23810988652E+03  0.11042890159E+03 0.  0.
        -11    1    3    3    0    0 -0.57273058555E+02  0.64698350807E+02 -0.77407906528E+02  0.11600889546E+03  0.00000000000E+00 0.  1.
         12    1    3    3    0    0 -0.40938864931E+02 -0.10984717993E+02 -0.10024374048E+03  0.10883686047E+03  0.00000000000E+00 0. -1.
        -11    1    4    4    0    0  0.37617047742E+02 -0.35841843355E+01 -0.60457171524E+01  0.38267993860E+02  0.00000000000E+00 0.  1.
         11    1    4    4    0    0  0.39700932904E+01 -0.11349426965E+03 -0.16443865476E+03  0.19984189266E+03  0.00000000000E+00 0. -1.
         21    1    1    2  503  501  0.72470080904E+02  0.47018089722E+02  0.37556350608E+03  0.38537067933E+03  0.00000000000E+00 0. -1.
          3    1    1    2  501    0 -0.15845298451E+02  0.16346731447E+02  0.16804494785E+01  0.22827900088E+02  0.00000000000E+00 0. -1.
<scales pt_clust_5="13000.00000" pt_clust_6="13000.00000" pt_clust_7="13000.00000" pt_clust_8="13000.00000" pt_clust_9="86.38642" pt_clust_10="13000.00000"></scales>
<clustering>
<clus scale="   80.404">  5  6 -1 -1</clus>
<clus scale="   86.386">  1  9  2 -1</clus>
<clus scale="  110.429">  7  8 -1 -1</clus>
<clus scale="   24.812">  7 10 -1 -1</clus>
<clus scale="  129.387">  2  5  1 -1</clus>
<clus scale="   86.386">  1  5  2 -1</clus>
</clustering>
</event>
<event>
10    4  0.2759992E-005  0.1728040E+03  0.7546771E-02  0.1209256E+00
         21   -1    0    0  503  502  0.00000000000E+00  0.00000000000E+00  0.18282890152E+03  0.18282890152E+03  0.00000000000E+00 0. -1.
          2   -1    0    0  502    0 -0.00000000000E+00 -0.00000000000E+00 -0.17874997475E+03  0.17874997475E+03  0.00000000000E+00 0. -1.
         24    2    1    2    0    0 -0.10948076557E+02  0.61124277658E+01 -0.21442210784E+02  0.84049253770E+02  0.80294996747E+02 0.  0.
         23    2    1    2    0    0  0.81060056338E+01  0.29998453978E+02 -0.27129475118E+02  0.11723369183E+03  0.10973657326E+03 0.  0.
        -11    1    3    3    0    0  0.33868381264E+01  0.31120687786E+02 -0.39220865619E+02  0.50182110165E+02  0.00000000000E+00 0.  1.
         12    1    3    3    0    0 -0.14334914683E+02 -0.25008260020E+02  0.17778654834E+02  0.33867143605E+02  0.00000000000E+00 0. -1.
        -11    1    4    4    0    0  0.17547170172E+02 -0.39765532212E+02 -0.71097869625E+01  0.44042590794E+02  0.00000000000E+00 0.  1.
         11    1    4    4    0    0 -0.94411645384E+01  0.69763986191E+02 -0.20019688155E+02  0.73191101036E+02  0.00000000000E+00 0. -1.
         21    1    1    2  503  501  0.27266105556E+02  0.17340396511E+02  0.86596761958E+02  0.92429048708E+02  0.00000000000E+00 0. -1.
          1    1    1    2  501    0 -0.24424034633E+02 -0.53451278255E+02 -0.33946149289E+02  0.67866881956E+02  0.00000000000E+00 0. -1.
<scales pt_clust_5="13000.00000" pt_clust_6="13000.00000" pt_clust_7="13000.00000" pt_clust_8="13000.00000" pt_clust_9="32.31300" pt_clust_10="13000.00000"></scales>
<clustering>
<clus scale="   32.313">  1  9  2 -1</clus>
<clus scale="   80.295">  5  6 -1 -1</clus>
<clus scale="   81.196">  2  5  1 -1</clus>
<clus scale="  109.737">  7  8 -1 -1</clus>
<clus scale="   50.286">  7 10 -1 -1</clus>
<clus scale="   32.313">  1  5  2 -1</clus>
</clustering>
</event>
<event>
10    4  0.2759992E-005  0.2135111E+03  0.7546771E-02  0.1174058E+00
          4   -1    0    0  503    0 -0.00000000000E+00  0.00000000000E+00  0.22904014377E+03  0.22904014377E+03  0.00000000000E+00 0. -1.
         21   -1    0    0  501  502  0.00000000000E+00 -0.00000000000E+00 -0.32165103494E+03  0.32165103494E+03  0.00000000000E+00 0. -1.
         24    2    1    2    0    0 -0.66053583075E+02 -0.24894817058E+01  0.74195278990E+02  0.12754166228E+03  0.79954129575E+02 0.  0.
         23    2    1    2    0    0  0.51601900582E+02 -0.43468796542E+02  0.36371772479E+01  0.11359973872E+03  0.91320201280E+02 0.  0.
        -11    1    3    3    0    0 -0.74288605683E+02  0.21682235343E+02  0.48581667179E+02  0.91373380422E+02  0.00000000000E+00 0.  1.
         12    1    3    3    0    0  0.82350226085E+01 -0.24171717049E+02  0.25613611812E+02  0.36168281857E+02  0.00000000000E+00 0. -1.
        -11    1    4    4    0    0  0.25126112742E+02 -0.64405239271E+02 -0.20494913581E+02  0.72106850366E+02  0.00000000000E+00 0.  1.
         11    1    4    4    0    0  0.26475787841E+02  0.20936442729E+02  0.24132090829E+02  0.41492888351E+02  0.00000000000E+00 0. -1.
         21    1    1    2  503  502  0.80957037017E+02 -0.22153273241E+02 -0.19409046809E+03  0.21146138929E+03  0.00000000000E+00 0. -1.
          3    1    1    2  501    0 -0.66505354525E+02  0.68111551489E+02  0.23647120674E+02  0.98088388420E+02  0.00000000000E+00 0. -1.
<scales pt_clust_5="13000.00000" pt_clust_6="13000.00000" pt_clust_7="13000.00000" pt_clust_8="13000.00000" pt_clust_9="83.93336" pt_clust_10="13000.00000"></scales>
<clustering>
<clus scale="   79.954">  5  6 -1 -1</clus>
<clus scale="   83.933">  2  9  1 -1</clus>
<clus scale="   91.320">  7  8 -1 -1</clus>
<clus scale="   73.731">  7 10 -1 -1</clus>
<clus scale="   93.497">  1  5  2 -1</clus>
<clus scale="   83.933">  2  5  1 -1</clus>
</clustering>
</event>
<event>
10    4  0.2759992E-005  0.1973075E+03  0.7546771E-02  0.1165572E+00
         21   -1    0    0  501  502  0.00000000000E+00  0.00000000000E+00  0.58041181702E+03  0.58041181702E+03  0.00000000000E+00 0. -1.
          4   -1    0    0  503    0 -0.00000000000E+00 -0.00000000000E+00 -0.15671414116E+03  0.15671414116E+03  0.00000000000E+00 0. -1.
         24    2    1    2    0    0 -0.13479961628E+03 -0.27313486552E+02  0.19010524654E+03  0.24813809720E+03  0.80718940914E+02 0.  0.
         23    2    1    2    0    0  0.12474993555E+03  0.62215431459E+02 -0.54460894210E+02  0.17495991029E+03  0.90618292189E+02 0.  0.
        -11    1    3    3    0    0 -0.40262940086E+02  0.28690219689E+02  0.64150644134E+02  0.80990975997E+02  0.00000000000E+00 0.  1.
         12    1    3    3    0    0 -0.94536676191E+02 -0.56003706241E+02  0.12595460241E+03  0.16714712120E+03  0.00000000000E+00 0. -1.
        -13    1    4    4    0    0  0.85732303458E+02 -0.16993396172E+01 -0.64152048716E+01  0.85988781041E+02  0.00000000000E+00 0.  1.
         13    1    4    4    0    0  0.39017632091E+02  0.63914771077E+02 -0.48045689338E+02  0.88971129248E+02  0.00000000000E+00 0. -1.
         21    1    1    2  503  502  0.35114033322E+02 -0.28780510297E+02  0.28436264616E+03  0.28796428188E+03  0.00000000000E+00 0. -1.
          3    1    1    2  501    0 -0.25064352594E+02 -0.61214346095E+01  0.36906773724E+01  0.26063668815E+02  0.00000000000E+00 0. -1.
<scales pt_clust_5="13000.00000" pt_clust_6="13000.00000" pt_clust_7="13000.00000" pt_clust_8="13000.00000" pt_clust_9="45.40169" pt_clust_10="13000.00000"></scales>
<clustering>
<clus scale="   45.402">  1  9  2 -1</clus>
<clus scale="   80.719">  5  6 -1 -1</clus>
<clus scale="   90.618">  7  8 -1 -1</clus>
<clus scale="   24.490">  7 10 -1 -1</clus>
<clus scale="  143.864">  2  5  1 -1</clus>
<clus scale="   45.402">  1  5  2 -1</clus>
</clustering>
</event>
<event>
10    4  0.2759992E-005  0.1649120E+03  0.7546771E-02  0.1210417E+00
         21   -1    0    0  503  502  0.00000000000E+00  0.00000000000E+00  0.10699263491E+03  0.10699263491E+03  0.00000000000E+00 0.  1.
          2   -1    0    0  502    0 -0.00000000000E+00 -0.00000000000E+00 -0.33938058057E+03  0.33938058057E+03  0.00000000000E+00 0. -1.
         24    2    1    2    0    0  0.32873166357E+02  0.46575195647E+02  0.22911522392E+02  0.10140432410E+03  0.80672208181E+02 0.  0.
         23    2    1    2    0    0 -0.22716216599E+02 -0.68354404533E+02 -0.14643030410E+03  0.18771900577E+03  0.92780601711E+02 0.  0.
        -11    1    3    3    0    0  0.31856354382E+02  0.56074876089E+02  0.44122491085E+02  0.78140983244E+02  0.00000000000E+00 0.  1.
         12    1    3    3    0    0  0.10168119750E+01 -0.94996804414E+01 -0.21210968693E+02  0.23263340860E+02  0.00000000000E+00 0. -1.
        -13    1    4    4    0    0 -0.56534263013E+02 -0.30581886318E+02 -0.10056993817E+03  0.11935529786E+03  0.00000000000E+00 0. -1.
         13    1    4    4    0    0  0.33818046414E+02 -0.37772518214E+02 -0.45860365933E+02  0.68363707909E+02  0.00000000000E+00 0.  1.
         21    1    1    2  503  501 -0.34889846861E+02 -0.67210500991E+01  0.62739078672E+01  0.36080962409E+02  0.00000000000E+00 0.  1.
          1    1    1    2  501    0  0.24732897103E+02  0.28500258984E+02 -0.11514307182E+03  0.12116892320E+03  0.00000000000E+00 0. -1.
<scales pt_clust_5="13000.00000" pt_clust_6="13000.00000" pt_clust_7="13000.00000" pt_clust_8="13000.00000" pt_clust_9="35.53131" pt_clust_10="13000.00000"></scales>
<clustering>
<clus scale="   35.531">  1  9  2 -1</clus>
<clus scale="   80.672">  5  6 -1 -1</clus>
<clus scale="   91.133">  2  5  1 -1</clus>
<clus scale="   92.781">  7  8 -1 -1</clus>
<clus scale="   51.733">  7 10 -1 -1</clus>
<clus scale="   35.531">  1  5  2 -1</clus>
</clustering>
</event>
<event>
10    4  0.2759992E-005  0.6529041E+03  0.7546771E-02  0.1020021E+00
          2   -1    0    0  502    0 -0.00000000000E+00  0.00000000000E+00  0.50251607787E+03  0.50251607787E+03  0.00000000000E+00 0. -1.
         21   -1    0    0  503  502  0.00000000000E+00 -0.00000000000E+00 -0.54039167925E+03  0.54039167925E+03  0.00000000000E+00 0. -1.
         24    2    1    2    0    0 -0.15273372522E+03 -0.69442668522E+02  0.18751976714E+03  0.26503530268E+03  0.83247664033E+02 0.  0.
         23    2    1    2    0    0 -0.12237516758E+03  0.19026054611E+03 -0.22893381533E+03  0.33453295704E+03  0.91251578059E+02 0.  0.
        -11    1    3    3    0    0 -0.36458789917E+02  0.16912101730E+02  0.24944352346E+02  0.47302042885E+02  0.00000000000E+00 0.  1.
         12    1    3    3    0    0 -0.11627493530E+03 -0.86354770252E+02  0.16257541480E+03  0.21773325979E+03  0.00000000000E+00 0. -1.
        -13    1    4    4    0    0 -0.49882997136E+02  0.14710109654E+03 -0.17687361569E+03  0.23539609583E+03  0.00000000000E+00 0.  1.
         13    1    4    4    0    0 -0.72492170449E+02  0.43159449569E+02 -0.52060199638E+02  0.99136861207E+02  0.00000000000E+00 0. -1.
         21    1    1    2  503  501  0.11744296951E+02  0.21842074666E+02 -0.11764646819E+03  0.12023184360E+03  0.00000000000E+00 0. -1.
          1    1    1    2  501    0  0.26336459585E+03 -0.14265995226E+03  0.12118491499E+03  0.32310765380E+03  0.00000000000E+00 0. -1.
<scales pt_clust_5="13000.00000" pt_clust_6="13000.00000" pt_clust_7="13000.00000" pt_clust_8="13000.00000" pt_clust_9="24.79929" pt_clust_10="13000.00000"></scales>
<clustering>
<clus scale="   24.799">  2  9  1 -1</clus>
<clus scale="   83.248">  5  6 -1 -1</clus>
<clus scale="   91.252">  7  8 -1 -1</clus>
<clus scale="  185.678">  1  5  2 -1</clus>
<clus scale="  240.212">  7 10 -1 -1</clus>
<clus scale="   24.799">  2  5  1 -1</clus>
</clustering>
</event>
<event>
10    4  0.2759992E-005  0.2279593E+03  0.7546771E-02  0.1164894E+00
         21   -1    0    0  501  502  0.00000000000E+00  0.00000000000E+00  0.33955980807E+03  0.33955980807E+03  0.00000000000E+00 0. -1.
          2   -1    0    0  503    0 -0.00000000000E+00 -0.00000000000E+00 -0.21260511000E+03  0.21260511000E+03  0.00000000000E+00 0. -1.
         24    2    1    2    0    0  0.17931826179E+02  0.45233044299E+02 -0.13999512289E+03  0.16870494908E+03  0.80592473110E+02 0.  0.
         23    2    1    2    0    0  0.84520886236E+01  0.35254492524E+02  0.46391645965E+02  0.10872970313E+03  0.91409225366E+02 0.  0.
        -11    1    3    3    0    0 -0.28150730968E+02 -0.11149635144E+01 -0.51340553932E+02  0.58562439121E+02  0.00000000000E+00 0.  1.
         12    1    3    3    0    0  0.46082557148E+02  0.46348007813E+02 -0.88654568962E+02  0.11014250996E+03  0.00000000000E+00 0. -1.
        -13    1    4    4    0    0 -0.32477066200E+02  0.43177244852E+02  0.13664174455E+02  0.55729202089E+02  0.00000000000E+00 0. -1.
         13    1    4    4    0    0  0.40929154824E+02 -0.79227523277E+01  0.32727471511E+02  0.53000501040E+02  0.00000000000E+00 0.  1.
         21    1    1    2  503  502 -0.49874468838E+01  0.30228475500E+02  0.44333986046E+01  0.30956265612E+02  0.00000000000E+00 0. -1.
          1    1    1    2  501    0 -0.21396467919E+02 -0.11071601232E+03  0.21612477640E+03  0.24377400025E+03  0.00000000000E+00 0. -1.
<scales pt_clust_5="13000.00000" pt_clust_6="13000.00000" pt_clust_7="13000.00000" pt_clust_8="13000.00000" pt_clust_9="30.63717" pt_clust_10="13000.00000"></scales>
<clustering>
<clus scale="   30.637">  1  9  2 -1</clus>
<clus scale="   80.592">  5  6 -1 -1</clus>
<clus scale="   91.409">  7  8 -1 -1</clus>
<clus scale="   92.549">  7 10 -1 -1</clus>
<clus scale="   94.755">  2  5  1 -1</clus>
<clus scale="   30.637">  1  5  2 -1</clus>
</clustering>
</event>
<event>
10    4  0.2759992E-005  0.5307568E+03  0.7546771E-02  0.1063129E+00
          2   -1    0    0  502    0 -0.00000000000E+00  0.00000000000E+00  0.11497423315E+04  0.11497423315E+04  0.00000000000E+00 0. -1.
         21   -1    0    0  503  502  0.00000000000E+00 -0.00000000000E+00 -0.10475400604E+03  0.10475400604E+03  0.00000000000E+00 0.  1.
         24    2    1    2    0    0  0.13673841205E+02  0.63298172701E+02  0.18706991907E+03  0.21266247902E+03  0.77695191360E+02 0.  0.
         23    2    1    2    0    0 -0.96112199718E+02 -0.31082323579E+01 -0.86396501546E+01  0.13392532707E+03  0.92812357109E+02 0.  0.
        -13    1    3    3    0    0 -0.10580489808E+02  0.65734896291E+02  0.86369759823E+02  0.10905392596E+03  0.00000000000E+00 0.  1.
         14    1    3    3    0    0  0.24254331013E+02 -0.24367235902E+01  0.10070015925E+03  0.10360855306E+03  0.00000000000E+00 0. -1.
        -13    1    4    4    0    0 -0.60466409193E+02 -0.33545593095E+02 -0.37717142635E+02  0.78765959052E+02  0.00000000000E+00 0.  1.
         13    1    4    4    0    0 -0.35645790525E+02  0.30437360738E+02  0.29077492481E+02  0.55159368015E+02  0.00000000000E+00 0. -1.
         21    1    1    2  503  501 -0.36659536163E+02 -0.18141903435E+02  0.10025206398E+02  0.42113596560E+02  0.00000000000E+00 0.  1.
          1    1    1    2  501    0  0.11909789468E+03 -0.42048036908E+02  0.85653285014E+03  0.86579493489E+03  0.00000000000E+00 0. -1.
<scales pt_clust_5="13000.00000" pt_clust_6="13000.00000" pt_clust_7="13000.00000" pt_clust_8="13000.00000" pt_clust_9="40.90294" pt_clust_10="13000.00000"></scales>
<clustering>
<clus scale="   40.903">  2  9  1 -1</clus>
<clus scale="   77.695">  5  6 -1 -1</clus>
<clus scale="   92.812">  7  8 -1 -1</clus>
<clus scale="   98.940">  1  5  2 -1</clus>
<clus scale="  125.046">  7 10 -1 -1</clus>
<clus scale="   40.903">  2  5  1 -1</clus>
</clustering>
</event>
<event>
10    4  0.2759992E-005  0.3028181E+03  0.7546771E-02  0.1108883E+00
         21   -1    0    0  503  502  0.00000000000E+00  0.00000000000E+00  0.40298356942E+03  0.40298356942E+03  0.00000000000E+00 0. -1.
          2   -1    0    0  502    0 -0.00000000000E+00 -0.00000000000E+00 -0.36791935456E+03  0.36791935456E+03  0.00000000000E+00 0. -1.
         24    2    1    2    0    0 -0.19622713281E+03  0.58887754023E+02  0.11242586838E+02  0.22034353227E+03  0.80324474671E+02 0.  0.
         23    2    1    2    0    0  0.44280139012E+01  0.94824641981E+01  0.42684055777E+02  0.11068240953E+03  0.10158318132E+03 0.  0.
        -13    1    3    3    0    0 -0.19825369072E+03  0.48913898337E+02  0.22184205397E+02  0.20540018088E+03  0.00000000000E+00 0.  1.
         14    1    3    3    0    0  0.20265579125E+01  0.99738556868E+01 -0.10941618559E+02  0.14943351395E+02  0.00000000000E+00 0. -1.
        -11    1    4    4    0    0  0.21417573940E+02  0.29936578001E+02  0.65834965842E+02  0.75426480120E+02  0.00000000000E+00 0.  1.
         11    1    4    4    0    0 -0.16989560039E+02 -0.20454113803E+02 -0.23150910064E+02  0.35255929411E+02  0.00000000000E+00 0. -1.
         21    1    1    2  503  501  0.10645864995E+03 -0.90093727447E+02  0.17687369713E+03  0.22524348739E+03  0.00000000000E+00 0. -1.
          1    1    1    2  501    0  0.85340468957E+02  0.21723509225E+02 -0.19573612489E+03  0.21463349478E+03  0.00000000000E+00 0. -1.
<scales pt_clust_5="13000.00000" pt_clust_6="13000.00000" pt_clust_7="13000.00000" pt_clust_8="13000.00000" pt_clust_9="139.46442" pt_clust_10="13000.00000"></scales>
<clustering>
<clus scale="   80.324">  5  6 -1 -1</clus>
<clus scale="  101.583">  7  8 -1 -1</clus>
<clus scale="   88.062">  7 10 -1 -1</clus>
<clus scale="  139.464">  1  9  2 -1</clus>
<clus scale="  157.409">  2  5  1 -1</clus>
<clus scale="  139.464">  1  5  2 -1</clus>
</clustering>
</event>
<event>
10    4  0.2759992E-005  0.2552009E+03  0.7546771E-02  0.1147257E+00
         -3   -1    0    0    0  501 -0.00000000000E+00  0.00000000000E+00  0.64852659200E+03  0.64852659200E+03  0.00000000000E+00 0.  1.
         21   -1    0    0  501  502  0.00000000000E+00 -0.00000000000E+00 -0.11664364893E+03  0.11664364893E+03  0.00000000000E+00 0.  1.
         24    2    1    2    0    0  0.60753952736E+02  0.35625781656E+02  0.75420321278E+02  0.12694670883E+03  0.73939183990E+02 0.  0.
         23    2    1    2    0    0 -0.83412909405E+02  0.24335122190E+02  0.70666419827E+02  0.13847913757E+03  0.81442108427E+02 0.  0.
        -13    1    3    3    0    0  0.12168691781E+02  0.48825123663E+02  0.48354645079E+02  0.69786398826E+02  0.00000000000E+00 0.  1.
         14    1    3    3    0    0  0.48585260955E+02 -0.13199342007E+02  0.27065676200E+02  0.57160310003E+02  0.00000000000E+00 0. -1.
        -13    1    4    4    0    0 -0.36051710709E+02 -0.29873966664E+02  0.23194276489E+02  0.52250877420E+02  0.00000000000E+00 0.  1.
         13    1    4    4    0    0 -0.47361198696E+02  0.54209088854E+02  0.47472143338E+02  0.86228260155E+02  0.00000000000E+00 0. -1.
         21    1    1    2  503  502  0.64331571665E+02 -0.12022920846E+03  0.34183015849E+02  0.14057770895E+03  0.00000000000E+00 0.  1.
         -4    1    1    2    0  503 -0.41672614996E+02  0.60268304616E+02  0.35161318611E+03  0.35916668558E+03  0.00000000000E+00 0.  1.
<scales pt_clust_5="13000.00000" pt_clust_6="13000.00000" pt_clust_7="13000.00000" pt_clust_8="13000.00000" pt_clust_9="136.38307" pt_clust_10="13000.00000"></scales>
<clustering>
<clus scale="   73.939">  5  6 -1 -1</clus>
<clus scale="   81.442">  7  8 -1 -1</clus>
<clus scale="   73.273">  7 10 -1 -1</clus>
<clus scale="  102.114">  1  5  2 -1</clus>
<clus scale="  136.383">  2  9  1 -1</clus>
<clus scale="  136.383">  2  5  1 -1</clus>
</clustering>
</event>
<event>
10    4  0.2759992E-005  0.4125116E+03  0.7546771E-02  0.1063673E+00
          4   -1    0    0  503    0 -0.00000000000E+00  0.00000000000E+00  0.37699087339E+03  0.37699087339E+03  0.00000000000E+00 0. -1.
         21   -1    0    0  501  502  0.00000000000E+00 -0.00000000000E+00 -0.34200792176E+03  0.34200792176E+03  0.00000000000E+00 0. -1.
         24    2    1    2    0    0  0.81501318452E+02 -0.20001798941E+03  0.89229623485E+01  0.23044642568E+03  0.79851580166E+02 0.  0.
         23    2    1    2    0    0 -0.11587478400E+03  0.72855437048E+02 -0.12993210882E+03  0.21005444561E+03  0.92226010122E+02 0.  0.
        -13    1    3    3    0    0 -0.89302080810E+01 -0.77355051827E+02  0.19824710021E+01  0.77894048879E+02  0.00000000000E+00 0.  1.
         14    1    3    3    0    0  0.90431526533E+02 -0.12266293758E+03  0.69404913464E+01  0.15255237680E+03  0.00000000000E+00 0. -1.
        -13    1    4    4    0    0 -0.63990596224E+02 -0.96877440524E+01 -0.71272649276E+02  0.96272734067E+02  0.00000000000E+00 0.  1.
         13    1    4    4    0    0 -0.51884187773E+02  0.82543181100E+02 -0.58659459547E+02  0.11378171154E+03  0.00000000000E+00 0. -1.
         21    1    1    2  503  502 -0.74537377199E+02  0.46032405256E+02  0.28237276278E+02  0.92044264922E+02  0.00000000000E+00 0. -1.
          3    1    1    2  501    0  0.10891084274E+03  0.81130147103E+02  0.12775482182E+03  0.18645365895E+03  0.00000000000E+00 0. -1.
<scales pt_clust_5="13000.00000" pt_clust_6="13000.00000" pt_clust_7="13000.00000" pt_clust_8="13000.00000" pt_clust_9="87.60600" pt_clust_10="13000.00000"></scales>
<clustering>
<clus scale="   79.852">  5  6 -1 -1</clus>
<clus scale="   87.606">  2  9  1 -1</clus>
<clus scale="   92.226">  7  8 -1 -1</clus>
<clus scale="  132.976">  7 10 -1 -1</clus>
<clus scale="  207.577">  1  5  2 -1</clus>
<clus scale="   87.606">  2  5  1 -1</clus>
</clustering>
</event>
<event>
10    4  0.2759992E-005  0.3308009E+03  0.7546771E-02  0.1118564E+00
          2   -1    0    0  503    0 -0.00000000000E+00  0.00000000000E+00  0.10074312831E+04  0.10074312831E+04  0.00000000000E+00 0. -1.
         21   -1    0    0  501  502  0.00000000000E+00 -0.00000000000E+00 -0.10200549777E+03  0.10200549777E+03  0.00000000000E+00 0. -1.
         24    2    1    2    0    0  0.37878158567E+01  0.49729432513E+02  0.93656968539E+02  0.13306095711E+03  0.80288396080E+02 0.  0.
         23    2    1    2    0    0 -0.39387495280E+02 -0.27229595653E+02  0.53178823736E+02  0.11499348514E+03  0.90014935799E+02 0.  0.
        -11    1    3    3    0    0  0.49057714742E+01  0.57788585359E+02  0.10449386483E+03  0.11950964387E+03  0.00000000000E+00 0.  1.
         12    1    3    3    0    0 -0.11179556175E+01 -0.80591528456E+01 -0.10836896290E+02  0.13551313241E+02  0.00000000000E+00 0. -1.
        -13    1    4    4    0    0 -0.47273395641E+02 -0.50155765086E+02  0.58230330777E+02  0.90228300046E+02  0.00000000000E+00 0.  1.
         13    1    4    4    0    0  0.78859003610E+01  0.22926169433E+02 -0.50515070408E+01  0.24765185095E+02  0.00000000000E+00 0. -1.
         21    1    1    2  503  502  0.69793112804E+02  0.16106647599E+03  0.17187651803E+03  0.24567259866E+03  0.00000000000E+00 0. -1.
          1    1    1    2  501    0 -0.34193433380E+02 -0.18356631285E+03  0.58671347498E+03  0.61570973991E+03  0.00000000000E+00 0. -1.
<scales pt_clust_5="13000.00000" pt_clust_6="13000.00000" pt_clust_7="13000.00000" pt_clust_8="13000.00000" pt_clust_9="186.58319" pt_clust_10="13000.00000"></scales>
<clustering>
<clus scale="   80.288">  5  6 -1 -1</clus>
<clus scale="   90.015">  7  8 -1 -1</clus>
<clus scale="   94.518">  1  5  2 -1</clus>
<clus scale="  153.425">  7 10 -1 -1</clus>
<clus scale="  186.583">  2  9  1 -1</clus>
<clus scale="  186.583">  2  5  1 -1</clus>
</clustering>
</event>
<event>
10    4  0.2759992E-005  0.2939733E+03  0.7546771E-02  0.1112899E+00
         21   -1    0    0  503  502  0.00000000000E+00  0.00000000000E+00  0.87661936173E+02  0.87661936173E+02  0.00000000000E+00 0. -1.
          2   -1    0    0  502    0 -0.00000000000E+00 -0.00000000000E+00 -0.63534756740E+03  0.63534756740E+03  0.00000000000E+00 0. -1.
         24    2    1    2    0    0 -0.12026637312E+03 -0.68196276589E+02 -0.18544015020E+03  0.24576040322E+03  0.83038508172E+02 0.  0.
         23    2    1    2    0    0 -0.55614266365E+02  0.43869561530E+01 -0.62419391714E+02  0.12226346920E+03  0.89106584672E+02 0.  0.
        -13    1    3    3    0    0 -0.56621709934E+02  0.46684883455E+01 -0.10724471780E+03  0.12136408989E+03  0.00000000000E+00 0.  1.
         14    1    3    3    0    0 -0.63644663184E+02 -0.72864764934E+02 -0.78195432403E+02  0.12439631333E+03  0.00000000000E+00 0. -1.
        -13    1    4    4    0    0 -0.72475481377E+02  0.24236817292E+02 -0.33783070329E+02  0.83554859548E+02  0.00000000000E+00 0. -1.
         13    1    4    4    0    0  0.16861215011E+02 -0.19849861139E+02 -0.28636321385E+02  0.38708609654E+02  0.00000000000E+00 0.  1.
         21    1    1    2  503  501  0.13768529343E+02  0.15614841680E+02 -0.36732152264E+02  0.42221400864E+02  0.00000000000E+00 0. -1.
          1    1    1    2  501    0  0.16211211014E+03  0.48194478756E+02 -0.26309393705E+03  0.31276423029E+03  0.00000000000E+00 0. -1.
<scales pt_clust_5="13000.00000" pt_clust_6="13000.00000" pt_clust_7="13000.00000" pt_clust_8="13000.00000" pt_clust_9="20.81817" pt_clust_10="13000.00000"></scales>
<clustering>
<clus scale="   20.818">  1  9  2 -1</clus>
<clus scale="   83.039">  5  6 -1 -1</clus>
<clus scale="   89.107">  7  8 -1 -1</clus>
<clus scale="  155.345">  2  5  1 -1</clus>
<clus scale="   80.790">  7 10 -1 -1</clus>
<clus scale="   20.818">  1  5  2 -1</clus>
</clustering>
</event>
<event>
10    4  0.2759992E-005  0.1538637E+03  0.7546771E-02  0.1223050E+00
          2   -1    0    0  503    0 -0.00000000000E+00  0.00000000000E+00  0.56495060282E+03  0.56495060282E+03  0.00000000000E+00 0. -1.
         21   -1    0    0  501  502  0.00000000000E+00 -0.00000000000E+00 -0.17986886643E+03  0.17986886643E+03  0.00000000000E+00 0.  1.
         24    2    1    2    0    0  0.52649680531E+01  0.40054775386E+02  0.13308227359E+03  0.16086570888E+03  0.80837985070E+02 0.  0.
         23    2    1    2    0    0  0.60724340687E+02 -0.59553745991E-01  0.29308285916E+03  0.31330806862E+03  0.92611740233E+02 0.  0.
        -11    1    3    3    0    0 -0.16661531949E+02 -0.17536954010E+02  0.17415100302E+02  0.29806662366E+02  0.00000000000E+00 0.  1.
         12    1    3    3    0    0  0.21926500003E+02  0.57591729396E+02  0.11566717329E+03  0.13105904652E+03  0.00000000000E+00 0. -1.
        -13    1    4    4    0    0 -0.87156790163E+01  0.25743933092E+02  0.14726394990E+03  0.14975107376E+03  0.00000000000E+00 0.  1.
         13    1    4    4    0    0  0.69440019703E+02 -0.25803486838E+02  0.14581890926E+03  0.16355699486E+03  0.00000000000E+00 0. -1.
         21    1    1    2  503  502 -0.26435439124E+02 -0.24135290393E+02 -0.14972526015E+03  0.15394478949E+03  0.00000000000E+00 0.  1.
          1    1    1    2  501    0 -0.39553869616E+02 -0.15859931247E+02  0.10864186379E+03  0.11670090226E+03  0.00000000000E+00 0. -1.
<scales pt_clust_5="13000.00000" pt_clust_6="13000.00000" pt_clust_7="13000.00000" pt_clust_8="13000.00000" pt_clust_9="35.79588" pt_clust_10="13000.00000"></scales>
<clustering>
<clus scale="   35.796">  2  9  1 -1</clus>
<clus scale="   80.838">  5  6 -1 -1</clus>
<clus scale="   85.939">  1  5  2 -1</clus>
<clus scale="   92.612">  7  8 -1 -1</clus>
<clus scale="   47.033">  7 10 -1 -1</clus>
<clus scale="   35.796">  2  5  1 -1</clus>
</clustering>
</event>
<event>
10    4  0.2759992E-005  0.2783679E+03  0.7546771E-02  0.1105833E+00
          2   -1    0    0  502    0 -0.00000000000E+00  0.00000000000E+00  0.82389099677E+03  0.82389099677E+03  0.00000000000E+00 0. -1.
         21   -1    0    0  503  502  0.00000000000E+00 -0.00000000000E+00 -0.13169015481E+03  0.13169015481E+03  0.00000000000E+00 0. -1.
         24    2    1    2    0    0  0.74620161340E+02 -0.20280094982E+03  0.20618234642E+03  0.30938455071E+03  0.80692295273E+02 0.  0.
         23    2    1    2    0    0  0.35469730650E+01  0.86355051799E+01  0.19844474108E+03  0.21402371128E+03  0.79615832352E+02 0.  0.
        -13    1    3    3    0    0  0.23419150582E+02 -0.12619687717E+02  0.36050600392E+01  0.26846034901E+02  0.00000000000E+00 0.  1.
         14    1    3    3    0    0  0.51201010759E+02 -0.19018126211E+03  0.20257728638E+03  0.28253851581E+03  0.00000000000E+00 0. -1.
        -11    1    4    4    0    0  0.32820051968E+02  0.16422983976E+02  0.16443247409E+03  0.16847821447E+03  0.00000000000E+00 0. -1.
         11    1    4    4    0    0 -0.29273078903E+02 -0.77874787959E+01  0.34012266987E+02  0.45545496815E+02  0.00000000000E+00 0.  1.
         21    1    1    2  503  501  0.84322525885E+01  0.25240139292E+02 -0.43234788552E+02  0.50768242596E+02  0.00000000000E+00 0. -1.
          1    1    1    2  501    0 -0.86599386994E+02  0.16892530535E+03  0.33080854301E+03  0.38140464699E+03  0.00000000000E+00 0. -1.
<scales pt_clust_5="13000.00000" pt_clust_6="13000.00000" pt_clust_7="13000.00000" pt_clust_8="13000.00000" pt_clust_9="26.61142" pt_clust_10="13000.00000"></scales>
<clustering>
<clus scale="   26.611">  2  9  1 -1</clus>
<clus scale="   79.616">  7  8 -1 -1</clus>
<clus scale="   80.692">  5  6 -1 -1</clus>
<clus scale="  195.472">  7 10 -1 -1</clus>
<clus scale="  219.088">  1  5  2 -1</clus>
<clus scale="   26.611">  2  5  1 -1</clus>
</clustering>
</event>
<event>
10    4  0.2759992E-005  0.4197158E+03  0.7546771E-02  0.1082649E+00
          2   -1    0    0  503    0 -0.00000000000E+00  0.00000000000E+00  0.14286918191E+04  0.14286918191E+04  0.00000000000E+00 0. -1.
         21   -1    0    0  501  502  0.00000000000E+00 -0.00000000000E+00 -0.17106123022E+03  0.17106123022E+03  0.00000000000E+00 0.  1.
         24    2    1    2    0    0  0.80979631942E+02 -0.36071406831E+01  0.32501040592E+01  0.11432601810E+03  0.80555341136E+02 0.  0.
         23    2    1    2    0    0  0.91232833565E+02 -0.64499695172E+02  0.18340535793E+03  0.23355248002E+03  0.91791039918E+02 0.  0.
        -11    1    3    3    0    0  0.97501221180E+02 -0.11921923497E+01  0.42292198682E+01  0.97600183171E+02  0.00000000000E+00 0.  1.
         12    1    3    3    0    0 -0.16521589239E+02 -0.24149483334E+01 -0.97911580900E+00  0.16725834932E+02  0.00000000000E+00 0. -1.
        -11    1    4    4    0    0  0.98340824408E+02 -0.23234478329E+02  0.14498492422E+03  0.17672404188E+03  0.00000000000E+00 0.  1.
         11    1    4    4    0    0 -0.71079908430E+01 -0.41265216842E+02  0.38420433717E+02  0.56828438144E+02  0.00000000000E+00 0. -1.
         21    1    1    2  503  502  0.57243702603E+01  0.24381490362E+02 -0.81326754158E+02  0.85095631081E+02  0.00000000000E+00 0.  1.
          1    1    1    2  501    0 -0.17793683577E+03  0.43725345492E+02  0.11523018810E+04  0.11667789201E+04  0.00000000000E+00 0. -1.
<scales pt_clust_5="13000.00000" pt_clust_6="13000.00000" pt_clust_7="13000.00000" pt_clust_8="13000.00000" pt_clust_9="25.04447" pt_clust_10="13000.00000"></scales>
<clustering>
<clus scale="   25.044">  2  9  1 -1</clus>
<clus scale="   80.555">  5  6 -1 -1</clus>
<clus scale="   91.791">  7  8 -1 -1</clus>
<clus scale="  117.412">  1  5  2 -1</clus>
<clus scale="  119.360">  7 10 -1 -1</clus>
<clus scale="   25.044">  2  5  1 -1</clus>
</clustering>
</event>
<event>
10    4  0.2759992E-005  0.6775081E+03  0.7546771E-02  0.1033852E+00
         21   -1    0    0  501  502  0.00000000000E+00  0.00000000000E+00  0.92207333722E+02  0.92207333722E+02  0.00000000000E+00 0.  1.
          2   -1    0    0  503    0 -0.00000000000E+00 -0.00000000000E+00 -0.22007186500E+04  0.22007186500E+04  0.00000000000E+00 0. -1.
         24    2    1    2    0    0  0.56890040937E+02 -0.36903919808E+02 -0.40664976606E+03  0.42090685195E+03  0.84853813908E+02 0.  0.
         23    2    1    2    0    0 -0.12111285996E+03  0.31831100289E+03 -0.62492040763E+03  0.71737204324E+03  0.90038398149E+02 0.  0.
        -13    1    3    3    0    0  0.58932418637E+02  0.11277006819E+02 -0.20745933871E+03  0.21596198292E+03  0.00000000000E+00 0.  1.
         14    1    3    3    0    0 -0.20423777004E+01 -0.48180926627E+02 -0.19919042734E+03  0.20494486903E+03  0.00000000000E+00 0. -1.
        -13    1    4    4    0    0 -0.52076565084E+02  0.24130098301E+03 -0.47376603940E+03  0.53422129602E+03  0.00000000000E+00 0.  1.
         13    1    4    4    0    0 -0.69036294876E+02  0.77010019875E+02 -0.15115436823E+03  0.18315074721E+03  0.00000000000E+00 0. -1.
         21    1    1    2  503  502  0.28642026730E+02  0.51316850021E+01  0.94077148651E+01  0.30581121385E+02  0.00000000000E+00 0. -1.
          1    1    1    2  501    0  0.35580792293E+02 -0.28653876808E+03 -0.10863488574E+04  0.11240659671E+04  0.00000000000E+00 0. -1.
<scales pt_clust_5="13000.00000" pt_clust_6="13000.00000" pt_clust_7="13000.00000" pt_clust_8="13000.00000" pt_clust_9="29.09811" pt_clust_10="13000.00000"></scales>
<clustering>
<clus scale="   29.098">  1  9  2 -1</clus>
<clus scale="   84.854">  5  6 -1 -1</clus>
<clus scale="   90.038">  7  8 -1 -1</clus>
<clus scale="  109.960">  2  5  1 -1</clus>
<clus scale="  318.199">  7 10 -1 -1</clus>
<clus scale="   29.098">  1  5  2 -1</clus>
</clustering>
</event>
<event>
10    4  0.3798034E-005  0.9869145E+03  0.7546771E-02  0.9466575E-01
         21   -1    0    0  503  502  0.00000000000E+00  0.00000000000E+00  0.51138852966E+03  0.51138852966E+03  0.00000000000E+00 0. -1.
          2   -1    0    0  502    0 -0.00000000000E+00 -0.00000000000E+00 -0.14805993523E+04  0.14805993523E+04  0.00000000000E+00 0. -1.
         24    2    1    2    0    0  0.66882879658E+02 -0.63170556524E+03 -0.27089962038E+03  0.69535446055E+03  0.81277184607E+02 0.  0.
         23    2    1    2    0    0  0.59637909566E+02 -0.19073006503E+03 -0.59544914549E+02  0.22754361681E+03  0.91081626786E+02 0.  0.
        -13    1    3    3    0    0  0.27318844560E+02 -0.46937762454E+02 -0.23341137632E+02  0.59112448082E+02  0.00000000000E+00 0.  1.
         14    1    3    3    0    0  0.39564035098E+02 -0.58476780278E+03 -0.24755848275E+03  0.63624201247E+03  0.00000000000E+00 0. -1.
        -11    1    4    4    0    0  0.20564126577E+01 -0.99809136572E+02 -0.66088921289E+02  0.11972400801E+03  0.00000000000E+00 0.  1.
         11    1    4    4    0    0  0.57581496908E+02 -0.90920928462E+02  0.65440067401E+01  0.10781960880E+03  0.00000000000E+00 0. -1.
         21    1    1    2  503  501 -0.90082761038E+02  0.10599469909E+03 -0.86996575581E+02  0.16406762092E+03  0.00000000000E+00 0.  1.
          1    1    1    2  501    0 -0.36438028186E+02  0.71644093118E+03 -0.55176971217E+03  0.90502218372E+03  0.00000000000E+00 0. -1.
<scales pt_clust_5="13000.00000" pt_clust_6="13000.00000" pt_clust_7="13000.00000" pt_clust_8="13000.00000" pt_clust_9="139.10356" pt_clust_10="13000.00000"></scales>
<clustering>
<clus scale="   81.277">  5  6 -1 -1</clus>
<clus scale="   91.082">  7  8 -1 -1</clus>
<clus scale="  139.104">  1  9  2 -1</clus>
<clus scale="  590.353">  2  5  1 -1</clus>
<clus scale="  271.915">  7 10 -1 -1</clus>
<clus scale="  139.104">  1  5  2 -1</clus>
</clustering>
</event>
<event>
10    4  0.2759992E-005  0.2506962E+03  0.7546771E-02  0.1118444E+00
          2   -1    0    0  503    0 -0.00000000000E+00  0.00000000000E+00  0.17646861629E+04  0.17646861629E+04  0.00000000000E+00 0. -1.
         21   -1    0    0  501  502  0.00000000000E+00 -0.00000000000E+00 -0.49090224637E+02  0.49090224637E+02  0.00000000000E+00 0. -1.
         24    2    1    2    0    0 -0.12478492785E+03  0.15169463155E+03  0.11272859042E+04  0.11470882800E+04  0.80345958125E+02 0.  0.
         23    2    1    2    0    0  0.11566079114E+03 -0.93225835090E+02  0.47346240807E+03  0.50479668357E+03  0.92652927401E+02 0.  0.
        -11    1    3    3    0    0 -0.29822784219E+02  0.79590344780E+02  0.32224772428E+03  0.33326808614E+03  0.00000000000E+00 0.  1.
         12    1    3    3    0    0 -0.94962143636E+02  0.72104286770E+02  0.80503817989E+03  0.81382019388E+03  0.00000000000E+00 0. -1.
        -11    1    4    4    0    0  0.63887077665E+02 -0.10158663616E+03  0.36691728891E+03  0.38604365069E+03  0.00000000000E+00 0.  1.
         11    1    4    4    0    0  0.51773713474E+02  0.83608010716E+01  0.10654511916E+03  0.11875303288E+03  0.00000000000E+00 0. -1.
         21    1    1    2  503  502 -0.14415299510E+02  0.18416365796E+02  0.22005213934E+01  0.23490544555E+02  0.00000000000E+00 0. -1.
          1    1    1    2  501    0  0.23539436225E+02 -0.76885162256E+02  0.11264710468E+03  0.13840087943E+03  0.00000000000E+00 0. -1.
<scales pt_clust_5="13000.00000" pt_clust_6="13000.00000" pt_clust_7="13000.00000" pt_clust_8="13000.00000" pt_clust_9="23.38725" pt_clust_10="13000.00000"></scales>
<clustering>
<clus scale="   23.387">  2  9  1 -1</clus>
<clus scale="   80.346">  5  6 -1 -1</clus>
<clus scale="   92.653">  7  8 -1 -1</clus>
<clus scale="   73.150">  7 10 -1 -1</clus>
<clus scale="  217.807">  1  5  2 -1</clus>
<clus scale="   23.387">  2  5  1 -1</clus>
</clustering>
</event>
<event>
10    4  0.2759992E-005  0.1988103E+03  0.7546771E-02  0.1190366E+00
          2   -1    0    0  502    0 -0.00000000000E+00  0.00000000000E+00  0.82095453182E+02  0.82095453182E+02  0.00000000000E+00 0. -1.
         21   -1    0    0  503  502  0.00000000000E+00 -0.00000000000E+00 -0.34952485510E+03  0.34952485510E+03  0.00000000000E+00 0. -1.
         24    2    1    2    0    0 -0.27885998945E+01  0.79173409430E+01 -0.26104236752E+02  0.84338987653E+02  0.79756962612E+02 0.  0.
         23    2    1    2    0    0  0.94842121558E+02 -0.16525708769E+02 -0.75872925288E+02  0.14945125994E+03  0.85503515917E+02 0.  0.
        -11    1    3    3    0    0  0.19610341302E+02 -0.30020678004E+02 -0.15240171837E+02  0.38962410493E+02  0.00000000000E+00 0.  1.
         12    1    3    3    0    0 -0.22398941196E+02  0.37938018947E+02 -0.10864064915E+02  0.45376577161E+02  0.00000000000E+00 0. -1.
        -11    1    4    4    0    0  0.45777050099E+02 -0.38681478023E+02 -0.74479069678E+02  0.95597734690E+02  0.00000000000E+00 0. -1.
         11    1    4    4    0    0  0.49065071459E+02  0.22155769254E+02 -0.13938556107E+01  0.53853525251E+02  0.00000000000E+00 0.  1.
         21    1    1    2  503  501 -0.25925040498E+02 -0.12036849445E+02 -0.94244002073E+02  0.98483122392E+02  0.00000000000E+00 0. -1.
          1    1    1    2  501    0 -0.66128481166E+02  0.20645217270E+02 -0.71208237808E+02  0.99346938298E+02  0.00000000000E+00 0. -1.
<scales pt_clust_5="13000.00000" pt_clust_6="13000.00000" pt_clust_7="13000.00000" pt_clust_8="13000.00000" pt_clust_9="28.58310" pt_clust_10="13000.00000"></scales>
<clustering>
<clus scale="   28.583">  2  9  1 -1</clus>
<clus scale="   79.757">  5  6 -1 -1</clus>
<clus scale="   80.377">  1  5  2 -1</clus>
<clus scale="   85.504">  7  8 -1 -1</clus>
<clus scale="   79.978">  7 10 -1 -1</clus>
<clus scale="   28.583">  2  5  1 -1</clus>
</clustering>
</event>
<event>
10    4  0.2759992E-005  0.7816650E+03  0.7546771E-02  0.1002828E+00
         21   -1    0    0  503  502  0.00000000000E+00  0.00000000000E+00  0.13143506852E+03  0.13143506852E+03  0.00000000000E+00 0. -1.
          2   -1    0    0  502    0 -0.00000000000E+00 -0.00000000000E+00 -0.24380175094E+04  0.24380175094E+04  0.00000000000E+00 0. -1.
         24    2    1    2    0    0  0.17343941537E+03 -0.23879865355E+02 -0.12243663979E+03  0.22818088168E+03  0.80151763740E+02 0.  0.
         23    2    1    2    0    0  0.15432808009E+03  0.10694078418E+03 -0.14070091787E+03  0.25184581237E+03  0.91520911784E+02 0.  0.
        -11    1    3    3    0    0  0.65603686880E+02 -0.48474426822E+02 -0.44958481796E+02  0.93139029807E+02  0.00000000000E+00 0.  1.
         12    1    3    3    0    0  0.10783572849E+03  0.24594561468E+02 -0.77478157991E+02  0.13504185188E+03  0.00000000000E+00 0. -1.
        -13    1    4    4    0    0  0.56109227252E+02  0.78775696495E+02 -0.10705174039E+03  0.14427033950E+03  0.00000000000E+00 0.  1.
         13    1    4    4    0    0  0.98218852834E+02  0.28165087683E+02 -0.33649177484E+02  0.10757547286E+03  0.00000000000E+00 0. -1.
         21    1    1    2  503  501 -0.23741976134E+02 -0.85715439938E+01 -0.33571866191E+01  0.25464161074E+02  0.00000000000E+00 0. -1.
          1    1    1    2  501    0 -0.30402551932E+03 -0.74489374830E+02 -0.20400876966E+04  0.20639617228E+04  0.00000000000E+00 0. -1.
<scales pt_clust_5="13000.00000" pt_clust_6="13000.00000" pt_clust_7="13000.00000" pt_clust_8="13000.00000" pt_clust_9="25.24189" pt_clust_10="13000.00000"></scales>
<clustering>
<clus scale="   25.242">  1  9  2 -1</clus>
<clus scale="   80.152">  5  6 -1 -1</clus>
<clus scale="   91.521">  7  8 -1 -1</clus>
<clus scale="  183.743">  2  5  1 -1</clus>
<clus scale="  186.280">  7 10 -1 -1</clus>
<clus scale="   25.242">  1  5  2 -1</clus>
</clustering>
</event>
<event>
10    4  0.2759992E-005  0.6110495E+03  0.7546771E-02  0.1033800E+00
         21   -1    0    0  501  502  0.00000000000E+00  0.00000000000E+00  0.78914156133E+03  0.78914156133E+03  0.00000000000E+00 0. -1.
          2   -1    0    0  503    0 -0.00000000000E+00 -0.00000000000E+00 -0.65046348068E+03  0.65046348068E+03  0.00000000000E+00 0. -1.
         24    2    1    2    0    0 -0.62116003963E+01 -0.12377178974E+03  0.52641764340E+02  0.15907379190E+03  0.84707000899E+02 0.  0.
         23    2    1    2    0    0  0.91350482148E+01 -0.11500725525E+03 -0.31146990880E+03  0.34495264330E+03  0.93105876118E+02 0.  0.
        -13    1    3    3    0    0  0.20648977233E+02 -0.13258814196E+02  0.36820108324E+02  0.44248127550E+02  0.00000000000E+00 0.  1.
         14    1    3    3    0    0 -0.26860577629E+02 -0.11051297554E+03  0.15821656016E+02  0.11482566435E+03  0.00000000000E+00 0. -1.
        -13    1    4    4    0    0 -0.35393908048E+01 -0.95719123481E+02 -0.30680080837E+03  0.32140537318E+03  0.00000000000E+00 0. -1.
         13    1    4    4    0    0  0.12674439020E+02 -0.19288131767E+02 -0.46691004230E+01  0.23547270124E+02  0.00000000000E+00 0.  1.
         21    1    1    2  503  502  0.24171887899E+02 -0.17334092772E+03  0.48307105991E+03  0.51379860482E+03  0.00000000000E+00 0. -1.
          1    1    1    2  501    0 -0.27095335718E+02  0.41211997271E+03 -0.85564834812E+02  0.42178000199E+03  0.00000000000E+00 0. -1.
<scales pt_clust_5="13000.00000" pt_clust_6="13000.00000" pt_clust_7="13000.00000" pt_clust_8="13000.00000" pt_clust_9="178.15053" pt_clust_10="13000.00000"></scales>
<clustering>
<clus scale="   84.707">  5  6 -1 -1</clus>
<clus scale="   93.106">  7  8 -1 -1</clus>
<clus scale="  150.111">  2  5  1 -1</clus>
<clus scale="  178.151">  1  9  2 -1</clus>
<clus scale="  255.462">  7 10 -1 -1</clus>
<clus scale="  178.151">  1  5  2 -1</clus>
</clustering>
</event>
<event>
10    4  0.2759992E-005  0.2780156E+03  0.7546771E-02  0.1107942E+00
         21   -1    0    0  501  502  0.00000000000E+00  0.00000000000E+00  0.22133923257E+03  0.22133923257E+03  0.00000000000E+00 0. -1.
          2   -1    0    0  503    0 -0.00000000000E+00 -0.00000000000E+00 -0.47741622676E+03  0.47741622676E+03  0.00000000000E+00 0. -1.
         24    2    1    2    0    0 -0.10101044456E+03 -0.16399183086E+03 -0.29218780889E+03  0.35845022515E+03  0.77565570633E+02 0.  0.
         23    2    1    2    0    0 -0.57349755000E+01  0.34990044373E+02  0.22569373872E+02  0.10040591412E+03  0.91185403455E+02 0.  0.
        -13    1    3    3    0    0 -0.85447743113E+01 -0.68666202950E+02 -0.63071366411E+02  0.93627228179E+02  0.00000000000E+00 0.  1.
         14    1    3    3    0    0 -0.92465670245E+02 -0.95325627913E+02 -0.22911644248E+03  0.26482299697E+03  0.00000000000E+00 0. -1.
        -13    1    4    4    0    0  0.31005899303E+02 -0.13762071091E+02 -0.33439615169E+01  0.34087277259E+02  0.00000000000E+00 0.  1.
         13    1    4    4    0    0 -0.36740874803E+02  0.48752115465E+02  0.25913335389E+02  0.66318636857E+02  0.00000000000E+00 0. -1.
         21    1    1    2  503  502 -0.30195240029E+02  0.14629658933E+02  0.47620575660E+02  0.58253743803E+02  0.00000000000E+00 0. -1.
          1    1    1    2  501    0  0.13694066009E+03  0.11437212756E+03 -0.34079134835E+02  0.18164557627E+03  0.00000000000E+00 0. -1.
<scales pt_clust_5="13000.00000" pt_clust_6="13000.00000" pt_clust_7="13000.00000" pt_clust_8="13000.00000" pt_clust_9="33.55264" pt_clust_10="13000.00000"></scales>
<clustering>
<clus scale="   33.553">  1  9  2 -1</clus>
<clus scale="   77.566">  5  6 -1 -1</clus>
<clus scale="   91.185">  7  8 -1 -1</clus>
<clus scale="  172.895">  7 10 -1 -1</clus>
<clus scale="  208.357">  2  5  1 -1</clus>
<clus scale="   33.553">  1  5  2 -1</clus>
</clustering>
</event>
<event>
10    4  0.2759992E-005  0.9444269E+03  0.7546771E-02  0.1004338E+00
         21   -1    0    0  503  502  0.00000000000E+00  0.00000000000E+00  0.16779141995E+03  0.16779141995E+03  0.00000000000E+00 0. -1.
          2   -1    0    0  502    0 -0.00000000000E+00 -0.00000000000E+00 -0.19939687276E+04  0.19939687276E+04  0.00000000000E+00 0. -1.
         24    2    1    2    0    0 -0.64165519932E+02  0.26532903073E+02 -0.16231429920E+03  0.19340849172E+03  0.78991797361E+02 0.  0.
         23    2    1    2    0    0 -0.32759458268E+03 -0.34060372485E+03 -0.60273483441E+03  0.77134771706E+03  0.91427085794E+02 0.  0.
        -11    1    3    3    0    0 -0.47023540421E+02  0.39908646688E+02 -0.16008078840E+03  0.17155107766E+03  0.00000000000E+00 0.  1.
         12    1    3    3    0    0 -0.17141979511E+02 -0.13375743615E+02 -0.22335108089E+01  0.21857414058E+02  0.00000000000E+00 0. -1.
        -11    1    4    4    0    0 -0.25668649142E+03 -0.27186196464E+03 -0.53036980076E+03  0.64891371403E+03  0.00000000000E+00 0. -1.
         11    1    4    4    0    0 -0.70908091256E+02 -0.68741760210E+02 -0.72365033648E+02  0.12243400303E+03  0.00000000000E+00 0.  1.
         21    1    1    2  503  501  0.94227813822E+02  0.13455669290E+01 -0.74653546795E+02  0.12022413858E+03  0.00000000000E+00 0. -1.
          1    1    1    2  501    0  0.29753228879E+03  0.31272525485E+03 -0.98647462727E+03  0.10767798002E+04  0.00000000000E+00 0. -1.
<scales pt_clust_5="13000.00000" pt_clust_6="13000.00000" pt_clust_7="13000.00000" pt_clust_8="13000.00000" pt_clust_9="94.23742" pt_clust_10="13000.00000"></scales>
<clustering>
<clus scale="   78.992">  5  6 -1 -1</clus>
<clus scale="   91.427">  7  8 -1 -1</clus>
<clus scale="   94.237">  1  9  2 -1</clus>
<clus scale="   99.369">  2  5  1 -1</clus>
<clus scale="  440.973">  7 10 -1 -1</clus>
<clus scale="   94.237">  1  5  2 -1</clus>
</clustering>
</event>
<event>
10    4  0.2759992E-005  0.2954673E+03  0.7546771E-02  0.1138722E+00
          2   -1    0    0  503    0 -0.00000000000E+00  0.00000000000E+00  0.19684178376E+04  0.19684178376E+04  0.00000000000E+00 0. -1.
         21   -1    0    0  501  502  0.00000000000E+00 -0.00000000000E+00 -0.24912125965E+02  0.24912125965E+02  0.00000000000E+00 0. -1.
         24    2    1    2    0    0 -0.91505739450E+01 -0.55708812775E+01  0.58811090972E+03  0.59369399041E+03  0.80519217571E+02 0.  0.
         23    2    1    2    0    0  0.11517044825E+03 -0.25560378551E+02  0.46016409422E+03  0.48402455723E+03  0.92796623277E+02 0.  0.
        -11    1    3    3    0    0 -0.99132102824E+01  0.35562384606E+02  0.19735695199E+03  0.20078028149E+03  0.00000000000E+00 0.  1.
         12    1    3    3    0    0  0.76263633733E+00 -0.41133265883E+02  0.39075395772E+03  0.39291370891E+03  0.00000000000E+00 0. -1.
        -13    1    4    4    0    0  0.39464905366E+02  0.18424286308E+02  0.58524577669E+02  0.72952445284E+02  0.00000000000E+00 0. -1.
         13    1    4    4    0    0  0.75705542885E+02 -0.43984664858E+02  0.40163951655E+03  0.41107211194E+03  0.00000000000E+00 0.  1.
         21    1    1    2  503  502  0.22291193340E+02  0.31649753015E+02  0.66025693075E+02  0.76537548383E+02  0.00000000000E+00 0. -1.
          1    1    1    2  501    0 -0.12831106765E+03 -0.51849318741E+00  0.82920501461E+03  0.83907386753E+03  0.00000000000E+00 0. -1.
<scales pt_clust_5="13000.00000" pt_clust_6="13000.00000" pt_clust_7="13000.00000" pt_clust_8="13000.00000" pt_clust_9="38.71181" pt_clust_10="13000.00000"></scales>
<clustering>
<clus scale="   38.712">  2  9  1 -1</clus>
<clus scale="   80.519">  5  6 -1 -1</clus>
<clus scale="   80.749">  1  5  2 -1</clus>
<clus scale="   92.797">  7  8 -1 -1</clus>
<clus scale="  126.344">  7 10 -1 -1</clus>
<clus scale="   38.712">  2  5  1 -1</clus>
</clustering>
</event>
<event>
10    4  0.2759992E-005  0.6755589E+03  0.7546771E-02  0.1002078E+00
         21   -1    0    0  501  502  0.00000000000E+00  0.00000000000E+00  0.15428262506E+03  0.15428262506E+03  0.00000000000E+00 0.  1.
          2   -1    0    0  503    0 -0.00000000000E+00 -0.00000000000E+00 -0.17017591980E+04  0.17017591980E+04  0.00000000000E+00 0. -1.
         24    2    1    2    0    0 -0.19938764279E+03 -0.19587308387E+03 -0.30217648142E+03  0.41950985267E+03  0.80970324662E+02 0.  0.
         23    2    1    2    0    0  0.38538994255E+02 -0.18384191625E+03 -0.18806668026E+03  0.28080980575E+03  0.90564709079E+02 0.  0.
        -13    1    3    3    0    0 -0.13994951894E+03 -0.13914275563E+03 -0.26210397744E+03  0.32809308021E+03  0.00000000000E+00 0.  1.
         14    1    3    3    0    0 -0.59438123856E+02 -0.56730328247E+02 -0.40072503981E+02  0.91416772453E+02  0.00000000000E+00 0. -1.
        -11    1    4    4    0    0 -0.96072158294E+01 -0.14233677394E+03 -0.14856115968E+03  0.20596716723E+03  0.00000000000E+00 0. -1.
         11    1    4    4    0    0  0.48146210085E+02 -0.41505142311E+02 -0.39505520581E+02  0.74842638517E+02  0.00000000000E+00 0.  1.
         21    1    1    2  503  502  0.26755715296E+02 -0.27347858605E+02 -0.89022558565E+02  0.96895766702E+02  0.00000000000E+00 0.  1.
          1    1    1    2  501    0  0.13409293324E+03  0.40706285873E+03 -0.96821085275E+03  0.10588263980E+04  0.00000000000E+00 0. -1.
<scales pt_clust_5="13000.00000" pt_clust_6="13000.00000" pt_clust_7="13000.00000" pt_clust_8="13000.00000" pt_clust_9="38.25931" pt_clust_10="13000.00000"></scales>
<clustering>
<clus scale="   38.259">  1  9  2 -1</clus>
<clus scale="   80.970">  5  6 -1 -1</clus>
<clus scale="   90.565">  7  8 -1 -1</clus>
<clus scale="  291.407">  2  5  1 -1</clus>
<clus scale="  239.352">  7 10 -1 -1</clus>
<clus scale="   38.259">  1  5  2 -1</clus>
</clustering>
</event>
<event>
10    4  0.2759992E-005  0.7174363E+03  0.7546771E-02  0.9808295E-01
          2   -1    0    0  502    0 -0.00000000000E+00  0.00000000000E+00  0.22692680849E+04  0.22692680849E+04  0.00000000000E+00 0. -1.
         21   -1    0    0  503  502  0.00000000000E+00 -0.00000000000E+00 -0.17580025343E+03  0.17580025343E+03  0.00000000000E+00 0. -1.
         24    2    1    2    0    0  0.16818318201E+03 -0.44333822068E+03  0.81710443007E+03  0.94832185616E+03  0.82585305089E+02 0.  0.
         23    2    1    2    0    0 -0.60116594601E+02  0.12520107021E+03  0.25088809458E+02  0.16794208513E+03  0.91026274598E+02 0.  0.
        -13    1    3    3    0    0  0.92559725412E+02 -0.13477092959E+03  0.26802005929E+03  0.31395104461E+03  0.00000000000E+00 0.  1.
         14    1    3    3    0    0  0.75623456597E+02 -0.30856729108E+03  0.54908437078E+03  0.63437081155E+03  0.00000000000E+00 0. -1.
        -11    1    4    4    0    0 -0.44652732914E+02  0.81017955564E+01  0.20337959767E+02  0.49730657098E+02  0.00000000000E+00 0.  1.
         11    1    4    4    0    0 -0.15463861687E+02  0.11709927466E+03  0.47508496916E+01  0.11821142803E+03  0.00000000000E+00 0. -1.
         21    1    1    2  503  501  0.20991728096E+02  0.90081305832E+01 -0.91623138216E+01  0.24611929214E+02  0.00000000000E+00 0. -1.
          1    1    1    2  501    0 -0.12905831550E+03  0.30912901988E+03  0.12604369058E+04  0.13041924679E+04  0.00000000000E+00 0. -1.
<scales pt_clust_5="13000.00000" pt_clust_6="13000.00000" pt_clust_7="13000.00000" pt_clust_8="13000.00000" pt_clust_9="22.84292" pt_clust_10="13000.00000"></scales>
<clustering>
<clus scale="   22.843">  2  9  1 -1</clus>
<clus scale="   82.585">  5  6 -1 -1</clus>
<clus scale="   91.026">  7  8 -1 -1</clus>
<clus scale="  335.034">  7 10 -1 -1</clus>
<clus scale="  481.000">  1  5  2 -1</clus>
<clus scale="   22.843">  2  5  1 -1</clus>
</clustering>
</event>
<event>
10    4  0.2759992E-005  0.8224125E+03  0.7546771E-02  0.1010468E+00
          2   -1    0    0  502    0 -0.00000000000E+00  0.00000000000E+00  0.14175096898E+04  0.14175096898E+04  0.00000000000E+00 0. -1.
         21   -1    0    0  503  502  0.00000000000E+00 -0.00000000000E+00 -0.91162887659E+03  0.91162887659E+03  0.00000000000E+00 0. -1.
         24    2    1    2    0    0  0.24918806476E+02 -0.90856909680E+02  0.20130279044E+03  0.23664041709E+03  0.81240067772E+02 0.  0.
         23    2    1    2    0    0 -0.26493194008E+03 -0.12788154900E+03  0.58715767561E+03  0.66361240329E+03  0.95313494989E+02 0.  0.
        -11    1    3    3    0    0  0.47325502448E+02 -0.83895925059E+02  0.13153379134E+03  0.16303179962E+03  0.00000000000E+00 0.  1.
         12    1    3    3    0    0 -0.22406695972E+02 -0.69609846217E+01  0.69768999094E+02  0.73608617470E+02  0.00000000000E+00 0. -1.
        -13    1    4    4    0    0 -0.13889538071E+03 -0.21843600070E+02  0.21844905549E+03  0.25978656526E+03  0.00000000000E+00 0. -1.
         13    1    4    4    0    0 -0.12603655938E+03 -0.10603794893E+03  0.36870862011E+03  0.40382583802E+03  0.00000000000E+00 0.  1.
         21    1    1    2  503  501 -0.15665306839E+03 -0.70377439296E+02 -0.73895830420E+03  0.75865179308E+03  0.00000000000E+00 0. -1.
          1    1    1    2  501    0  0.39666620200E+03  0.28911589797E+03  0.45637865141E+03  0.67023395298E+03  0.00000000000E+00 0. -1.
<scales pt_clust_5="13000.00000" pt_clust_6="13000.00000" pt_clust_7="13000.00000" pt_clust_8="13000.00000" pt_clust_9="171.85660" pt_clust_10="13000.00000"></scales>
<clustering>
<clus scale="   81.240">  5  6 -1 -1</clus>
<clus scale="   95.313">  7  8 -1 -1</clus>
<clus scale="  124.402">  1  5  2 -1</clus>
<clus scale="  171.857">  2  9  1 -1</clus>
<clus scale="  364.178">  7 10 -1 -1</clus>
<clus scale="  171.857">  2  5  1 -1</clus>
</clustering>
</event>
<event>
10    4  0.2759992E-005  0.7753976E+03  0.7546771E-02  0.1006366E+00
          2   -1    0    0  502    0 -0.00000000000E+00  0.00000000000E+00  0.19120965449E+04  0.19120965449E+04  0.00000000000E+00 0. -1.
         21   -1    0    0  503  502  0.00000000000E+00 -0.00000000000E+00 -0.13947145342E+03  0.13947145342E+03  0.00000000000E+00 0. -1.
         24    2    1    2    0    0 -0.13422972850E+03  0.36184235627E+02  0.36573698072E+03  0.39993021548E+03  0.82787192640E+02 0.  0.
         23    2    1    2    0    0 -0.10241888867E+03  0.27465692518E+03  0.88938009075E+03  0.94095041840E+03  0.92003743203E+02 0.  0.
        -11    1    3    3    0    0 -0.39546193319E+02 -0.25535108892E+02  0.82663747223E+02  0.95127484447E+02  0.00000000000E+00 0.  1.
         12    1    3    3    0    0 -0.94683535186E+02  0.61719344519E+02  0.28307323350E+03  0.30480273103E+03  0.00000000000E+00 0. -1.
        -13    1    4    4    0    0 -0.85159874243E+02  0.98882657153E+02  0.36538735361E+03  0.38799214198E+03  0.00000000000E+00 0.  1.
         13    1    4    4    0    0 -0.17259014431E+02  0.17577426803E+03  0.52399273714E+03  0.55295827642E+03  0.00000000000E+00 0. -1.
         21    1    1    2  503  501 -0.67322531362E+02 -0.33604426876E+02  0.91282634912E+02  0.11829666171E+03  0.00000000000E+00 0.  1.
          1    1    1    2  501    0  0.30397114854E+03 -0.27723673393E+03  0.42622538508E+03  0.59239070272E+03  0.00000000000E+00 0. -1.
<scales pt_clust_5="13000.00000" pt_clust_6="13000.00000" pt_clust_7="13000.00000" pt_clust_8="13000.00000" pt_clust_9="75.24348" pt_clust_10="13000.00000"></scales>
<clustering>
<clus scale="   75.243">  2  9  1 -1</clus>
<clus scale="   82.787">  5  6 -1 -1</clus>
<clus scale="   92.004">  7  8 -1 -1</clus>
<clus scale="  168.546">  1  5  2 -1</clus>
<clus scale="  354.968">  7 10 -1 -1</clus>
<clus scale="   75.243">  2  5  1 -1</clus>
</clustering>
</event>
<event>
10    4  0.2759992E-005  0.5461642E+03  0.7546771E-02  0.1033162E+00
         21   -1    0    0  503  502  0.00000000000E+00  0.00000000000E+00  0.64838217930E+03  0.64838217930E+03  0.00000000000E+00 0.  1.
          2   -1    0    0  502    0 -0.00000000000E+00 -0.00000000000E+00 -0.28608304981E+03  0.28608304981E+03  0.00000000000E+00 0. -1.
         24    2    1    2    0    0  0.19578246736E+03 -0.61834136909E+02  0.10863540011E+03  0.24576570649E+03  0.80280117812E+02 0.  0.
         23    2    1    2    0    0  0.75064690557E+02  0.21957144137E+03  0.22401346332E+03  0.33859452690E+03  0.10304317670E+03 0.  0.
        -13    1    3    3    0    0  0.17358215888E+03 -0.30592264622E+02  0.65427539384E+02  0.18800908342E+03  0.00000000000E+00 0.  1.
         14    1    3    3    0    0  0.22200308480E+02 -0.31241872286E+02  0.43207860723E+02  0.57756623073E+02  0.00000000000E+00 0. -1.
        -11    1    4    4    0    0  0.17041476233E+02  0.18614745553E+03  0.16628772737E+03  0.25018572179E+03  0.00000000000E+00 0.  1.
         11    1    4    4    0    0  0.58023214323E+02  0.33423985834E+02  0.57725735949E+02  0.88408805106E+02  0.00000000000E+00 0. -1.
         21    1    1    2  503  501 -0.51434152815E+02 -0.73169765275E+02  0.67342993875E+02  0.11195698035E+03  0.00000000000E+00 0.  1.
          1    1    1    2  501    0 -0.21941300510E+03 -0.84567539184E+02 -0.37692727810E+02  0.23814801536E+03  0.00000000000E+00 0. -1.
<scales pt_clust_5="13000.00000" pt_clust_6="13000.00000" pt_clust_7="13000.00000" pt_clust_8="13000.00000" pt_clust_9="89.43873" pt_clust_10="13000.00000"></scales>
<clustering>
<clus scale="   80.280">  5  6 -1 -1</clus>
<clus scale="   89.439">  1  9  2 -1</clus>
<clus scale="  103.043">  7  8 -1 -1</clus>
<clus scale="  214.211">  2  5  1 -1</clus>
<clus scale="  186.973">  7 10 -1 -1</clus>
<clus scale="   89.439">  1  5  2 -1</clus>
</clustering>
</event>
<event>
10    4  0.2759992E-005  0.2359869E+03  0.7546771E-02  0.1144452E+00
          2   -1    0    0  502    0 -0.00000000000E+00  0.00000000000E+00  0.59223202652E+03  0.59223202652E+03  0.00000000000E+00 0. -1.
         21   -1    0    0  503  502  0.00000000000E+00 -0.00000000000E+00 -0.10857134348E+03  0.10857134348E+03  0.00000000000E+00 0. -1.
         24    2    1    2    0    0  0.13939776589E+03 -0.28609381578E+02  0.64490153106E+02  0.17617289747E+03  0.81410540506E+02 0.  0.
         23    2    1    2    0    0 -0.13434044526E+02  0.57773151282E+02  0.32291228102E+03  0.34071227965E+03  0.91073078924E+02 0.  0.
        -11    1    3    3    0    0  0.29384117246E+02 -0.23070342419E+02  0.53804790469E+02  0.65502843625E+02  0.00000000000E+00 0.  1.
         12    1    3    3    0    0  0.11001364865E+03 -0.55390391594E+01  0.10685362637E+02  0.11067005385E+03  0.00000000000E+00 0. -1.
        -13    1    4    4    0    0  0.17936225840E+02  0.11951606208E+02  0.11581755366E+02  0.24468063791E+02  0.00000000000E+00 0.  1.
         13    1    4    4    0    0 -0.31370270366E+02  0.45821545075E+02  0.31133052566E+03  0.31624421586E+03  0.00000000000E+00 0. -1.
         21    1    1    2  503  501 -0.43903101598E+02  0.22053719572E+02  0.24845438695E+01  0.49193717435E+02  0.00000000000E+00 0. -1.
          1    1    1    2  501    0 -0.82060619771E+02 -0.51217489276E+02  0.93773705039E+02  0.13472447544E+03  0.00000000000E+00 0. -1.
<scales pt_clust_5="13000.00000" pt_clust_6="13000.00000" pt_clust_7="13000.00000" pt_clust_8="13000.00000" pt_clust_9="49.13094" pt_clust_10="13000.00000"></scales>
<clustering>
<clus scale="   49.131">  2  9  1 -1</clus>
<clus scale="   81.411">  5  6 -1 -1</clus>
<clus scale="   91.073">  7  8 -1 -1</clus>
<clus scale="  103.368">  7 10 -1 -1</clus>
<clus scale="  138.083">  1  5  2 -1</clus>
<clus scale="   49.131">  2  5  1 -1</clus>
</clustering>
</event>
<event>
10    4  0.2759992E-005  0.1947503E+03  0.7546771E-02  0.1190786E+00
         21   -1    0    0  503  502  0.00000000000E+00  0.00000000000E+00  0.25535310683E+02  0.25535310683E+02  0.00000000000E+00 0.  1.
          2   -1    0    0  502    0 -0.00000000000E+00 -0.00000000000E+00 -0.11807870476E+04  0.11807870476E+04  0.00000000000E+00 0. -1.
         24    2    1    2    0    0  0.11764596503E+02 -0.20935819495E+02 -0.56686801518E+03  0.57312125617E+03  0.80943890287E+02 0.  0.
         23    2    1    2    0    0 -0.46956490621E+02  0.29878142817E+02 -0.17634673562E+03  0.20566553650E+03  0.90014033963E+02 0.  0.
        -11    1    3    3    0    0  0.43476133308E+02 -0.19992193551E+02 -0.24046857230E+03  0.24518359699E+03  0.00000000000E+00 0.  1.
         12    1    3    3    0    0 -0.31711536804E+02 -0.94362594370E+00 -0.32639944288E+03  0.32793765918E+03  0.00000000000E+00 0. -1.
        -13    1    4    4    0    0  0.13255293895E+02 -0.18440280758E+02 -0.16244872013E+02  0.27922081538E+02  0.00000000000E+00 0. -1.
         13    1    4    4    0    0 -0.60211784516E+02  0.48318423575E+02 -0.16010186361E+03  0.17774345496E+03  0.00000000000E+00 0.  1.
         21    1    1    2  503  501 -0.20077196685E+02 -0.16183631395E+02 -0.23089092114E+02  0.34613724539E+02  0.00000000000E+00 0.  1.
          1    1    1    2  501    0  0.55269090802E+02  0.72413080735E+01 -0.38894789405E+03  0.39292184111E+03  0.00000000000E+00 0. -1.
<scales pt_clust_5="13000.00000" pt_clust_6="13000.00000" pt_clust_7="13000.00000" pt_clust_8="13000.00000" pt_clust_9="25.78767" pt_clust_10="13000.00000"></scales>
<clustering>
<clus scale="   25.788">  1  9  2 -1</clus>
<clus scale="   80.944">  5  6 -1 -1</clus>
<clus scale="   84.721">  2  5  1 -1</clus>
<clus scale="   90.014">  7  8 -1 -1</clus>
<clus scale="   59.118">  7 10 -1 -1</clus>
<clus scale="   25.788">  1  5  2 -1</clus>
</clustering>
</event>
<event>
10    4  0.2759992E-005  0.2741230E+03  0.7546771E-02  0.1126632E+00
          2   -1    0    0  503    0 -0.00000000000E+00  0.00000000000E+00  0.65385196548E+03  0.65385196548E+03  0.00000000000E+00 0. -1.
         21   -1    0    0  501  502  0.00000000000E+00 -0.00000000000E+00 -0.85073667832E+02  0.85073667832E+02  0.00000000000E+00 0. -1.
         24    2    1    2    0    0  0.83035823454E+02 -0.65513179920E+02  0.26696581330E+03  0.29803696078E+03  0.79802003742E+02 0.  0.
         23    2    1    2    0    0  0.13841060701E+02  0.12042352215E+03  0.17143944430E+03  0.22860771671E+03  0.90424584210E+02 0.  0.
        -11    1    3    3    0    0  0.48992585890E+02 -0.21602387610E+02  0.21634832269E+03  0.22287560062E+03  0.00000000000E+00 0.  1.
         12    1    3    3    0    0  0.34043237564E+02 -0.43910792311E+02  0.50617490610E+02  0.75161360158E+02  0.00000000000E+00 0. -1.
        -13    1    4    4    0    0  0.26592223979E+02  0.68651935189E+02  0.15694332125E+03  0.17335351357E+03  0.00000000000E+00 0. -1.
         13    1    4    4    0    0 -0.12751163279E+02  0.51771586964E+02  0.14496123050E+02  0.55254203145E+02  0.00000000000E+00 0.  1.
         21    1    1    2  503  502  0.21446588753E+02 -0.30597090470E+01 -0.78913730219E+01  0.23056273697E+02  0.00000000000E+00 0.  1.
          1    1    1    2  501    0 -0.11832347291E+03 -0.51850633186E+02  0.13826441308E+03  0.18922468213E+03  0.00000000000E+00 0. -1.
<scales pt_clust_5="13000.00000" pt_clust_6="13000.00000" pt_clust_7="13000.00000" pt_clust_8="13000.00000" pt_clust_9="21.66375" pt_clust_10="13000.00000"></scales>
<clustering>
<clus scale="   21.664">  2  9  1 -1</clus>
<clus scale="   79.802">  5  6 -1 -1</clus>
<clus scale="   90.425">  7  8 -1 -1</clus>
<clus scale="  122.515">  7 10 -1 -1</clus>
<clus scale="  135.879">  1  5  2 -1</clus>
<clus scale="   21.664">  2  5  1 -1</clus>
</clustering>
</event>
<event>
10    4  0.2759992E-005  0.1797318E+03  0.7546771E-02  0.1200877E+00
          2   -1    0    0  502    0 -0.00000000000E+00  0.00000000000E+00  0.22255804812E+03  0.22255804812E+03  0.00000000000E+00 0. -1.
         21   -1    0    0  503  502  0.00000000000E+00 -0.00000000000E+00 -0.14207581521E+03  0.14207581521E+03  0.00000000000E+00 0. -1.
         24    2    1    2    0    0  0.23834409447E+02 -0.31334496489E+00  0.10933398943E+03  0.13881372007E+03  0.82141039538E+02 0.  0.
         23    2    1    2    0    0 -0.25714032878E+02  0.66523452558E+02  0.38777672176E+02  0.12229579251E+03  0.91465686355E+02 0.  0.
        -13    1    3    3    0    0  0.45405995635E+02  0.21778548966E+00  0.10804348402E+03  0.11719704053E+03  0.00000000000E+00 0.  1.
         14    1    3    3    0    0 -0.21571586188E+02 -0.53113045455E+00  0.12905054144E+01  0.21616679543E+02  0.00000000000E+00 0. -1.
        -13    1    4    4    0    0 -0.12849566440E+02  0.25145108157E+02 -0.29877098234E+02  0.41109960117E+02  0.00000000000E+00 0.  1.
         13    1    4    4    0    0 -0.12864466438E+02  0.41378344401E+02  0.68654770410E+02  0.81185832398E+02  0.00000000000E+00 0. -1.
         21    1    1    2  503  501  0.20827866404E+02 -0.22237775209E+02 -0.27733204463E+02  0.41200112803E+02  0.00000000000E+00 0.  1.
          1    1    1    2  501    0 -0.18948242973E+02 -0.43972332384E+02 -0.39896224228E+02  0.62324237939E+02  0.00000000000E+00 0. -1.
<scales pt_clust_5="13000.00000" pt_clust_6="13000.00000" pt_clust_7="13000.00000" pt_clust_8="13000.00000" pt_clust_9="30.46832" pt_clust_10="13000.00000"></scales>
<clustering>
<clus scale="   30.468">  2  9  1 -1</clus>
<clus scale="   82.141">  5  6 -1 -1</clus>
<clus scale="   86.433">  1  5  2 -1</clus>
<clus scale="   91.466">  7  8 -1 -1</clus>
<clus scale="   55.336">  7 10 -1 -1</clus>
<clus scale="   30.468">  2  5  1 -1</clus>
</clustering>
</event>
<event>
10    4  0.2759992E-005  0.3014869E+03  0.7546771E-02  0.1121998E+00
         21   -1    0    0  501  502  0.00000000000E+00  0.00000000000E+00  0.41359500403E+03  0.41359500403E+03  0.00000000000E+00 0. -1.
          2   -1    0    0  503    0 -0.00000000000E+00 -0.00000000000E+00 -0.49625598758E+03  0.49625598758E+03  0.00000000000E+00 0. -1.
         24    2    1    2    0    0  0.22372571155E+02 -0.11721901851E+03 -0.16198815532E+03  0.21695154230E+03  0.81160205789E+02 0.  0.
         23    2    1    2    0    0  0.86551731799E+01 -0.11799621228E+03 -0.30526922754E+02  0.15180074647E+03  0.90075276752E+02 0.  0.
        -13    1    3    3    0    0  0.52221941334E+02 -0.58320365622E+02 -0.88653675170E+02  0.11827032732E+03  0.00000000000E+00 0.  1.
         14    1    3    3    0    0 -0.29849370179E+02 -0.58898652886E+02 -0.73334480147E+02  0.98681214982E+02  0.00000000000E+00 0. -1.
        -13    1    4    4    0    0 -0.26314220232E+02 -0.72698380842E+00 -0.50216394807E+01  0.26798946900E+02  0.00000000000E+00 0.  1.
         13    1    4    4    0    0  0.34969393412E+02 -0.11726922847E+03 -0.25505283274E+02  0.12500179957E+03  0.00000000000E+00 0. -1.
         21    1    1    2  503  502 -0.44678862619E+02  0.13561381166E+03  0.29650613363E+03  0.32909450612E+03  0.00000000000E+00 0. -1.
          1    1    1    2  501    0  0.13651118285E+02  0.99601419129E+02 -0.18665203911E+03  0.21200419672E+03  0.00000000000E+00 0. -1.
<scales pt_clust_5="13000.00000" pt_clust_6="13000.00000" pt_clust_7="13000.00000" pt_clust_8="13000.00000" pt_clust_9="142.78413" pt_clust_10="13000.00000"></scales>
<clustering>
<clus scale="   81.160">  5  6 -1 -1</clus>
<clus scale="   90.075">  7  8 -1 -1</clus>
<clus scale="  100.533">  7 10 -1 -1</clus>
<clus scale="  142.784">  1  9  2 -1</clus>
<clus scale="  114.586">  2  5  1 -1</clus>
<clus scale="  142.784">  1  5  2 -1</clus>
</clustering>
</event>
<event>
10    4  0.2759992E-005  0.2271914E+03  0.7546771E-02  0.1159920E+00
          2   -1    0    0  503    0 -0.00000000000E+00  0.00000000000E+00  0.89299674008E+03  0.89299674008E+03  0.00000000000E+00 0. -1.
         21   -1    0    0  501  502  0.00000000000E+00 -0.00000000000E+00 -0.59851063497E+02  0.59851063497E+02  0.00000000000E+00 0.  1.
         24    2    1    2    0    0  0.43839412693E+02  0.58424347900E+02  0.57252357458E+03  0.58242534127E+03  0.78107209434E+02 0.  0.
         23    2    1    2    0    0 -0.27955723147E+02 -0.14554771990E+02  0.87149190950E+01  0.97621362442E+02  0.91981610912E+02 0.  0.
        -13    1    3    3    0    0 -0.18395514601E+02  0.31526210537E+02  0.14305929576E+03  0.14764233476E+03  0.00000000000E+00 0.  1.
         14    1    3    3    0    0  0.62234927294E+02  0.26898137363E+02  0.42946427882E+03  0.43478300651E+03  0.00000000000E+00 0. -1.
        -13    1    4    4    0    0  0.26307109622E+02  0.19717886972E+02  0.57298496611E+01  0.33371998149E+02  0.00000000000E+00 0. -1.
         13    1    4    4    0    0 -0.54262832770E+02 -0.34272658962E+02  0.29850694339E+01  0.64249364293E+02  0.00000000000E+00 0.  1.
         21    1    1    2  503  502  0.28901870536E+02 -0.13173760832E+02  0.27799125859E+02  0.42209684830E+02  0.00000000000E+00 0.  1.
          1    1    1    2  501    0 -0.44785560082E+02 -0.30695815078E+02  0.22410805704E+03  0.23059141503E+03  0.00000000000E+00 0. -1.
<scales pt_clust_5="13000.00000" pt_clust_6="13000.00000" pt_clust_7="13000.00000" pt_clust_8="13000.00000" pt_clust_9="31.76265" pt_clust_10="13000.00000"></scales>
<clustering>
<clus scale="   31.763">  2  9  1 -1</clus>
<clus scale="   78.107">  5  6 -1 -1</clus>
<clus scale="   91.982">  7  8 -1 -1</clus>
<clus scale="   53.312">  7 10 -1 -1</clus>
<clus scale="  107.417">  1  5  2 -1</clus>
<clus scale="   31.763">  2  5  1 -1</clus>
</clustering>
</event>
<event>
10    4  0.2759992E-005  0.2692100E+03  0.7546771E-02  0.1111166E+00
         21   -1    0    0  501  502  0.00000000000E+00  0.00000000000E+00  0.76298789641E+02  0.76298789641E+02  0.00000000000E+00 0. -1.
          2   -1    0    0  503    0 -0.00000000000E+00 -0.00000000000E+00 -0.13948476525E+04  0.13948476525E+04  0.00000000000E+00 0. -1.
         24    2    1    2    0    0 -0.14114157030E+01  0.20709920826E+03 -0.35527443929E+03  0.41764181418E+03  0.72888158048E+02 0.  0.
         23    2    1    2    0    0  0.12003038626E+02 -0.14197050163E+02 -0.34908618843E+03  0.35983022026E+03  0.85270107856E+02 0.  0.
        -13    1    3    3    0    0 -0.35879679160E+02  0.79830096879E+02 -0.15006126876E+03  0.17371983227E+03  0.00000000000E+00 0.  1.
         14    1    3    3    0    0  0.34468263457E+02  0.12726911138E+03 -0.20521317053E+03  0.24392198190E+03  0.00000000000E+00 0. -1.
        -13    1    4    4    0    0  0.47129540792E+02 -0.15365843194E+02 -0.15991815659E+03  0.16742496696E+03  0.00000000000E+00 0.  1.
         13    1    4    4    0    0 -0.35126502166E+02  0.11687930317E+01 -0.18916803183E+03  0.19240525330E+03  0.00000000000E+00 0. -1.
         21    1    1    2  503  502 -0.67545719888E+02 -0.21683443134E+02 -0.21500307685E+02  0.74127317582E+02  0.00000000000E+00 0. -1.
          1    1    1    2  501    0  0.56954096966E+02 -0.17121871496E+03 -0.59268792745E+03  0.61954709011E+03  0.00000000000E+00 0. -1.
<scales pt_clust_5="13000.00000" pt_clust_6="13000.00000" pt_clust_7="13000.00000" pt_clust_8="13000.00000" pt_clust_9="70.94079" pt_clust_10="13000.00000"></scales>
<clustering>
<clus scale="   70.941">  1  9  2 -1</clus>
<clus scale="   72.888">  5  6 -1 -1</clus>
<clus scale="   85.270">  7  8 -1 -1</clus>
<clus scale="  181.248">  7 10 -1 -1</clus>
<clus scale="  211.375">  2  5  1 -1</clus>
<clus scale="   70.941">  1  5  2 -1</clus>
</clustering>
</event>
<event>
10    4  0.2759992E-005  0.2652406E+03  0.7546771E-02  0.1151196E+00
         21   -1    0    0  501  502  0.00000000000E+00  0.00000000000E+00  0.99960324843E+02  0.99960324843E+02  0.00000000000E+00 0.  1.
          2   -1    0    0  503    0 -0.00000000000E+00 -0.00000000000E+00 -0.41671338491E+03  0.41671338491E+03  0.00000000000E+00 0. -1.
         24    2    1    2    0    0  0.25487844340E+02 -0.13750554340E+02 -0.16456453461E+02  0.87249428373E+02  0.80640808139E+02 0.  0.
         23    2    1    2    0    0  0.74744976031E+02 -0.54917910653E+02 -0.70805269143E+02  0.14978940498E+03  0.93918535733E+02 0.  0.
        -13    1    3    3    0    0 -0.63011049911E+01  0.30504367693E+02 -0.46098114410E+01  0.31487628269E+02  0.00000000000E+00 0.  1.
         14    1    3    3    0    0  0.31788949331E+02 -0.44254922033E+02 -0.11846642020E+02  0.55761800104E+02  0.00000000000E+00 0. -1.
        -13    1    4    4    0    0  0.79188137458E+02 -0.25644211054E+02 -0.83201933260E+02  0.11769005214E+03  0.00000000000E+00 0.  1.
         13    1    4    4    0    0 -0.44431614272E+01 -0.29273699598E+02  0.12396664117E+02  0.32099352842E+02  0.00000000000E+00 0. -1.
         21    1    1    2  503  502 -0.21362536760E+02  0.10864148504E+02  0.59506769023E+01  0.24694093527E+02  0.00000000000E+00 0. -1.
          1    1    1    2  501    0 -0.78870283611E+02  0.57804316489E+02 -0.23544201437E+03  0.25494078287E+03  0.00000000000E+00 0. -1.
<scales pt_clust_5="13000.00000" pt_clust_6="13000.00000" pt_clust_7="13000.00000" pt_clust_8="13000.00000" pt_clust_9="23.96639" pt_clust_10="13000.00000"></scales>
<clustering>
<clus scale="   23.966">  1  9  2 -1</clus>
<clus scale="   80.641">  5  6 -1 -1</clus>
<clus scale="   82.836">  2  5  1 -1</clus>
<clus scale="   93.919">  7  8 -1 -1</clus>
<clus scale="   87.078">  7 10 -1 -1</clus>
<clus scale="   23.966">  1  5  2 -1</clus>
</clustering>
</event>
<event>
10    4  0.2759992E-005  0.1506155E+03  0.7546771E-02  0.1226702E+00
          2   -1    0    0  503    0 -0.00000000000E+00  0.00000000000E+00  0.11888492945E+04  0.11888492945E+04  0.00000000000E+00 0. -1.
         21   -1    0    0  501  502  0.00000000000E+00 -0.00000000000E+00 -0.76619964165E+02  0.76619964165E+02  0.00000000000E+00 0. -1.
         24    2    1    2    0    0  0.49842188865E+01 -0.26413423012E+02  0.10494740332E+04  0.10529077700E+04  0.80600958530E+02 0.  0.
         23    2    1    2    0    0  0.36463572470E+01  0.44533593983E+02  0.18946412790E+02  0.10343880431E+03  0.91345951010E+02 0.  0.
        -13    1    3    3    0    0  0.27803831080E+02 -0.11385311324E+02  0.14795174169E+03  0.15097150793E+03  0.00000000000E+00 0.  1.
         14    1    3    3    0    0 -0.22819612194E+02 -0.15028111688E+02  0.90152229149E+03  0.90193626210E+03  0.00000000000E+00 0. -1.
        -13    1    4    4    0    0 -0.40430776504E+02  0.40719207306E+02  0.12528546786E+02  0.58733857501E+02  0.00000000000E+00 0.  1.
         13    1    4    4    0    0  0.44077133751E+02  0.38143866777E+01  0.64178660044E+01  0.44704946813E+02  0.00000000000E+00 0. -1.
         21    1    1    2  503  502  0.29343404466E+02  0.13565410934E+02  0.49728579508E+02  0.59312624114E+02  0.00000000000E+00 0.  1.
          1    1    1    2  501    0 -0.37973980599E+02 -0.31685581906E+02 -0.59196951802E+01  0.49810060171E+02  0.00000000000E+00 0. -1.
<scales pt_clust_5="13000.00000" pt_clust_6="13000.00000" pt_clust_7="13000.00000" pt_clust_8="13000.00000" pt_clust_9="32.32732" pt_clust_10="13000.00000"></scales>
<clustering>
<clus scale="   32.327">  2  9  1 -1</clus>
<clus scale="   80.601">  5  6 -1 -1</clus>
<clus scale="   84.909">  1  5  2 -1</clus>
<clus scale="   91.346">  7  8 -1 -1</clus>
<clus scale="   41.829">  7 10 -1 -1</clus>
<clus scale="   32.327">  2  5  1 -1</clus>
</clustering>
</event>
<event>
10    4  0.2759992E-005  0.5119731E+03  0.7546771E-02  0.1075039E+00
         21   -1    0    0  501  502  0.00000000000E+00  0.00000000000E+00  0.48110191918E+03  0.48110191918E+03  0.00000000000E+00 0. -1.
          2   -1    0    0  503    0 -0.00000000000E+00 -0.00000000000E+00 -0.44947728509E+03  0.44947728509E+03  0.00000000000E+00 0. -1.
         24    2    1    2    0    0 -0.32487554783E+00  0.17377202911E+01 -0.50091983751E+02  0.93917658540E+02  0.79424143267E+02 0.  0.
         23    2    1    2    0    0 -0.18984294553E+03  0.95541469529E+02  0.10803493548E+03  0.25497174881E+03  0.90390978762E+02 0.  0.
        -11    1    3    3    0    0  0.20416211597E+02  0.12715554584E+02  0.12474734397E+02  0.27094760058E+02  0.00000000000E+00 0.  1.
         12    1    3    3    0    0 -0.20741087144E+02 -0.10977834293E+02 -0.62566718148E+02  0.66822898482E+02  0.00000000000E+00 0. -1.
        -13    1    4    4    0    0 -0.91153651347E+02  0.67204719765E+01  0.74788153417E+02  0.11809919893E+03  0.00000000000E+00 0.  1.
         13    1    4    4    0    0 -0.98689294185E+02  0.88820997552E+02  0.33246782059E+02  0.13687254988E+03  0.00000000000E+00 0. -1.
         21    1    1    2  503  502  0.13856402564E+03 -0.74015148456E+02  0.25239292927E+03  0.29728844940E+03  0.00000000000E+00 0. -1.
          1    1    1    2  501    0  0.51603795440E+02 -0.23264041364E+02 -0.27871124690E+03  0.28440134753E+03  0.00000000000E+00 0. -1.
<scales pt_clust_5="13000.00000" pt_clust_6="13000.00000" pt_clust_7="13000.00000" pt_clust_8="13000.00000" pt_clust_9="157.02736" pt_clust_10="13000.00000"></scales>
<clustering>
<clus scale="   79.424">  5  6 -1 -1</clus>
<clus scale="   79.444">  2  5  1 -1</clus>
<clus scale="   90.391">  7  8 -1 -1</clus>
<clus scale="   55.862">  7 10 -1 -1</clus>
<clus scale="  157.027">  1  9  2 -1</clus>
<clus scale="  157.027">  1  5  2 -1</clus>
</clustering>
</event>
<event>
10    4  0.2759992E-005  0.6655887E+03  0.7546771E-02  0.1032451E+00
         21   -1    0    0  501  502  0.00000000000E+00  0.00000000000E+00  0.45460073708E+03  0.45460073708E+03  0.00000000000E+00 0. -1.
          2   -1    0    0  503    0 -0.00000000000E+00 -0.00000000000E+00 -0.38280526631E+03  0.38280526631E+03  0.00000000000E+00 0. -1.
         24    2    1    2    0    0  0.84331059210E+02 -0.15181473462E+02  0.11583061786E+02  0.11916755879E+03  0.82003262517E+02 0.  0.
         23    2    1    2    0    0 -0.15026140854E+03 -0.31406086200E+03 -0.89046534777E+01  0.36186734485E+03  0.98264777410E+02 0.  0.
        -11    1    3    3    0    0  0.32468251304E+02  0.12017143927E+02 -0.31229538862E+02  0.46624920252E+02  0.00000000000E+00 0.  1.
         12    1    3    3    0    0  0.51862807905E+02 -0.27198617389E+02  0.42812600648E+02  0.72542638537E+02  0.00000000000E+00 0. -1.
        -13    1    4    4    0    0 -0.11149664371E+03 -0.18676806155E+03 -0.48852328142E+02  0.22293577626E+03  0.00000000000E+00 0. -1.
         13    1    4    4    0    0 -0.38764764830E+02 -0.12729280045E+03  0.39947674665E+02  0.13893156859E+03  0.00000000000E+00 0.  1.
         21    1    1    2  503  502  0.23954384622E+02  0.26988675852E+02  0.33333745611E+02  0.49125754583E+02  0.00000000000E+00 0. -1.
          1    1    1    2  501    0  0.41975964711E+02  0.30225365961E+03  0.35783316858E+02  0.30724534517E+03  0.00000000000E+00 0. -1.
<scales pt_clust_5="13000.00000" pt_clust_6="13000.00000" pt_clust_7="13000.00000" pt_clust_8="13000.00000" pt_clust_9="36.08602" pt_clust_10="13000.00000"></scales>
<clustering>
<clus scale="   36.086">  1  9  2 -1</clus>
<clus scale="   82.003">  5  6 -1 -1</clus>
<clus scale="   98.265">  7  8 -1 -1</clus>
<clus scale="  120.866">  2  5  1 -1</clus>
<clus scale="  322.041">  7 10 -1 -1</clus>
<clus scale="   36.086">  1  5  2 -1</clus>
</clustering>
</event>
<event>
10    4  0.3523774E-005  0.1713675E+03  0.7546771E-02  0.1208173E+00
         21   -1    0    0  503  502  0.00000000000E+00  0.00000000000E+00  0.73997507514E+03  0.73997507514E+03  0.00000000000E+00 0.  1.
          2   -1    0    0  502    0 -0.00000000000E+00 -0.00000000000E+00 -0.96099868219E+03  0.96099868219E+03  0.00000000000E+00 0. -1.
         24    2    1    2    0    0  0.94697199282E+01  0.22211472098E+02 -0.84819414464E+03  0.85246335258E+03  0.81715576266E+02 0.  0.
         23    2    1    2    0    0 -0.32578464064E+02 -0.13378520474E+02 -0.41395996726E+02  0.10529525055E+03  0.90183812924E+02 0.  0.
        -11    1    3    3    0    0 -0.31502437054E+02  0.15105929558E+02 -0.20745632430E+03  0.21037756330E+03  0.00000000000E+00 0.  1.
         12    1    3    3    0    0  0.40972156982E+02  0.71055425393E+01 -0.64073782034E+03  0.64208578928E+03  0.00000000000E+00 0. -1.
        -13    1    4    4    0    0  0.24737445851E+02 -0.91761587887E+01  0.99802224440E+01  0.28209004899E+02  0.00000000000E+00 0.  1.
         13    1    4    4    0    0 -0.57315909914E+02 -0.42023616854E+01 -0.51376219170E+02  0.77086245655E+02  0.00000000000E+00 0. -1.
         21    1    1    2  503  501  0.78290466235E+02 -0.51802050921E+02  0.66667413588E+03  0.67325125550E+03  0.00000000000E+00 0.  1.
          1    1    1    2  501    0 -0.55181722099E+02  0.42969099298E+02  0.18923984325E+01  0.69963898692E+02  0.00000000000E+00 0. -1.
<scales pt_clust_5="13000.00000" pt_clust_6="13000.00000" pt_clust_7="13000.00000" pt_clust_8="13000.00000" pt_clust_9="93.74991" pt_clust_10="13000.00000"></scales>
<clustering>
<clus scale="   81.716">  5  6 -1 -1</clus>
<clus scale="   85.208">  2  5  1 -1</clus>
<clus scale="   90.184">  7  8 -1 -1</clus>
<clus scale="   72.195">  7 10 -1 -1</clus>
<clus scale="   93.750">  1  9  2 -1</clus>
<clus scale="   93.750">  1  5  2 -1</clus>
</clustering>
</event>
<event>
10    4  0.2759992E-005  0.5601467E+03  0.7546771E-02  0.1054063E+00
         21   -1    0    0  501  502  0.00000000000E+00  0.00000000000E+00  0.48127778537E+03  0.48127778537E+03  0.00000000000E+00 0.  1.
          2   -1    0    0  503    0 -0.00000000000E+00 -0.00000000000E+00 -0.87408369153E+03  0.87408369153E+03  0.00000000000E+00 0. -1.
         24    2    1    2    0    0 -0.73404070924E+02 -0.13514522448E+02 -0.40109446327E+02  0.11473372226E+03  0.77357995028E+02 0.  0.
         23    2    1    2    0    0  0.91693879363E+02 -0.19847384710E+03 -0.13063025174E+03  0.27242477259E+03  0.96702422682E+02 0.  0.
        -13    1    3    3    0    0 -0.25364441546E+02  0.13784949047E+02  0.18418892177E+02  0.34243762997E+02  0.00000000000E+00 0.  1.
         14    1    3    3    0    0 -0.48039629378E+02 -0.27299471495E+02 -0.58528338504E+02  0.80489959267E+02  0.00000000000E+00 0. -1.
        -13    1    4    4    0    0  0.24347466506E+02 -0.10361668313E+03 -0.13416642741E+02  0.10728104423E+03  0.00000000000E+00 0.  1.
         13    1    4    4    0    0  0.67346412857E+02 -0.94857163974E+02 -0.11721360900E+03  0.16514372836E+03  0.00000000000E+00 0. -1.
         21    1    1    2  503  502  0.70607321054E+01 -0.46742511352E+02  0.34297924868E+03  0.34622172279E+03  0.00000000000E+00 0.  1.
          1    1    1    2  501    0 -0.25350540545E+02  0.25873088090E+03 -0.56504545678E+03  0.62198125926E+03  0.00000000000E+00 0. -1.
<scales pt_clust_5="13000.00000" pt_clust_6="13000.00000" pt_clust_7="13000.00000" pt_clust_8="13000.00000" pt_clust_9="47.27279" pt_clust_10="13000.00000"></scales>
<clustering>
<clus scale="   47.273">  1  9  2 -1</clus>
<clus scale="   77.358">  5  6 -1 -1</clus>
<clus scale="   96.702">  7  8 -1 -1</clus>
<clus scale="  108.552">  2  5  1 -1</clus>
<clus scale="  242.179">  7 10 -1 -1</clus>
<clus scale="   47.273">  1  5  2 -1</clus>
</clustering>
</event>
<event>
10    4  0.2759992E-005  0.2917406E+03  0.7546771E-02  0.1121681E+00
         21   -1    0    0  503  502  0.00000000000E+00  0.00000000000E+00  0.39380385223E+03  0.39380385223E+03  0.00000000000E+00 0.  1.
          2   -1    0    0  502    0 -0.00000000000E+00 -0.00000000000E+00 -0.70955344277E+03  0.70955344277E+03  0.00000000000E+00 0. -1.
         24    2    1    2    0    0 -0.94372416858E+02 -0.24809892820E+02 -0.15688103029E+03  0.20213292334E+03  0.82002299887E+02 0.  0.
         23    2    1    2    0    0  0.41467371335E+02  0.33580486757E+02 -0.38962032229E+03  0.40370444463E+03  0.91247416919E+02 0.  0.
        -13    1    3    3    0    0 -0.62985291820E+02 -0.53580805862E+02 -0.85000011106E+02  0.11858773811E+03  0.00000000000E+00 0.  1.
         14    1    3    3    0    0 -0.31387125037E+02  0.28770913042E+02 -0.71881019183E+02  0.83545185224E+02  0.00000000000E+00 0. -1.
        -11    1    4    4    0    0  0.62425174333E+02 -0.12465283237E+01 -0.27767446413E+03  0.28460773752E+03  0.00000000000E+00 0.  1.
         11    1    4    4    0    0 -0.20957802998E+02  0.34827015080E+02 -0.11194585816E+03  0.11909670711E+03  0.00000000000E+00 0. -1.
         21    1    1    2  503  501  0.86836524753E+02 -0.13003453448E+03  0.31107380873E+03  0.34816156690E+03  0.00000000000E+00 0.  1.
          1    1    1    2  501    0 -0.33931479230E+02  0.12126394054E+03 -0.80322046688E+02  0.14935836014E+03  0.00000000000E+00 0. -1.
<scales pt_clust_5="13000.00000" pt_clust_6="13000.00000" pt_clust_7="13000.00000" pt_clust_8="13000.00000" pt_clust_9="155.28536" pt_clust_10="13000.00000"></scales>
<clustering>
<clus scale="   82.002">  5  6 -1 -1</clus>
<clus scale="   91.247">  7  8 -1 -1</clus>
<clus scale="  125.922">  7 10 -1 -1</clus>
<clus scale="  127.460">  2  5  1 -1</clus>
<clus scale="  155.285">  1  9  2 -1</clus>
<clus scale="  155.285">  1  5  2 -1</clus>
</clustering>
</event>
<event>
10    4  0.2759992E-005  0.4787546E+03  0.7546771E-02  0.1063091E+00
         21   -1    0    0  503  502  0.00000000000E+00  0.00000000000E+00  0.21365087820E+04  0.21365087820E+04  0.00000000000E+00 0. -1.
          2   -1    0    0  502    0 -0.00000000000E+00 -0.00000000000E+00 -0.13690792971E+03  0.13690792971E+03  0.00000000000E+00 0. -1.
         24    2    1    2    0    0 -0.99574383615E+02  0.48184177710E+02 -0.44040497427E+02  0.14358724504E+03  0.80255583430E+02 0.  0.
         23    2    1    2    0    0  0.12600454244E+03  0.14576841138E+03  0.55177517086E+03  0.59140736966E+03  0.90450335739E+02 0.  0.
        -11    1    3    3    0    0 -0.10293795820E+02  0.38853419746E+02  0.62750325120E+01  0.40680787742E+02  0.00000000000E+00 0.  1.
         12    1    3    3    0    0 -0.89280587796E+02  0.93307579640E+01 -0.50315529939E+02  0.10290645730E+03  0.00000000000E+00 0. -1.
        -11    1    4    4    0    0 -0.97160173733E+01  0.28878392833E+02  0.49237095776E+02  0.57902108482E+02  0.00000000000E+00 0.  1.
         11    1    4    4    0    0  0.13572055981E+03  0.11689001854E+03  0.50253807508E+03  0.53350526117E+03  0.00000000000E+00 0. -1.
         21    1    1    2  503  501  0.89088102243E+02  0.37994926694E+02  0.66184389018E+03  0.66889284596E+03  0.00000000000E+00 0. -1.
          1    1    1    2  501    0 -0.11551826107E+03 -0.23194751578E+03  0.83002228868E+03  0.86952925105E+03  0.00000000000E+00 0. -1.
<scales pt_clust_5="13000.00000" pt_clust_6="13000.00000" pt_clust_7="13000.00000" pt_clust_8="13000.00000" pt_clust_9="96.85197" pt_clust_10="13000.00000"></scales>
<clustering>
<clus scale="   80.256">  5  6 -1 -1</clus>
<clus scale="   90.450">  7  8 -1 -1</clus>
<clus scale="   96.852">  1  9  2 -1</clus>
<clus scale="  134.952">  2  5  1 -1</clus>
<clus scale="  216.121">  7 10 -1 -1</clus>
<clus scale="   96.852">  1  5  2 -1</clus>
</clustering>
</event>
<event>
10    4  0.2759992E-005  0.3021581E+03  0.7546771E-02  0.1126992E+00
         21   -1    0    0  501  502  0.00000000000E+00  0.00000000000E+00  0.17317742143E+03  0.17317742143E+03  0.00000000000E+00 0. -1.
          2   -1    0    0  503    0 -0.00000000000E+00 -0.00000000000E+00 -0.46007222815E+03  0.46007222815E+03  0.00000000000E+00 0. -1.
         24    2    1    2    0    0 -0.36705795430E+02 -0.48652151185E+02 -0.15641906426E+03  0.18595486699E+03  0.79987134331E+02 0.  0.
         23    2    1    2    0    0 -0.55918042390E+02  0.83816692744E+01 -0.13648692121E+03  0.17343532187E+03  0.90851809915E+02 0.  0.
        -13    1    3    3    0    0  0.23341769159E+02 -0.28980458937E+02 -0.52965534794E+02  0.64730619213E+02  0.00000000000E+00 0.  1.
         14    1    3    3    0    0 -0.60047564589E+02 -0.19671692248E+02 -0.10345352947E+03  0.12122424778E+03  0.00000000000E+00 0. -1.
        -13    1    4    4    0    0 -0.36432169147E+02  0.37947228611E+02 -0.28580591943E+02  0.59867732075E+02  0.00000000000E+00 0.  1.
         13    1    4    4    0    0 -0.19485873243E+02 -0.29565559337E+02 -0.10790632927E+03  0.11356758979E+03  0.00000000000E+00 0. -1.
         21    1    1    2  503  502 -0.27173831837E+02  0.12405668172E+03 -0.62817535888E+01  0.12715320619E+03  0.00000000000E+00 0. -1.
          1    1    1    2  501    0  0.11979766966E+03 -0.83786199808E+02  0.12292932338E+02  0.14670625453E+03  0.00000000000E+00 0. -1.
<scales pt_clust_5="13000.00000" pt_clust_6="13000.00000" pt_clust_7="13000.00000" pt_clust_8="13000.00000" pt_clust_9="118.31936" pt_clust_10="13000.00000"></scales>
<clustering>
<clus scale="   79.987">  5  6 -1 -1</clus>
<clus scale="   90.852">  7  8 -1 -1</clus>
<clus scale="  100.560">  2  5  1 -1</clus>
<clus scale="  118.319">  1  9  2 -1</clus>
<clus scale="   87.332">  7 10 -1 -1</clus>
<clus scale="  118.319">  1  5  2 -1</clus>
</clustering>
</event>
<event>
10    4  0.2759992E-005  0.2221258E+03  0.7546771E-02  0.1171201E+00
          2   -1    0    0  503    0 -0.00000000000E+00  0.00000000000E+00  0.84893795862E+03  0.84893795862E+03  0.00000000000E+00 0. -1.
         21   -1    0    0  501  502  0.00000000000E+00 -0.00000000000E+00 -0.86942403426E+02  0.86942403426E+02  0.00000000000E+00 0.  1.
         24    2    1    2    0    0 -0.28396605239E+02 -0.26035712980E+02  0.46267674343E+03  0.47104017331E+03  0.79528928233E+02 0.  0.
         23    2    1    2    0    0  0.12900850898E+02 -0.60734153997E+02  0.21491582124E+03  0.24149353391E+03  0.90968386204E+02 0.  0.
        -11    1    3    3    0    0  0.20842306377E+02  0.68032654231E+01  0.57041150872E+02  0.61109565932E+02  0.00000000000E+00 0.  1.
         12    1    3    3    0    0 -0.49238911617E+02 -0.32838978403E+02  0.40563559256E+03  0.40993060738E+03  0.00000000000E+00 0. -1.
        -11    1    4    4    0    0  0.27334172170E+02 -0.16798073324E+02  0.18181015370E+03  0.18461924121E+03  0.00000000000E+00 0. -1.
         11    1    4    4    0    0 -0.14433321272E+02 -0.43936080673E+02  0.33105667539E+02  0.56874292708E+02  0.00000000000E+00 0.  1.
         21    1    1    2  503  502  0.15515210780E+02 -0.22781220732E+02 -0.45635322382E+02  0.53313116889E+02  0.00000000000E+00 0.  1.
          1    1    1    2  501    0 -0.19456438555E-01  0.10955108771E+03  0.13003831291E+03  0.17003353793E+03  0.00000000000E+00 0. -1.
<scales pt_clust_5="13000.00000" pt_clust_6="13000.00000" pt_clust_7="13000.00000" pt_clust_8="13000.00000" pt_clust_9="27.56276" pt_clust_10="13000.00000"></scales>
<clustering>
<clus scale="   27.563">  2  9  1 -1</clus>
<clus scale="   79.529">  5  6 -1 -1</clus>
<clus scale="   88.615">  1  5  2 -1</clus>
<clus scale="   90.968">  7  8 -1 -1</clus>
<clus scale="   88.076">  7 10 -1 -1</clus>
<clus scale="   27.563">  2  5  1 -1</clus>
</clustering>
</event>
<event>
10    4  0.2759992E-005  0.1738137E+03  0.7546771E-02  0.1197853E+00
          2   -1    0    0  502    0 -0.00000000000E+00  0.00000000000E+00  0.88918752108E+03  0.88918752108E+03  0.00000000000E+00 0. -1.
         21   -1    0    0  503  502  0.00000000000E+00 -0.00000000000E+00 -0.34336047293E+02  0.34336047293E+02  0.00000000000E+00 0.  1.
         24    2    1    2    0    0  0.69895506728E+02 -0.34389212332E+02  0.42456535975E+03  0.43596137699E+03  0.61143910058E+02 0.  0.
         23    2    1    2    0    0 -0.66320335019E+02  0.55113302622E+02  0.22178167684E+03  0.25492376952E+03  0.91450276785E+02 0.  0.
        -13    1    3    3    0    0  0.37141121054E+02 -0.50316086999E+02  0.27599185018E+03  0.28298882107E+03  0.00000000000E+00 0.  1.
         14    1    3    3    0    0  0.32754385673E+02  0.15926874667E+02  0.14857350957E+03  0.15297255592E+03  0.00000000000E+00 0. -1.
        -11    1    4    4    0    0 -0.45683746967E+02  0.48097460823E+02  0.22342572139E+03  0.23306527724E+03  0.00000000000E+00 0. -1.
         11    1    4    4    0    0 -0.20636588052E+02  0.70158417989E+01 -0.16440445523E+01  0.21858492287E+02  0.00000000000E+00 0.  1.
         21    1    1    2  503  501  0.20630333640E+02  0.64229521495E+01  0.64063455632E+00  0.21616553682E+02  0.00000000000E+00 0.  1.
          1    1    1    2  501    0 -0.24205505350E+02 -0.27147042440E+02  0.20786380264E+03  0.21102186818E+03  0.00000000000E+00 0. -1.
<scales pt_clust_5="13000.00000" pt_clust_6="13000.00000" pt_clust_7="13000.00000" pt_clust_8="13000.00000" pt_clust_9="21.60706" pt_clust_10="13000.00000"></scales>
<clustering>
<clus scale="   21.607">  2  9  1 -1</clus>
<clus scale="   61.144">  5  6 -1 -1</clus>
<clus scale="   91.450">  7  8 -1 -1</clus>
<clus scale="   35.152">  7 10 -1 -1</clus>
<clus scale="  102.062">  1  5  2 -1</clus>
<clus scale="   21.607">  2  5  1 -1</clus>
</clustering>
</event>
<event>
10    4  0.2759992E-005  0.2284509E+03  0.7546771E-02  0.1167953E+00
          2   -1    0    0  503    0 -0.00000000000E+00  0.00000000000E+00  0.38881550544E+03  0.38881550544E+03  0.00000000000E+00 0. -1.
         21   -1    0    0  501  502  0.00000000000E+00 -0.00000000000E+00 -0.78157925369E+02  0.78157925369E+02  0.00000000000E+00 0. -1.
         24    2    1    2    0    0 -0.33530159779E+01  0.39826505334E+02  0.63822809692E+02  0.10958745715E+03  0.79615742692E+02 0.  0.
         23    2    1    2    0    0 -0.72008211907E+02 -0.40643430822E+02  0.10746643948E+03  0.16548298498E+03  0.94860485204E+02 0.  0.
        -11    1    3    3    0    0  0.37994263857E+02  0.15835455064E+02  0.32358284130E+02  0.52358230250E+02  0.00000000000E+00 0.  1.
         12    1    3    3    0    0 -0.41347279834E+02  0.23991050270E+02  0.31464525563E+02  0.57229226901E+02  0.00000000000E+00 0. -1.
        -11    1    4    4    0    0 -0.42143089007E+02 -0.71200328856E+02  0.76811865909E+02  0.11289636630E+03  0.00000000000E+00 0. -1.
         11    1    4    4    0    0 -0.29865122901E+02  0.30556898033E+02  0.30654573573E+02  0.52586618680E+02  0.00000000000E+00 0.  1.
         21    1    1    2  503  502 -0.24356340343E+02 -0.14431866688E+02  0.15919448852E+02  0.32479823626E+02  0.00000000000E+00 0. -1.
          1    1    1    2  501    0  0.99717568229E+02  0.15248792177E+02  0.12344888205E+03  0.15942316505E+03  0.00000000000E+00 0. -1.
<scales pt_clust_5="13000.00000" pt_clust_6="13000.00000" pt_clust_7="13000.00000" pt_clust_8="13000.00000" pt_clust_9="28.31095" pt_clust_10="13000.00000"></scales>
<clustering>
<clus scale="   28.311">  2  9  1 -1</clus>
<clus scale="   79.616">  5  6 -1 -1</clus>
<clus scale="   87.744">  1  5  2 -1</clus>
<clus scale="   94.860">  7  8 -1 -1</clus>
<clus scale="   92.486">  7 10 -1 -1</clus>
<clus scale="   28.311">  2  5  1 -1</clus>
</clustering>
</event>
<event>
10    4  0.2759992E-005  0.2509469E+03  0.7546771E-02  0.1158272E+00
         21   -1    0    0  501  502  0.00000000000E+00  0.00000000000E+00  0.11545002157E+03  0.11545002157E+03  0.00000000000E+00 0.  1.
          2   -1    0    0  503    0 -0.00000000000E+00 -0.00000000000E+00 -0.64909452833E+03  0.64909452833E+03  0.00000000000E+00 0. -1.
         24    2    1    2    0    0  0.87728761193E+01  0.15180794804E+02 -0.30416994579E+03  0.31524615804E+03  0.80952852659E+02 0.  0.
         23    2    1    2    0    0  0.11097974654E+02 -0.45122727778E+02 -0.23449656031E+02  0.10581825049E+03  0.92132459891E+02 0.  0.
        -13    1    3    3    0    0 -0.25179429440E+02 -0.17727384805E+02 -0.71974400019E+02  0.78285235499E+02  0.00000000000E+00 0.  1.
         14    1    3    3    0    0  0.33952305560E+02  0.32908179608E+02 -0.23219554577E+03  0.23696092255E+03  0.00000000000E+00 0. -1.
        -11    1    4    4    0    0 -0.23154552939E+01  0.22429916642E+02  0.14863572458E+02  0.27007189413E+02  0.00000000000E+00 0.  1.
         11    1    4    4    0    0  0.13413429948E+02 -0.67552644419E+02 -0.38313228489E+02  0.78811061078E+02  0.00000000000E+00 0. -1.
         21    1    1    2  503  502 -0.10716945158E+03 -0.26689607183E+02  0.24587661680E+01  0.11047023135E+03  0.00000000000E+00 0.  1.
          1    1    1    2  501    0  0.87298600811E+02  0.56631540157E+02 -0.20848367110E+03  0.23300991001E+03  0.00000000000E+00 0. -1.
<scales pt_clust_5="13000.00000" pt_clust_6="13000.00000" pt_clust_7="13000.00000" pt_clust_8="13000.00000" pt_clust_9="108.52302" pt_clust_10="13000.00000"></scales>
<clustering>
<clus scale="   80.953">  5  6 -1 -1</clus>
<clus scale="   82.830">  2  5  1 -1</clus>
<clus scale="   92.132">  7  8 -1 -1</clus>
<clus scale="  108.523">  1  9  2 -1</clus>
<clus scale="   86.152">  7 10 -1 -1</clus>
<clus scale="  108.523">  1  5  2 -1</clus>
</clustering>
</event>
<event>
10    4  0.2759992E-005  0.2765659E+03  0.7546771E-02  0.1106996E+00
         21   -1    0    0  501  502  0.00000000000E+00  0.00000000000E+00  0.74592925511E+03  0.74592925511E+03  0.00000000000E+00 0. -1.
          2   -1    0    0  503    0 -0.00000000000E+00 -0.00000000000E+00 -0.51711999046E+03  0.51711999046E+03  0.00000000000E+00 0. -1.
         24    2    1    2    0    0 -0.15919072810E+02 -0.20393642743E+03 -0.45480649975E+03  0.50524424589E+03  0.81112961242E+02 0.  0.
         23    2    1    2    0    0 -0.40778726637E+02  0.75198378450E+01  0.20504787467E+03  0.22866455482E+03  0.92322235769E+02 0.  0.
        -11    1    3    3    0    0  0.20644468903E+02 -0.11141359728E+03 -0.17700770282E+03  0.21016876698E+03  0.00000000000E+00 0.  1.
         12    1    3    3    0    0 -0.36563541713E+02 -0.92522830147E+02 -0.27779879693E+03  0.29507547891E+03  0.00000000000E+00 0. -1.
        -11    1    4    4    0    0  0.26047023996E+02  0.95529108195E+01  0.10296317989E+03  0.10663546303E+03  0.00000000000E+00 0. -1.
         11    1    4    4    0    0 -0.66825750633E+02 -0.20330729745E+01  0.10208469479E+03  0.12202909179E+03  0.00000000000E+00 0.  1.
         21    1    1    2  503  502  0.18068239407E+02  0.85335955752E+02  0.99862182281E+02  0.13259389906E+03  0.00000000000E+00 0. -1.
          1    1    1    2  501    0  0.38629560041E+02  0.11108063383E+03  0.37870570745E+03  0.39654654579E+03  0.00000000000E+00 0. -1.
<scales pt_clust_5="13000.00000" pt_clust_6="13000.00000" pt_clust_7="13000.00000" pt_clust_8="13000.00000" pt_clust_9="87.22779" pt_clust_10="13000.00000"></scales>
<clustering>
<clus scale="   81.113">  5  6 -1 -1</clus>
<clus scale="   87.228">  1  9  2 -1</clus>
<clus scale="   92.322">  7  8 -1 -1</clus>
<clus scale="  171.008">  7 10 -1 -1</clus>
<clus scale="  216.836">  2  5  1 -1</clus>
<clus scale="   87.228">  1  5  2 -1</clus>
</clustering>
</event>
<event>
10    4  0.2759992E-005  0.5817149E+03  0.7546771E-02  0.1037838E+00
          2   -1    0    0  502    0 -0.00000000000E+00  0.00000000000E+00  0.66934708928E+03  0.66934708928E+03  0.00000000000E+00 0. -1.
         21   -1    0    0  503  502  0.00000000000E+00 -0.00000000000E+00 -0.41886779010E+03  0.41886779010E+03  0.00000000000E+00 0.  1.
         24    2    1    2    0    0 -0.10586825503E+03 -0.78670952540E+02  0.11483565431E+03  0.19219390300E+03  0.79712374544E+02 0.  0.
         23    2    1    2    0    0  0.25391809454E+03 -0.88025471061E+02  0.25710870676E+01  0.28299079708E+03  0.88624479985E+02 0.  0.
        -11    1    3    3    0    0 -0.16412585284E+02 -0.35277392340E+02  0.76137985671E+02  0.85503568510E+02  0.00000000000E+00 0.  1.
         12    1    3    3    0    0 -0.89455669747E+02 -0.43393560200E+02  0.38697668635E+02  0.10669033449E+03  0.00000000000E+00 0. -1.
        -13    1    4    4    0    0  0.20835271410E+03 -0.10603403393E+03 -0.19238791884E+01  0.23379001505E+03  0.00000000000E+00 0.  1.
         13    1    4    4    0    0  0.45565380435E+02  0.18008562866E+02  0.44949662559E+01  0.49200782030E+02  0.00000000000E+00 0. -1.
         21    1    1    2  503  501 -0.19984013434E+02  0.23530561284E+02 -0.21407122135E+03  0.21628577373E+03  0.00000000000E+00 0.  1.
          1    1    1    2  501    0 -0.12806582607E+03  0.14316586232E+03  0.34714377916E+03  0.39674440557E+03  0.00000000000E+00 0. -1.
<scales pt_clust_5="13000.00000" pt_clust_6="13000.00000" pt_clust_7="13000.00000" pt_clust_8="13000.00000" pt_clust_9="30.87148" pt_clust_10="13000.00000"></scales>
<clustering>
<clus scale="   30.871">  2  9  1 -1</clus>
<clus scale="   79.712">  5  6 -1 -1</clus>
<clus scale="   88.624">  7  8 -1 -1</clus>
<clus scale="  154.551">  1  5  2 -1</clus>
<clus scale="  231.316">  7 10 -1 -1</clus>
<clus scale="   30.871">  2  5  1 -1</clus>
</clustering>
</event>
<event>
10    4  0.2759992E-005  0.5765071E+03  0.7546771E-02  0.1058146E+00
          2   -1    0    0  503    0 -0.00000000000E+00  0.00000000000E+00  0.57628924433E+03  0.57628924433E+03  0.00000000000E+00 0. -1.
         21   -1    0    0  501  502  0.00000000000E+00 -0.00000000000E+00 -0.24265337690E+03  0.24265337690E+03  0.00000000000E+00 0. -1.
         24    2    1    2    0    0 -0.22161248357E+02  0.23583267423E+02  0.15115302271E+03  0.17547265457E+03  0.83042909369E+02 0.  0.
         23    2    1    2    0    0  0.24917898672E+03  0.77282511821E+02  0.20149757705E+03  0.34207061251E+03  0.91368902447E+02 0.  0.
        -13    1    3    3    0    0  0.22085314360E+02 -0.75402737951E+01  0.12142213475E+02  0.26306846777E+02  0.00000000000E+00 0.  1.
         14    1    3    3    0    0 -0.44246562717E+02  0.31123541218E+02  0.13901080924E+03  0.14916580780E+03  0.00000000000E+00 0. -1.
        -13    1    4    4    0    0  0.28710918761E+02 -0.69507110149E+01 -0.31258202226E+01  0.29705218258E+02  0.00000000000E+00 0.  1.
         13    1    4    4    0    0  0.22046806796E+03  0.84233222836E+02  0.20462339727E+03  0.31236539425E+03  0.00000000000E+00 0. -1.
         21    1    1    2  503  502  0.23855753422E+02 -0.38042237771E+01 -0.21579239979E+02  0.32391861447E+02  0.00000000000E+00 0. -1.
          1    1    1    2  501    0 -0.25087349178E+03 -0.97061555467E+02  0.25645076405E+01  0.26900749270E+03  0.00000000000E+00 0. -1.
<scales pt_clust_5="13000.00000" pt_clust_6="13000.00000" pt_clust_7="13000.00000" pt_clust_8="13000.00000" pt_clust_9="24.15717" pt_clust_10="13000.00000"></scales>
<clustering>
<clus scale="   24.157">  2  9  1 -1</clus>
<clus scale="   83.043">  5  6 -1 -1</clus>
<clus scale="   88.744">  1  5  2 -1</clus>
<clus scale="   91.369">  7  8 -1 -1</clus>
<clus scale="  259.474">  7 10 -1 -1</clus>
<clus scale="   24.157">  2  5  1 -1</clus>
</clustering>
</event>
<event>
10    4  0.2759992E-005  0.2187825E+03  0.7546771E-02  0.1170871E+00
         21   -1    0    0  501  502  0.00000000000E+00  0.00000000000E+00  0.11954065951E+03  0.11954065951E+03  0.00000000000E+00 0. -1.
          2   -1    0    0  503    0 -0.00000000000E+00 -0.00000000000E+00 -0.28167791038E+03  0.28167791038E+03  0.00000000000E+00 0. -1.
         24    2    1    2    0    0  0.47769241563E+02 -0.27122692078E+01 -0.93717485542E+02  0.13295293525E+03  0.81266592475E+02 0.  0.
         23    2    1    2    0    0  0.54820192875E+02  0.44504042820E+02 -0.82108345846E+02  0.14070705061E+03  0.89837799720E+02 0.  0.
        -11    1    3    3    0    0  0.43875559929E+02 -0.38226557961E+02 -0.52139158083E+02  0.78133387858E+02  0.00000000000E+00 0.  1.
         12    1    3    3    0    0  0.38936816338E+01  0.35514288753E+02 -0.41578327459E+02  0.54819547395E+02  0.00000000000E+00 0. -1.
        -11    1    4    4    0    0  0.25309552477E+02 -0.22681480554E+01 -0.81532055218E+02  0.85400198889E+02  0.00000000000E+00 0.  1.
         11    1    4    4    0    0  0.29510640398E+02  0.46772190875E+02 -0.57629062804E+00  0.55306851717E+02  0.00000000000E+00 0. -1.
         21    1    1    2  503  502 -0.99599951648E+01 -0.18180592234E+02  0.23650397159E+02  0.31449590195E+02  0.00000000000E+00 0. -1.
          1    1    1    2  501    0 -0.92629439273E+02 -0.23611181379E+02 -0.99618166456E+01  0.96108993840E+02  0.00000000000E+00 0. -1.
<scales pt_clust_5="13000.00000" pt_clust_6="13000.00000" pt_clust_7="13000.00000" pt_clust_8="13000.00000" pt_clust_9="20.73006" pt_clust_10="13000.00000"></scales>
<clustering>
<clus scale="   20.730">  1  9  2 -1</clus>
<clus scale="   81.267">  5  6 -1 -1</clus>
<clus scale="   89.838">  7  8 -1 -1</clus>
<clus scale="   93.441">  2  5  1 -1</clus>
<clus scale="   87.497">  7 10 -1 -1</clus>
<clus scale="   20.730">  1  5  2 -1</clus>
</clustering>
</event>
<event>
10    4  0.2759992E-005  0.4073921E+03  0.7546771E-02  0.1057085E+00
          2   -1    0    0  502    0 -0.00000000000E+00  0.00000000000E+00  0.25699561819E+04  0.25699561819E+04  0.00000000000E+00 0. -1.
         21   -1    0    0  503  502  0.00000000000E+00 -0.00000000000E+00 -0.64376604252E+02  0.64376604252E+02  0.00000000000E+00 0. -1.
         24    2    1    2    0    0  0.13843282923E+03 -0.20287681626E+03  0.14398197405E+04  0.14627895903E+04  0.79685943546E+02 0.  0.
         23    2    1    2    0    0 -0.12089407362E+02  0.17216822142E+02  0.59379388277E+02  0.11004685658E+03  0.90232068330E+02 0.  0.
        -11    1    3    3    0    0  0.42453118621E+02 -0.24403261013E+02  0.17037294991E+03  0.17727021321E+03  0.00000000000E+00 0.  1.
         12    1    3    3    0    0  0.95979710610E+02 -0.17847355525E+03  0.12694467906E+04  0.12855193771E+04  0.00000000000E+00 0. -1.
        -11    1    4    4    0    0 -0.45126788450E+02 -0.13905836890E+02  0.28599191780E+02  0.55206096637E+02  0.00000000000E+00 0.  1.
         11    1    4    4    0    0  0.33037381088E+02  0.31122659032E+02  0.30780196497E+02  0.54840759939E+02  0.00000000000E+00 0. -1.
         21    1    1    2  503  501 -0.29952057138E+02 -0.24517980815E+02  0.11910270107E+02  0.40498291866E+02  0.00000000000E+00 0. -1.
          1    1    1    2  501    0 -0.96391364731E+02  0.21017797494E+03  0.99447017879E+03  0.10209980474E+04  0.00000000000E+00 0. -1.
<scales pt_clust_5="13000.00000" pt_clust_6="13000.00000" pt_clust_7="13000.00000" pt_clust_8="13000.00000" pt_clust_9="38.70733" pt_clust_10="13000.00000"></scales>
<clustering>
<clus scale="   38.707">  2  9  1 -1</clus>
<clus scale="   79.686">  5  6 -1 -1</clus>
<clus scale="   90.232">  7  8 -1 -1</clus>
<clus scale="  228.847">  7 10 -1 -1</clus>
<clus scale="  259.096">  1  5  2 -1</clus>
<clus scale="   38.707">  2  5  1 -1</clus>
</clustering>
</event>
<event>
10    4  0.4561663E-005  0.6367736E+03  0.7546771E-02  0.1016652E+00
          2   -1    0    0  503    0 -0.00000000000E+00  0.00000000000E+00  0.15512769582E+04  0.15512769582E+04  0.00000000000E+00 0. -1.
         21   -1    0    0  501  502  0.00000000000E+00 -0.00000000000E+00 -0.20747675189E+03  0.20747675189E+03  0.00000000000E+00 0.  1.
         24    2    1    2    0    0  0.63170939320E+02  0.17404610091E+03 -0.45719166893E+02  0.20684668257E+03  0.80079304767E+02 0.  0.
         23    2    1    2    0    0 -0.18678371278E+03  0.42756808276E+02  0.14867027538E+03  0.26081469948E+03  0.95943507686E+02 0.  0.
        -13    1    3    3    0    0  0.82454466684E+02  0.13739712262E+03 -0.33985703629E+02  0.16380395731E+03  0.00000000000E+00 0.  1.
         14    1    3    3    0    0 -0.19283527363E+02  0.36648978289E+02 -0.11733463264E+02  0.43042725255E+02  0.00000000000E+00 0. -1.
        -11    1    4    4    0    0 -0.17392278211E+03  0.48791681027E+01  0.12613441962E+03  0.21490191305E+03  0.00000000000E+00 0.  1.
         11    1    4    4    0    0 -0.12860930669E+02  0.37877640173E+02  0.22535855762E+02  0.45912786429E+02  0.00000000000E+00 0. -1.
         21    1    1    2  503  502  0.10340609016E+02  0.32154935499E+02  0.18490822983E+02  0.38506864406E+02  0.00000000000E+00 0. -1.
          1    1    1    2  501    0  0.11327216445E+03 -0.24895784468E+03  0.12223582749E+04  0.12525854637E+04  0.00000000000E+00 0. -1.
<scales pt_clust_5="13000.00000" pt_clust_6="13000.00000" pt_clust_7="13000.00000" pt_clust_8="13000.00000" pt_clust_9="33.77674" pt_clust_10="13000.00000"></scales>
<clustering>
<clus scale="   33.777">  2  9  1 -1</clus>
<clus scale="   80.079">  5  6 -1 -1</clus>
<clus scale="   95.944">  7  8 -1 -1</clus>
<clus scale="  221.710">  1  5  2 -1</clus>
<clus scale="  191.364">  7 10 -1 -1</clus>
<clus scale="   33.777">  2  5  1 -1</clus>
</clustering>
</event>
<event>
10    4  0.2759992E-005  0.2740874E+03  0.7546771E-02  0.1123028E+00
          2   -1    0    0  503    0 -0.00000000000E+00  0.00000000000E+00  0.71928065046E+03  0.71928065046E+03  0.00000000000E+00 0. -1.
         21   -1    0    0  501  502  0.00000000000E+00 -0.00000000000E+00 -0.83911426126E+02  0.83911426126E+02  0.00000000000E+00 0. -1.
         24    2    1    2    0    0  0.12075354728E+03 -0.75552777314E+02  0.26670843860E+03  0.31253550332E+03  0.79091139058E+02 0.  0.
         23    2    1    2    0    0  0.54473385113E+02  0.35376026017E+02  0.10106093372E+03  0.15190314621E+03  0.92964727728E+02 0.  0.
        -13    1    3    3    0    0  0.10092557455E+03 -0.91600254735E+02  0.23683438717E+03  0.27325282288E+03  0.00000000000E+00 0.  1.
         14    1    3    3    0    0  0.19827972723E+02  0.16047477421E+02  0.29874051431E+02  0.39282680443E+02  0.00000000000E+00 0. -1.
        -13    1    4    4    0    0  0.15572646756E+02  0.15295342893E+02  0.10565378544E+03  0.10788501851E+03  0.00000000000E+00 0.  1.
         13    1    4    4    0    0  0.38900738358E+02  0.20080683124E+02 -0.45928517166E+01  0.44018127702E+02  0.00000000000E+00 0. -1.
         21    1    1    2  503  502 -0.37883519490E+02  0.29360131912E+02  0.13640647371E+02  0.49832174903E+02  0.00000000000E+00 0.  1.
          1    1    1    2  501    0 -0.13734341290E+03  0.10816619385E+02  0.25395920464E+03  0.28892125215E+03  0.00000000000E+00 0. -1.
<scales pt_clust_5="13000.00000" pt_clust_6="13000.00000" pt_clust_7="13000.00000" pt_clust_8="13000.00000" pt_clust_9="47.92889" pt_clust_10="13000.00000"></scales>
<clustering>
<clus scale="   47.929">  2  9  1 -1</clus>
<clus scale="   79.091">  5  6 -1 -1</clus>
<clus scale="   92.965">  7  8 -1 -1</clus>
<clus scale="  148.576">  7 10 -1 -1</clus>
<clus scale="  148.639">  1  5  2 -1</clus>
<clus scale="   47.929">  2  5  1 -1</clus>
</clustering>
</event>
<event>
10    4  0.2759992E-005  0.1516474E+03  0.7546771E-02  0.1223716E+00
          2   -1    0    0  502    0 -0.00000000000E+00  0.00000000000E+00  0.87792389148E+03  0.87792389148E+03  0.00000000000E+00 0. -1.
         21   -1    0    0  503  502  0.00000000000E+00 -0.00000000000E+00 -0.55274068876E+02  0.55274068876E+02  0.00000000000E+00 0.  1.
         24    2    1    2    0    0 -0.28081077297E+02  0.24275358048E+02  0.70967573559E+03  0.71512320333E+03  0.79898099834E+02 0.  0.
         23    2    1    2    0    0  0.57202513921E+02 -0.44940532927E+02  0.59739313113E+02  0.13167235775E+03  0.92070870335E+02 0.  0.
        -11    1    3    3    0    0 -0.29874579837E+02  0.32144489707E+02  0.17606685795E+03  0.18145329208E+03  0.00000000000E+00 0.  1.
         12    1    3    3    0    0  0.17935025394E+01 -0.78691316591E+01  0.53360887763E+03  0.53366991125E+03  0.00000000000E+00 0. -1.
        -13    1    4    4    0    0 -0.21144303763E+02  0.36446410456E+01  0.25511628493E+02  0.33334789310E+02  0.00000000000E+00 0. -1.
         13    1    4    4    0    0  0.78346817685E+02 -0.48585173973E+02  0.34227684620E+02  0.98337568435E+02  0.00000000000E+00 0.  1.
         21    1    1    2  503  501 -0.25398898936E+00  0.22788835815E+02 -0.31646368951E+01  0.23008921637E+02  0.00000000000E+00 0.  1.
          1    1    1    2  501    0 -0.28867447635E+02 -0.21236609356E+01  0.56399410802E+02  0.63393477642E+02  0.00000000000E+00 0. -1.
<scales pt_clust_5="13000.00000" pt_clust_6="13000.00000" pt_clust_7="13000.00000" pt_clust_8="13000.00000" pt_clust_9="22.79025" pt_clust_10="13000.00000"></scales>
<clustering>
<clus scale="   22.790">  2  9  1 -1</clus>
<clus scale="   79.898">  5  6 -1 -1</clus>
<clus scale="   88.522">  1  5  2 -1</clus>
<clus scale="   92.071">  7  8 -1 -1</clus>
<clus scale="   41.148">  7 10 -1 -1</clus>
<clus scale="   22.790">  2  5  1 -1</clus>
</clustering>
</event>
<event>
10    4  0.2759992E-005  0.2768110E+03  0.7546771E-02  0.1141522E+00
          2   -1    0    0  503    0 -0.00000000000E+00  0.00000000000E+00  0.17948033372E+04  0.17948033372E+04  0.00000000000E+00 0. -1.
         21   -1    0    0  501  502  0.00000000000E+00 -0.00000000000E+00 -0.13664968515E+03  0.13664968515E+03  0.00000000000E+00 0. -1.
         24    2    1    2    0    0  0.32996455222E+02 -0.32853781960E+02  0.10834396261E+04  0.10873118047E+04  0.78977213176E+02 0.  0.
         23    2    1    2    0    0 -0.86857623292E+01  0.13707642944E+03  0.27588606142E+03  0.32124521699E+03  0.90664108535E+02 0.  0.
        -13    1    3    3    0    0 -0.20609068825E+02  0.14068616016E+01  0.11927422611E+03  0.12104979964E+03  0.00000000000E+00 0.  1.
         14    1    3    3    0    0  0.53605524047E+02 -0.34260643562E+02  0.96416539996E+03  0.96626200504E+03  0.00000000000E+00 0. -1.
        -11    1    4    4    0    0  0.52254249419E+01  0.90007874374E+02  0.24999009992E+03  0.26575133598E+03  0.00000000000E+00 0. -1.
         11    1    4    4    0    0 -0.13911187271E+02  0.47068555070E+02  0.25895961496E+02  0.55493881009E+02  0.00000000000E+00 0.  1.
         21    1    1    2  503  502 -0.13727138095E+02 -0.17758480905E+02 -0.10623096679E+03  0.10857631542E+03  0.00000000000E+00 0. -1.
          1    1    1    2  501    0 -0.10583554798E+02 -0.86464166579E+02  0.40505893134E+03  0.41431968526E+03  0.00000000000E+00 0. -1.
<scales pt_clust_5="13000.00000" pt_clust_6="13000.00000" pt_clust_7="13000.00000" pt_clust_8="13000.00000" pt_clust_9="22.44544" pt_clust_10="13000.00000"></scales>
<clustering>
<clus scale="   22.445">  2  9  1 -1</clus>
<clus scale="   78.977">  5  6 -1 -1</clus>
<clus scale="   90.664">  7  8 -1 -1</clus>
<clus scale="   90.183">  7 10 -1 -1</clus>
<clus scale="   91.788">  1  5  2 -1</clus>
<clus scale="   22.445">  2  5  1 -1</clus>
</clustering>
</event>
<event>
10    4  0.2759992E-005  0.2616065E+03  0.7546771E-02  0.1149132E+00
         21   -1    0    0  501  502  0.00000000000E+00  0.00000000000E+00  0.66715507239E+02  0.66715507239E+02  0.00000000000E+00 0.  1.
          2   -1    0    0  503    0 -0.00000000000E+00 -0.00000000000E+00 -0.12271125330E+04  0.12271125330E+04  0.00000000000E+00 0. -1.
         24    2    1    2    0    0 -0.18660649319E+02 -0.36131425374E+02 -0.10633824303E+03  0.13886881627E+03  0.79517460151E+02 0.  0.
         23    2    1    2    0    0 -0.10698998276E+02 -0.74977992539E+02 -0.31748890941E+03  0.33879893804E+03  0.90825904294E+02 0.  0.
        -11    1    3    3    0    0 -0.40752067388E+02 -0.48201694145E+02 -0.66035067854E+02  0.91349682547E+02  0.00000000000E+00 0.  1.
         12    1    3    3    0    0  0.22091418069E+02  0.12070268771E+02 -0.40303175173E+02  0.47519133720E+02  0.00000000000E+00 0. -1.
        -11    1    4    4    0    0  0.26876034794E+02 -0.21812373436E+01 -0.32294048222E+02  0.42071184832E+02  0.00000000000E+00 0.  1.
         11    1    4    4    0    0 -0.37575033070E+02 -0.72796755196E+02 -0.28519486119E+03  0.29672775321E+03  0.00000000000E+00 0. -1.
         21    1    1    2  503  502  0.20278314545E+02 -0.12981214653E+02  0.30616554430E+02  0.38949908598E+02  0.00000000000E+00 0.  1.
          1    1    1    2  501    0  0.90813330498E+01  0.12409063257E+03 -0.76718642774E+03  0.77721037732E+03  0.00000000000E+00 0. -1.
<scales pt_clust_5="13000.00000" pt_clust_6="13000.00000" pt_clust_7="13000.00000" pt_clust_8="13000.00000" pt_clust_9="24.07742" pt_clust_10="13000.00000"></scales>
<clustering>
<clus scale="   24.077">  1  9  2 -1</clus>
<clus scale="   79.517">  5  6 -1 -1</clus>
<clus scale="   90.661">  2  5  1 -1</clus>
<clus scale="   90.826">  7  8 -1 -1</clus>
<clus scale="   92.988">  7 10 -1 -1</clus>
<clus scale="   24.077">  1  5  2 -1</clus>
</clustering>
</event>
<event>
10    4  0.2759992E-005  0.2002358E+03  0.7546771E-02  0.1155295E+00
         21   -1    0    0  501  502  0.00000000000E+00  0.00000000000E+00  0.15938222544E+03  0.15938222544E+03  0.00000000000E+00 0.  1.
          2   -1    0    0  503    0 -0.00000000000E+00 -0.00000000000E+00 -0.54683576091E+03  0.54683576091E+03  0.00000000000E+00 0. -1.
         24    2    1    2    0    0  0.14729775794E+03 -0.62635838088E+02  0.43359832339E+02  0.18529291029E+03  0.82665046045E+02 0.  0.
         23    2    1    2    0    0 -0.12896215180E+03 -0.46847043697E+01 -0.15169154930E+03  0.21944167848E+03  0.92147387784E+02 0.  0.
        -13    1    3    3    0    0  0.67931380944E+02 -0.34507835351E+02  0.62957746699E+02  0.98838965429E+02  0.00000000000E+00 0.  1.
         14    1    3    3    0    0  0.79366376996E+02 -0.28128002736E+02 -0.19597914360E+02  0.86453944865E+02  0.00000000000E+00 0. -1.
        -11    1    4    4    0    0  0.75044675244E+01 -0.19700586134E+02 -0.16603035990E+02  0.26834510074E+02  0.00000000000E+00 0. -1.
         11    1    4    4    0    0 -0.13646661932E+03  0.15015881764E+02 -0.13508851331E+03  0.19260716841E+03  0.00000000000E+00 0.  1.
         21    1    1    2  503  502  0.88726615622E+01  0.81673144113E+02 -0.18390172899E+03  0.20141765692E+03  0.00000000000E+00 0. -1.
          1    1    1    2  501    0 -0.27208267704E+02 -0.14352601656E+02 -0.95220089523E+02  0.10006574066E+03  0.00000000000E+00 0. -1.
<scales pt_clust_5="13000.00000" pt_clust_6="13000.00000" pt_clust_7="13000.00000" pt_clust_8="13000.00000" pt_clust_9="82.15372" pt_clust_10="13000.00000"></scales>
<clustering>
<clus scale="   82.154">  1  9  2 -1</clus>
<clus scale="   82.665">  5  6 -1 -1</clus>
<clus scale="   92.147">  7  8 -1 -1</clus>
<clus scale="   30.043">  7 10 -1 -1</clus>
<clus scale="  174.814">  2  5  1 -1</clus>
<clus scale="   82.154">  1  5  2 -1</clus>
</clustering>
</event>
<event>
10    4  0.2759992E-005  0.7642571E+03  0.7546771E-02  0.9743938E-01
          2   -1    0    0  502    0 -0.00000000000E+00  0.00000000000E+00  0.27205548084E+03  0.27205548084E+03  0.00000000000E+00 0. -1.
         21   -1    0    0  503  502  0.00000000000E+00 -0.00000000000E+00 -0.31961851594E+04  0.31961851594E+04  0.00000000000E+00 0.  1.
         24    2    1    2    0    0  0.14588015281E+03 -0.29963762566E+03 -0.16038530521E+04  0.16400620794E+04  0.79970530092E+02 0.  0.
         23    2    1    2    0    0 -0.22111563211E+03 -0.40368116599E+02 -0.32662433920E+02  0.24535851825E+03  0.92802264438E+02 0.  0.
        -11    1    3    3    0    0  0.97501154187E+02 -0.15424262472E+03 -0.10334121861E+04  0.10493988798E+04  0.00000000000E+00 0.  1.
         12    1    3    3    0    0  0.48378998625E+02 -0.14539500094E+03 -0.57044086600E+03  0.59066319964E+03  0.00000000000E+00 0. -1.
        -11    1    4    4    0    0 -0.21667412710E+03 -0.18124406561E+02 -0.17625192253E+02  0.21814403240E+03  0.00000000000E+00 0.  1.
         11    1    4    4    0    0 -0.44415050077E+01 -0.22243710038E+02 -0.15037241667E+02  0.27214485848E+02  0.00000000000E+00 0. -1.
         21    1    1    2  503  501  0.88571442831E+02 -0.19653366477E+03 -0.88771197282E+03  0.91351131824E+03  0.00000000000E+00 0.  1.
          1    1    1    2  501    0 -0.13335963532E+02  0.53653940702E+03 -0.39990221971E+03  0.66930872439E+03  0.00000000000E+00 0. -1.
<scales pt_clust_5="13000.00000" pt_clust_6="13000.00000" pt_clust_7="13000.00000" pt_clust_8="13000.00000" pt_clust_9="215.56990" pt_clust_10="13000.00000"></scales>
<clustering>
<clus scale="   79.971">  5  6 -1 -1</clus>
<clus scale="   92.802">  7  8 -1 -1</clus>
<clus scale="  215.570">  2  9  1 -1</clus>
<clus scale="  490.824">  7 10 -1 -1</clus>
<clus scale="  492.071">  1  5  2 -1</clus>
<clus scale="  215.570">  2  5  1 -1</clus>
</clustering>
</event>
<event>
10    4  0.2759992E-005  0.2791014E+03  0.7546771E-02  0.1130826E+00
         21   -1    0    0  503  502  0.00000000000E+00  0.00000000000E+00  0.22092100290E+03  0.22092100290E+03  0.00000000000E+00 0. -1.
          2   -1    0    0  502    0 -0.00000000000E+00 -0.00000000000E+00 -0.14081619927E+04  0.14081619927E+04  0.00000000000E+00 0. -1.
         24    2    1    2    0    0  0.25391195181E+02 -0.69280391517E+02 -0.26370765943E+03  0.28570437104E+03  0.81490935361E+02 0.  0.
         23    2    1    2    0    0  0.69278390653E+02 -0.25318055673E+02 -0.32737799649E+03  0.34819324304E+03  0.92853015863E+02 0.  0.
        -11    1    3    3    0    0  0.34263370456E+02 -0.84399602025E+01 -0.17002068755E+03  0.17364401999E+03  0.00000000000E+00 0.  1.
         12    1    3    3    0    0 -0.88721752744E+01 -0.60840431315E+02 -0.93686971875E+02  0.11206035104E+03  0.00000000000E+00 0. -1.
        -11    1    4    4    0    0  0.77545253377E+02  0.50915886075E+01 -0.28485973408E+03  0.29526980661E+03  0.00000000000E+00 0. -1.
         11    1    4    4    0    0 -0.82668627240E+01 -0.30409644281E+02 -0.42518262411E+02  0.52923436425E+02  0.00000000000E+00 0.  1.
         21    1    1    2  503  501  0.19408070165E+01 -0.24049950152E+02  0.19139483548E+03  0.19290969360E+03  0.00000000000E+00 0. -1.
          1    1    1    2  501    0 -0.96610392851E+02  0.11864839734E+03 -0.78755016933E+03  0.80227568791E+03  0.00000000000E+00 0. -1.
<scales pt_clust_5="13000.00000" pt_clust_6="13000.00000" pt_clust_7="13000.00000" pt_clust_8="13000.00000" pt_clust_9="24.12813" pt_clust_10="13000.00000"></scales>
<clustering>
<clus scale="   24.128">  1  9  2 -1</clus>
<clus scale="   81.491">  5  6 -1 -1</clus>
<clus scale="   92.853">  7  8 -1 -1</clus>
<clus scale="  116.112">  2  5  1 -1</clus>
<clus scale="   98.365">  7 10 -1 -1</clus>
<clus scale="   24.128">  1  5  2 -1</clus>
</clustering>
</event>
<event>
10    4  0.2759992E-005  0.3662136E+03  0.7546771E-02  0.1071394E+00
         21   -1    0    0  501  502  0.00000000000E+00  0.00000000000E+00  0.16909209969E+03  0.16909209969E+03  0.00000000000E+00 0.  1.
          2   -1    0    0  503    0 -0.00000000000E+00 -0.00000000000E+00 -0.63655453320E+03  0.63655453320E+03  0.00000000000E+00 0. -1.
         24    2    1    2    0    0  0.18745212673E+03 -0.11760537181E+03 -0.13537400304E+03  0.27130978054E+03  0.79457869487E+02 0.  0.
         23    2    1    2    0    0  0.35459671398E+02 -0.13453572988E+02 -0.67475486368E+02  0.11878325335E+03  0.90100683094E+02 0.  0.
        -13    1    3    3    0    0  0.52848418813E+02 -0.26561675391E+02  0.10145770406E+01  0.59156633924E+02  0.00000000000E+00 0.  1.
         14    1    3    3    0    0  0.13460370792E+03 -0.91043696421E+02 -0.13638858008E+03  0.21215314662E+03  0.00000000000E+00 0. -1.
        -11    1    4    4    0    0  0.23925418176E+02  0.35652505979E+02 -0.13739288981E+02  0.45080981347E+02  0.00000000000E+00 0.  1.
         11    1    4    4    0    0  0.11534253222E+02 -0.49106078967E+02 -0.53736197386E+02  0.73702272003E+02  0.00000000000E+00 0. -1.
         21    1    1    2  503  502  0.29705893909E+02  0.29590497388E+02 -0.10669965283E+02  0.43265295882E+02  0.00000000000E+00 0. -1.
          1    1    1    2  501    0 -0.25261769204E+03  0.10146844741E+03 -0.25394297881E+03  0.37228830312E+03  0.00000000000E+00 0. -1.
<scales pt_clust_5="13000.00000" pt_clust_6="13000.00000" pt_clust_7="13000.00000" pt_clust_8="13000.00000" pt_clust_9="41.92896" pt_clust_10="13000.00000"></scales>
<clustering>
<clus scale="   41.929">  1  9  2 -1</clus>
<clus scale="   79.458">  5  6 -1 -1</clus>
<clus scale="   90.101">  7  8 -1 -1</clus>
<clus scale="  239.768">  2  5  1 -1</clus>
<clus scale="   98.714">  7 10 -1 -1</clus>
<clus scale="   41.929">  1  5  2 -1</clus>
</clustering>
</event>
<event>
10    4  0.2759992E-005  0.5578546E+03  0.7546771E-02  0.1057722E+00
          2   -1    0    0  503    0 -0.00000000000E+00  0.00000000000E+00  0.10785115290E+03  0.10785115290E+03  0.00000000000E+00 0. -1.
         21   -1    0    0  501  502  0.00000000000E+00 -0.00000000000E+00 -0.11943599085E+04  0.11943599085E+04  0.00000000000E+00 0. -1.
         24    2    1    2    0    0  0.47270471305E+02  0.28176609320E+02 -0.76613052581E+02  0.12350878157E+03  0.79727288490E+02 0.  0.
         23    2    1    2    0    0  0.22307545957E+03 -0.57896666406E+02 -0.50657956566E+03  0.56411863066E+03  0.92153613481E+02 0.  0.
        -13    1    3    3    0    0 -0.74053663833E+01  0.39192879379E+02 -0.22486758525E+02  0.45788377939E+02  0.00000000000E+00 0.  1.
         14    1    3    3    0    0  0.54675837688E+02 -0.11016270060E+02 -0.54126294055E+02  0.77720403634E+02  0.00000000000E+00 0. -1.
        -13    1    4    4    0    0  0.19422617885E+03 -0.15244091179E+02 -0.37006890700E+03  0.41821906555E+03  0.00000000000E+00 0. -1.
         13    1    4    4    0    0  0.28849280720E+02 -0.42652575228E+02 -0.13651065866E+03  0.14589956511E+03  0.00000000000E+00 0.  1.
         21    1    1    2  503  502  0.34886472835E+02  0.23415970006E+02 -0.10219826268E+03  0.11049822864E+03  0.00000000000E+00 0. -1.
          1    1    1    2  501    0 -0.30523240371E+03  0.63040870804E+01 -0.40111787468E+03  0.50408542052E+03  0.00000000000E+00 0. -1.
<scales pt_clust_5="13000.00000" pt_clust_6="13000.00000" pt_clust_7="13000.00000" pt_clust_8="13000.00000" pt_clust_9="42.01635" pt_clust_10="13000.00000"></scales>
<clustering>
<clus scale="   42.016">  2  9  1 -1</clus>
<clus scale="   79.727">  5  6 -1 -1</clus>
<clus scale="   92.154">  7  8 -1 -1</clus>
<clus scale="   99.118">  1  5  2 -1</clus>
<clus scale="  263.407">  7 10 -1 -1</clus>
<clus scale="   42.016">  2  5  1 -1</clus>
</clustering>
</event>
<event>
10    4  0.2759992E-005  0.2062660E+03  0.7546771E-02  0.1159482E+00
         21   -1    0    0  503  502  0.00000000000E+00  0.00000000000E+00  0.76252310023E+02  0.76252310023E+02  0.00000000000E+00 0. -1.
          2   -1    0    0  502    0 -0.00000000000E+00 -0.00000000000E+00 -0.79593061858E+03  0.79593061858E+03  0.00000000000E+00 0. -1.
         24    2    1    2    0    0 -0.14579531048E+03 -0.11366762786E+00 -0.35949751937E+03  0.39607438338E+03  0.79875936676E+02 0.  0.
         23    2    1    2    0    0  0.24248497264E+02 -0.39040797330E+02 -0.22630032793E+03  0.25267247677E+03  0.10256397329E+03 0.  0.
        -13    1    3    3    0    0 -0.30872889080E+02  0.58824148208E+01 -0.19161804928E+02  0.36809140880E+02  0.00000000000E+00 0.  1.
         14    1    3    3    0    0 -0.11492242140E+03 -0.59960824487E+01 -0.34033571444E+03  0.35926524250E+03  0.00000000000E+00 0. -1.
        -11    1    4    4    0    0  0.16608336390E+02  0.23134252154E+02 -0.14808868285E+02  0.32098801228E+02  0.00000000000E+00 0.  1.
         11    1    4    4    0    0  0.76401608739E+01 -0.62175049485E+02 -0.21149145965E+03  0.22057367554E+03  0.00000000000E+00 0. -1.
         21    1    1    2  503  501  0.55572680853E+02 -0.13079033053E+01  0.13291522126E+02  0.57155035025E+02  0.00000000000E+00 0. -1.
          1    1    1    2  501    0  0.65974132364E+02  0.40462368264E+02 -0.14717198338E+03  0.16628103343E+03  0.00000000000E+00 0. -1.
<scales pt_clust_5="13000.00000" pt_clust_6="13000.00000" pt_clust_7="13000.00000" pt_clust_8="13000.00000" pt_clust_9="55.58807" pt_clust_10="13000.00000"></scales>
<clustering>
<clus scale="   55.588">  1  9  2 -1</clus>
<clus scale="   79.876">  5  6 -1 -1</clus>
<clus scale="  102.564">  7  8 -1 -1</clus>
<clus scale="   88.546">  7 10 -1 -1</clus>
<clus scale="  145.009">  2  5  1 -1</clus>
<clus scale="   55.588">  1  5  2 -1</clus>
</clustering>
</event>
<event>
10    4  0.2759992E-005  0.3426740E+03  0.7546771E-02  0.1108225E+00
         21   -1    0    0  503  502  0.00000000000E+00  0.00000000000E+00  0.13530851577E+03  0.13530851577E+03  0.00000000000E+00 0.  1.
          4   -1    0    0  502    0 -0.00000000000E+00 -0.00000000000E+00 -0.77841156651E+03  0.77841156651E+03  0.00000000000E+00 0. -1.
         24    2    1    2    0    0  0.39067061402E+02  0.72804308105E+02 -0.22938744024E+03  0.25580795878E+03  0.77410667679E+02 0.  0.
         23    2    1    2    0    0  0.13354656359E+03  0.14758805205E+01 -0.23376488071E+03  0.28417699947E+03  0.90959797197E+02 0.  0.
        -11    1    3    3    0    0  0.47126061629E+02  0.79369437025E+01 -0.92595169262E+02  0.10420041329E+03  0.00000000000E+00 0.  1.
         12    1    3    3    0    0 -0.80590002274E+01  0.64867364402E+02 -0.13679227098E+03  0.15160754549E+03  0.00000000000E+00 0. -1.
        -11    1    4    4    0    0  0.10563906446E+03  0.35670209043E+02 -0.12908319835E+03  0.17057094667E+03  0.00000000000E+00 0.  1.
         11    1    4    4    0    0  0.27907499130E+02 -0.34194328522E+02 -0.10468168236E+03  0.11360605280E+03  0.00000000000E+00 0. -1.
         21    1    1    2  503  501 -0.31211069312E+01 -0.20399978255E+02  0.66604287910E+02  0.69728269657E+02  0.00000000000E+00 0.  1.
          3    1    1    2  501    0 -0.16949251806E+03 -0.53880210371E+02 -0.24655501770E+03  0.30400685436E+03  0.00000000000E+00 0. -1.
<scales pt_clust_5="13000.00000" pt_clust_6="13000.00000" pt_clust_7="13000.00000" pt_clust_8="13000.00000" pt_clust_9="20.63735" pt_clust_10="13000.00000"></scales>
<clustering>
<clus scale="   20.637">  1  9  2 -1</clus>
<clus scale="   77.411">  5  6 -1 -1</clus>
<clus scale="   90.960">  7  8 -1 -1</clus>
<clus scale="  110.468">  2  5  1 -1</clus>
<clus scale="  152.769">  7 10 -1 -1</clus>
<clus scale="   20.637">  1  5  2 -1</clus>
</clustering>
</event>
<event>
10    4  0.2983118E-005  0.3914091E+03  0.7546771E-02  0.1065340E+00
         21   -1    0    0  501  502  0.00000000000E+00  0.00000000000E+00  0.19631557502E+04  0.19631557502E+04  0.00000000000E+00 0. -1.
          2   -1    0    0  503    0 -0.00000000000E+00 -0.00000000000E+00 -0.13873573092E+04  0.13873573092E+04  0.00000000000E+00 0. -1.
         24    2    1    2    0    0  0.21685977695E+03  0.49390120562E+00 -0.72677774798E+03  0.76291263795E+03  0.82470548599E+02 0.  0.
         23    2    1    2    0    0  0.13076357249E+03  0.68534096887E+02 -0.55312126093E+03  0.58074874791E+03  0.97621435053E+02 0.  0.
        -13    1    3    3    0    0  0.51496068786E+02 -0.28916544210E+02 -0.12698563096E+03  0.14004771365E+03  0.00000000000E+00 0.  1.
         14    1    3    3    0    0  0.16536370817E+03  0.29410445416E+02 -0.59979211702E+03  0.62286492429E+03  0.00000000000E+00 0. -1.
        -11    1    4    4    0    0  0.44398538408E+02  0.69596496790E+02 -0.18421696919E+03  0.20186825980E+03  0.00000000000E+00 0.  1.
         11    1    4    4    0    0  0.86365034081E+02 -0.10623999029E+01 -0.36890429174E+03  0.37888048811E+03  0.00000000000E+00 0. -1.
         21    1    1    2  503  502 -0.27931125262E+03 -0.60638163891E+02  0.19023521983E+04  0.19237036282E+04  0.00000000000E+00 0. -1.
          1    1    1    2  501    0 -0.68312096821E+02 -0.83898342011E+01 -0.46654748377E+02  0.83148045293E+02  0.00000000000E+00 0. -1.
<scales pt_clust_5="13000.00000" pt_clust_6="13000.00000" pt_clust_7="13000.00000" pt_clust_8="13000.00000" pt_clust_9="282.29575" pt_clust_10="13000.00000"></scales>
<clustering>
<clus scale="   82.471">  5  6 -1 -1</clus>
<clus scale="   97.621">  7  8 -1 -1</clus>
<clus scale="   68.825">  7 10 -1 -1</clus>
<clus scale="  232.012">  2  5  1 -1</clus>
<clus scale="  282.296">  1  9  2 -1</clus>
<clus scale="  282.296">  1  5  2 -1</clus>
</clustering>
</event>
<event>
10    4  0.2759992E-005  0.3444900E+03  0.7546771E-02  0.1072121E+00
          2   -1    0    0  502    0 -0.00000000000E+00  0.00000000000E+00  0.52941644814E+03  0.52941644814E+03  0.00000000000E+00 0. -1.
         21   -1    0    0  503  502  0.00000000000E+00 -0.00000000000E+00 -0.39712242248E+03  0.39712242248E+03  0.00000000000E+00 0. -1.
         24    2    1    2    0    0 -0.16185514434E+03 -0.19662160897E+03 -0.18342448978E+03  0.32364165368E+03  0.79007795068E+02 0.  0.
         23    2    1    2    0    0  0.12027309222E+02  0.27631638663E+02  0.82796033081E+02  0.12891593018E+03  0.94106165247E+02 0.  0.
        -13    1    3    3    0    0 -0.78886638759E+01 -0.48659470548E+02 -0.57506717553E+02  0.75742970997E+02  0.00000000000E+00 0.  1.
         14    1    3    3    0    0 -0.15396648046E+03 -0.14796213842E+03 -0.12591777223E+03  0.24789868268E+03  0.00000000000E+00 0. -1.
        -13    1    4    4    0    0  0.46210985192E+02 -0.12480432043E+01  0.67121193480E+02  0.81500106616E+02  0.00000000000E+00 0. -1.
         13    1    4    4    0    0 -0.34183675970E+02  0.28879681867E+02  0.15674839601E+02  0.47415823563E+02  0.00000000000E+00 0.  1.
         21    1    1    2  503  501 -0.24568085662E+01 -0.24457605448E+02 -0.75468467523E+02  0.79370649253E+02  0.00000000000E+00 0. -1.
          1    1    1    2  501    0  0.15228464368E+03  0.19344757576E+03  0.30839094988E+03  0.39461063751E+03  0.00000000000E+00 0. -1.
<scales pt_clust_5="13000.00000" pt_clust_6="13000.00000" pt_clust_7="13000.00000" pt_clust_8="13000.00000" pt_clust_9="24.58069" pt_clust_10="13000.00000"></scales>
<clustering>
<clus scale="   24.581">  2  9  1 -1</clus>
<clus scale="   79.008">  5  6 -1 -1</clus>
<clus scale="   94.106">  7  8 -1 -1</clus>
<clus scale="  243.407">  7 10 -1 -1</clus>
<clus scale="  282.378">  1  5  2 -1</clus>
<clus scale="   24.581">  2  5  1 -1</clus>
</clustering>
</event>
<event>
10    4  0.2759992E-005  0.3574838E+03  0.7546771E-02  0.1105220E+00
          2   -1    0    0  502    0 -0.00000000000E+00  0.00000000000E+00  0.17719398452E+04  0.17719398452E+04  0.00000000000E+00 0. -1.
         21   -1    0    0  503  502  0.00000000000E+00 -0.00000000000E+00 -0.36501390029E+02  0.36501390029E+02  0.00000000000E+00 0. -1.
         24    2    1    2    0    0  0.71322847629E+02  0.36294002205E+00  0.32015621500E+03  0.33743836341E+03  0.79231097300E+02 0.  0.
         23    2    1    2    0    0  0.11395174198E+03  0.73171351656E+02  0.45590124635E+03  0.48669137860E+03  0.10336104377E+03 0.  0.
        -11    1    3    3    0    0  0.29868492377E+02 -0.13641994776E+02  0.31560650498E+02  0.45544544330E+02  0.00000000000E+00 0.  1.
         12    1    3    3    0    0  0.41454355252E+02  0.14004934798E+02  0.28859556450E+03  0.29189381908E+03  0.00000000000E+00 0. -1.
        -13    1    4    4    0    0  0.22533540680E+02  0.63949821098E+02  0.11381864580E+03  0.13248405264E+03  0.00000000000E+00 0. -1.
         13    1    4    4    0    0  0.91418201299E+02  0.92215305581E+01  0.34208260056E+03  0.35420732595E+03  0.00000000000E+00 0.  1.
         21    1    1    2  503  501 -0.11862906486E+02 -0.41239181396E+02  0.15605286255E+03  0.16184527964E+03  0.00000000000E+00 0.  1.
          1    1    1    2  501    0 -0.17341168312E+03 -0.32295110281E+02  0.80332813125E+03  0.82246621356E+03  0.00000000000E+00 0. -1.
<scales pt_clust_5="13000.00000" pt_clust_6="13000.00000" pt_clust_7="13000.00000" pt_clust_8="13000.00000" pt_clust_9="42.91154" pt_clust_10="13000.00000"></scales>
<clustering>
<clus scale="   42.912">  2  9  1 -1</clus>
<clus scale="   79.231">  5  6 -1 -1</clus>
<clus scale="  103.361">  7  8 -1 -1</clus>
<clus scale="  105.088">  1  5  2 -1</clus>
<clus scale="  142.406">  7 10 -1 -1</clus>
<clus scale="   42.912">  2  5  1 -1</clus>
</clustering>
</event>
<event>
10    4  0.2759992E-005  0.3419140E+03  0.7546771E-02  0.1105909E+00
          2   -1    0    0  503    0 -0.00000000000E+00  0.00000000000E+00  0.59685045423E+03  0.59685045423E+03  0.00000000000E+00 0. -1.
         21   -1    0    0  501  502  0.00000000000E+00 -0.00000000000E+00 -0.47526996709E+03  0.47526996709E+03  0.00000000000E+00 0. -1.
         24    2    1    2    0    0  0.74325096434E+02 -0.59521313108E+02  0.17361184243E+03  0.21333151014E+03  0.79386741408E+02 0.  0.
         23    2    1    2    0    0  0.85082203401E+02  0.66480360218E+02  0.90049701292E+02  0.16618215102E+03  0.88594237882E+02 0.  0.
        -11    1    3    3    0    0  0.51683980384E+02 -0.74575406161E+02  0.15738984428E+03  0.18167082351E+03  0.00000000000E+00 0.  1.
         12    1    3    3    0    0  0.22641116050E+02  0.15054093054E+02  0.16221998150E+02  0.31660686626E+02  0.00000000000E+00 0. -1.
        -13    1    4    4    0    0  0.22682130052E+02  0.70042738289E+02  0.29979249510E+02  0.79493519308E+02  0.00000000000E+00 0.  1.
         13    1    4    4    0    0  0.62400073349E+02 -0.35623780718E+01  0.60070451783E+02  0.86688631717E+02  0.00000000000E+00 0. -1.
         21    1    1    2  503  502  0.13113147273E+02  0.87683620938E+02 -0.37635554168E+03  0.38665729758E+03  0.00000000000E+00 0. -1.
          1    1    1    2  501    0 -0.17252044711E+03 -0.94642668048E+02  0.23427448510E+03  0.30594946258E+03  0.00000000000E+00 0. -1.
<scales pt_clust_5="13000.00000" pt_clust_6="13000.00000" pt_clust_7="13000.00000" pt_clust_8="13000.00000" pt_clust_9="88.65874" pt_clust_10="13000.00000"></scales>
<clustering>
<clus scale="   79.387">  5  6 -1 -1</clus>
<clus scale="   88.594">  7  8 -1 -1</clus>
<clus scale="   88.659">  2  9  1 -1</clus>
<clus scale="  118.000">  1  5  2 -1</clus>
<clus scale="  150.406">  7 10 -1 -1</clus>
<clus scale="   88.659">  2  5  1 -1</clus>
</clustering>
</event>
<event>
10    4  0.2759992E-005  0.2664885E+03  0.7546771E-02  0.1114969E+00
         21   -1    0    0  503  502  0.00000000000E+00  0.00000000000E+00  0.59085773922E+02  0.59085773922E+02  0.00000000000E+00 0. -1.
          2   -1    0    0  502    0 -0.00000000000E+00 -0.00000000000E+00 -0.16295810933E+04  0.16295810933E+04  0.00000000000E+00 0. -1.
         24    2    1    2    0    0  0.32049271709E+01  0.19650869861E+03 -0.38957066438E+03  0.44359538843E+03  0.79910111392E+02 0.  0.
         23    2    1    2    0    0  0.30957382939E+02 -0.15769689346E+02 -0.35530826674E+03  0.36915519644E+03  0.93939086555E+02 0.  0.
        -13    1    3    3    0    0 -0.33724992156E+02  0.88312554553E+02 -0.21570157595E+03  0.23550722336E+03  0.00000000000E+00 0.  1.
         14    1    3    3    0    0  0.36929919327E+02  0.10819614406E+03 -0.17386908843E+03  0.20808816507E+03  0.00000000000E+00 0. -1.
        -11    1    4    4    0    0  0.43856449603E+02  0.24586192719E+02 -0.26055127278E+03  0.26535793712E+03  0.00000000000E+00 0.  1.
         11    1    4    4    0    0 -0.12899066664E+02 -0.40355882064E+02 -0.94756993961E+02  0.10379725932E+03  0.00000000000E+00 0. -1.
         21    1    1    2  503  501 -0.24701203005E+02 -0.24336361541E+02  0.89135747311E+00  0.34687208609E+02  0.00000000000E+00 0. -1.
          1    1    1    2  501    0 -0.94611071046E+01 -0.15640264772E+03 -0.82650774572E+03  0.84122907374E+03  0.00000000000E+00 0. -1.
<scales pt_clust_5="13000.00000" pt_clust_6="13000.00000" pt_clust_7="13000.00000" pt_clust_8="13000.00000" pt_clust_9="34.67575" pt_clust_10="13000.00000"></scales>
<clustering>
<clus scale="   34.676">  1  9  2 -1</clus>
<clus scale="   79.910">  5  6 -1 -1</clus>
<clus scale="   93.939">  7  8 -1 -1</clus>
<clus scale="  161.337">  7 10 -1 -1</clus>
<clus scale="  197.905">  2  5  1 -1</clus>
<clus scale="   34.676">  1  5  2 -1</clus>
</clustering>
</event>
<event>
10    4  0.2759992E-005  0.4682450E+03  0.7546771E-02  0.1069723E+00
         21   -1    0    0  503  502  0.00000000000E+00  0.00000000000E+00  0.28010773396E+03  0.28010773396E+03  0.00000000000E+00 0.  1.
         -1   -1    0    0    0  501 -0.00000000000E+00 -0.00000000000E+00 -0.51168949040E+03  0.51168949040E+03  0.00000000000E+00 0.  1.
         24    2    1    2    0    0 -0.84266531712E+02 -0.32101987682E+02 -0.16848118082E+02  0.12125975580E+03  0.79301218873E+02 0.  0.
         23    2    1    2    0    0 -0.12738244207E+03 -0.13980035183E+03 -0.63895028437E+02  0.22252944392E+03  0.98317617111E+02 0.  0.
        -11    1    3    3    0    0 -0.10066057362E+02 -0.33175528650E+02 -0.30058033201E+02  0.45884927502E+02  0.00000000000E+00 0.  1.
         12    1    3    3    0    0 -0.74200474350E+02  0.10735409679E+01  0.13209915118E+02  0.75374828301E+02  0.00000000000E+00 0. -1.
        -11    1    4    4    0    0 -0.33013313608E+02 -0.33833127485E+02  0.26591219578E+02  0.54237001664E+02  0.00000000000E+00 0.  1.
         11    1    4    4    0    0 -0.94369128465E+02 -0.10596722434E+03 -0.90486248015E+02  0.16829244226E+03  0.00000000000E+00 0. -1.
         21    1    1    2  503  501  0.13144328889E+03 -0.48268265886E+02  0.40195105444E+02  0.14568050723E+03  0.00000000000E+00 0.  1.
         -2    1    1    2    0  502  0.80205684894E+02  0.22017060539E+03 -0.19103371536E+03  0.30232751739E+03  0.00000000000E+00 0.  1.
<scales pt_clust_5="13000.00000" pt_clust_6="13000.00000" pt_clust_7="13000.00000" pt_clust_8="13000.00000" pt_clust_9="132.10705" pt_clust_10="13000.00000"></scales>
<clustering>
<clus scale="   79.301">  5  6 -1 -1</clus>
<clus scale="   98.318">  7  8 -1 -1</clus>
<clus scale="  120.084">  2  5  1 -1</clus>
<clus scale="  132.107">  1  9  2 -1</clus>
<clus scale="  199.012">  7 10 -1 -1</clus>
<clus scale="  132.107">  1  5  2 -1</clus>
</clustering>
</event>
<event>
10    4  0.2759992E-005  0.2460503E+03  0.7546771E-02  0.1149969E+00
         21   -1    0    0  503  502  0.00000000000E+00  0.00000000000E+00  0.58843419808E+02  0.58843419808E+02  0.00000000000E+00 0. -1.
          2   -1    0    0  502    0 -0.00000000000E+00 -0.00000000000E+00 -0.80686628405E+03  0.80686628405E+03  0.00000000000E+00 0. -1.
         24    2    1    2    0    0 -0.50992150126E+02  0.41284118122E+02 -0.27399110812E+03  0.29303347884E+03  0.80578623752E+02 0.  0.
         23    2    1    2    0    0  0.83376970394E+02  0.33354857638E+02 -0.35187235067E+03  0.37385772296E+03  0.88832314702E+02 0.  0.
        -11    1    3    3    0    0  0.21300747205E+02  0.18099678379E+02 -0.77354072546E+02  0.82249454275E+02  0.00000000000E+00 0.  1.
         12    1    3    3    0    0 -0.72292897331E+02  0.23184439742E+02 -0.19663703558E+03  0.21078402456E+03  0.00000000000E+00 0. -1.
        -13    1    4    4    0    0  0.97902170239E+01  0.49933072551E+02 -0.14173466005E+03  0.15059174593E+03  0.00000000000E+00 0.  1.
         13    1    4    4    0    0  0.73586753370E+02 -0.16578214913E+02 -0.21013769062E+03  0.22326597703E+03  0.00000000000E+00 0. -1.
         21    1    1    2  503  501  0.66847118552E-01  0.29211177334E+02  0.69008551039E+01  0.30015315273E+02  0.00000000000E+00 0. -1.
          1    1    1    2  501    0 -0.32451667386E+02 -0.10385015309E+03 -0.12906026056E+03  0.16880318678E+03  0.00000000000E+00 0. -1.
<scales pt_clust_5="13000.00000" pt_clust_6="13000.00000" pt_clust_7="13000.00000" pt_clust_8="13000.00000" pt_clust_9="29.21125" pt_clust_10="13000.00000"></scales>
<clustering>
<clus scale="   29.211">  1  9  2 -1</clus>
<clus scale="   80.579">  5  6 -1 -1</clus>
<clus scale="   88.832">  7  8 -1 -1</clus>
<clus scale="   95.169">  7 10 -1 -1</clus>
<clus scale="  106.827">  2  5  1 -1</clus>
<clus scale="   29.211">  1  5  2 -1</clus>
</clustering>
</event>
<event>
10    4  0.2759992E-005  0.3429489E+03  0.7546771E-02  0.1113371E+00
          2   -1    0    0  503    0 -0.00000000000E+00  0.00000000000E+00  0.24651717457E+03  0.24651717457E+03  0.00000000000E+00 0. -1.
         21   -1    0    0  501  502  0.00000000000E+00 -0.00000000000E+00 -0.72850943017E+03  0.72850943017E+03  0.00000000000E+00 0. -1.
         24    2    1    2    0    0 -0.31760293425E+02 -0.32963116355E+02  0.16584304287E+03  0.19155556473E+03  0.84227882739E+02 0.  0.
         23    2    1    2    0    0 -0.32876417346E+02 -0.56325875255E+02 -0.43491062747E+02  0.12005831342E+03  0.90934388662E+02 0.  0.
        -11    1    3    3    0    0 -0.18562979918E+02 -0.61441480712E+02  0.11820490132E+03  0.13450664843E+03  0.00000000000E+00 0.  1.
         12    1    3    3    0    0 -0.13197313508E+02  0.28478364357E+02  0.47638141547E+02  0.57048916294E+02  0.00000000000E+00 0. -1.
        -11    1    4    4    0    0 -0.86308238911E+01 -0.49632235133E+02  0.18099435795E+02  0.53529799751E+02  0.00000000000E+00 0. -1.
         11    1    4    4    0    0 -0.24245593455E+02 -0.66936401222E+01 -0.61590498542E+02  0.66528513667E+02  0.00000000000E+00 0.  1.
         21    1    1    2  503  502 -0.56234821493E+02 -0.55225593586E+02 -0.11849531477E+03  0.14231430342E+03  0.00000000000E+00 0. -1.
          1    1    1    2  501    0  0.12087153226E+03  0.14451458520E+03 -0.48584892095E+03  0.52109842318E+03  0.00000000000E+00 0. -1.
<scales pt_clust_5="13000.00000" pt_clust_6="13000.00000" pt_clust_7="13000.00000" pt_clust_8="13000.00000" pt_clust_9="78.81765" pt_clust_10="13000.00000"></scales>
<clustering>
<clus scale="   78.818">  2  9  1 -1</clus>
<clus scale="   84.228">  5  6 -1 -1</clus>
<clus scale="   90.934">  7  8 -1 -1</clus>
<clus scale="   96.683">  1  5  2 -1</clus>
<clus scale="  108.885">  7 10 -1 -1</clus>
<clus scale="   78.818">  2  5  1 -1</clus>
</clustering>
</event>
<event>
10    4  0.2759992E-005  0.4328527E+03  0.7546771E-02  0.1051725E+00
         21   -1    0    0  501  502  0.00000000000E+00  0.00000000000E+00  0.32033782678E+03  0.32033782678E+03  0.00000000000E+00 0. -1.
          2   -1    0    0  503    0 -0.00000000000E+00 -0.00000000000E+00 -0.68160852375E+03  0.68160852375E+03  0.00000000000E+00 0. -1.
         24    2    1    2    0    0  0.23389883666E+03  0.80376367375E+02 -0.29801361888E+03  0.39495090939E+03  0.77492435557E+02 0.  0.
         23    2    1    2    0    0  0.43087443939E+02 -0.53644880230E+02 -0.18347725756E+03  0.21850872353E+03  0.96684317329E+02 0.  0.
        -11    1    3    3    0    0  0.63111526593E+02 -0.10747899821E+02 -0.93850633869E+02  0.11360688191E+03  0.00000000000E+00 0.  1.
         12    1    3    3    0    0  0.17078731007E+03  0.91124267196E+02 -0.20416298501E+03  0.28134402748E+03  0.00000000000E+00 0. -1.
        -11    1    4    4    0    0  0.19549272041E+02 -0.75050709830E+02 -0.85210912074E+02  0.11522014850E+03  0.00000000000E+00 0.  1.
         11    1    4    4    0    0  0.23538171897E+02  0.21405829601E+02 -0.98266345487E+02  0.10328857503E+03  0.00000000000E+00 0. -1.
         21    1    1    2  503  502 -0.30855070608E+02 -0.44466291090E+01  0.13726619631E+03  0.14076155918E+03  0.00000000000E+00 0. -1.
          1    1    1    2  501    0 -0.24613120999E+03 -0.22284858037E+02 -0.17046016843E+02  0.24772515843E+03  0.00000000000E+00 0. -1.
<scales pt_clust_5="13000.00000" pt_clust_6="13000.00000" pt_clust_7="13000.00000" pt_clust_8="13000.00000" pt_clust_9="31.17383" pt_clust_10="13000.00000"></scales>
<clustering>
<clus scale="   31.174">  1  9  2 -1</clus>
<clus scale="   77.492">  5  6 -1 -1</clus>
<clus scale="   96.684">  7  8 -1 -1</clus>
<clus scale="  251.385">  2  5  1 -1</clus>
<clus scale="  167.126">  7 10 -1 -1</clus>
<clus scale="   31.174">  1  5  2 -1</clus>
</clustering>
</event>
<event>
10    4  0.2759992E-005  0.1581209E+03  0.7546771E-02  0.1204716E+00
          2   -1    0    0  502    0 -0.00000000000E+00  0.00000000000E+00  0.29217145046E+03  0.29217145046E+03  0.00000000000E+00 0. -1.
         21   -1    0    0  503  502  0.00000000000E+00 -0.00000000000E+00 -0.84048511937E+02  0.84048511937E+02  0.00000000000E+00 0.  1.
         24    2    1    2    0    0 -0.46724293862E+02 -0.66322828466E+02  0.12259889064E+03  0.16737931121E+03  0.80021675958E+02 0.  0.
         23    2    1    2    0    0  0.40030162758E+02  0.74139687407E+01  0.50624891173E+02  0.11165149881E+03  0.90806369368E+02 0.  0.
        -11    1    3    3    0    0 -0.27845548917E+02  0.13044715932E+02  0.46935580433E+02  0.56111388495E+02  0.00000000000E+00 0.  1.
         12    1    3    3    0    0 -0.18878744945E+02 -0.79367544397E+02  0.75663310207E+02  0.11126792272E+03  0.00000000000E+00 0. -1.
        -13    1    4    4    0    0  0.64892543136E+02 -0.96395590985E+01  0.48195166290E+02  0.81404774479E+02  0.00000000000E+00 0. -1.
         13    1    4    4    0    0 -0.24862380379E+02  0.17053527839E+02  0.24297248831E+01  0.30246724333E+02  0.00000000000E+00 0.  1.
         21    1    1    2  503  501 -0.24440789316E+02  0.23998967878E+01  0.16668632681E+01  0.24614835367E+02  0.00000000000E+00 0. -1.
          1    1    1    2  501    0  0.31134920420E+02  0.56508962937E+02  0.33232293445E+02  0.72574317010E+02  0.00000000000E+00 0. -1.
<scales pt_clust_5="13000.00000" pt_clust_6="13000.00000" pt_clust_7="13000.00000" pt_clust_8="13000.00000" pt_clust_9="24.55833" pt_clust_10="13000.00000"></scales>
<clustering>
<clus scale="   24.558">  2  9  1 -1</clus>
<clus scale="   80.022">  5  6 -1 -1</clus>
<clus scale="   90.806">  7  8 -1 -1</clus>
<clus scale="   62.193">  7 10 -1 -1</clus>
<clus scale="  116.830">  1  5  2 -1</clus>
<clus scale="   24.558">  2  5  1 -1</clus>
</clustering>
</event>
<event>
10    4  0.2759992E-005  0.3141629E+03  0.7546771E-02  0.1131402E+00
          2   -1    0    0  503    0 -0.00000000000E+00  0.00000000000E+00  0.73258337253E+03  0.73258337253E+03  0.00000000000E+00 0. -1.
         21   -1    0    0  501  502  0.00000000000E+00 -0.00000000000E+00 -0.94315788113E+02  0.94315788113E+02  0.00000000000E+00 0. -1.
         24    2    1    2    0    0 -0.19528814794E+02 -0.10098617789E+02  0.11748126917E+03  0.14359555655E+03  0.79589437525E+02 0.  0.
         23    2    1    2    0    0  0.84827277909E+02 -0.11522998217E+03  0.23236987866E+03  0.28772462341E+03  0.91192557481E+02 0.  0.
        -13    1    3    3    0    0  0.16781677244E+02  0.26012491903E+02  0.51280903261E+02  0.59899962148E+02  0.00000000000E+00 0.  1.
         14    1    3    3    0    0 -0.36310492038E+02 -0.36111109691E+02  0.66200365912E+02  0.83695594401E+02  0.00000000000E+00 0. -1.
        -11    1    4    4    0    0  0.54807050674E+02 -0.98153540790E+02  0.98483683326E+02  0.14945556615E+03  0.00000000000E+00 0. -1.
         11    1    4    4    0    0  0.30020227236E+02 -0.17076441381E+02  0.13388619533E+03  0.13826905726E+03  0.00000000000E+00 0.  1.
         21    1    1    2  503  502  0.39643338971E+02  0.34011091936E+02 -0.21025321763E+02  0.56306419303E+02  0.00000000000E+00 0.  1.
          1    1    1    2  501    0 -0.10494180209E+03  0.91317508023E+02  0.30944175835E+03  0.33927256138E+03  0.00000000000E+00 0. -1.
<scales pt_clust_5="13000.00000" pt_clust_6="13000.00000" pt_clust_7="13000.00000" pt_clust_8="13000.00000" pt_clust_9="52.23360" pt_clust_10="13000.00000"></scales>
<clustering>
<clus scale="   52.234">  2  9  1 -1</clus>
<clus scale="   79.589">  5  6 -1 -1</clus>
<clus scale="   80.272">  1  5  2 -1</clus>
<clus scale="   91.193">  7  8 -1 -1</clus>
<clus scale="  140.819">  7 10 -1 -1</clus>
<clus scale="   52.234">  2  5  1 -1</clus>
</clustering>
</event>
<event>
10    4  0.2759992E-005  0.4494423E+03  0.7546771E-02  0.1086253E+00
          2   -1    0    0  502    0 -0.00000000000E+00  0.00000000000E+00  0.16152692667E+04  0.16152692667E+04  0.00000000000E+00 0. -1.
         21   -1    0    0  503  502  0.00000000000E+00 -0.00000000000E+00 -0.23208788185E+03  0.23208788185E+03  0.00000000000E+00 0.  1.
         24    2    1    2    0    0  0.22342715703E+02 -0.44806969414E+01  0.23541787143E+03  0.25013363634E+03  0.81400173527E+02 0.  0.
         23    2    1    2    0    0  0.11513627630E+03 -0.46293921563E+02  0.17159028834E+03  0.23074272602E+03  0.91648727561E+02 0.  0.
        -13    1    3    3    0    0  0.23288400412E+01 -0.41777760259E+02  0.12855741088E+03  0.13519546087E+03  0.00000000000E+00 0.  1.
         14    1    3    3    0    0  0.20013875662E+02  0.37297063317E+02  0.10686046055E+03  0.11493817547E+03  0.00000000000E+00 0. -1.
        -11    1    4    4    0    0  0.41794493863E+02  0.19285154646E+02  0.96703895903E+02  0.10709967502E+03  0.00000000000E+00 0.  1.
         11    1    4    4    0    0  0.73341782435E+02 -0.65579076208E+02  0.74886392437E+02  0.12364305100E+03  0.00000000000E+00 0. -1.
         21    1    1    2  503  501  0.25075795410E+02 -0.63659205080E+02 -0.18040434536E+03  0.19294304272E+03  0.00000000000E+00 0.  1.
          1    1    1    2  501    0 -0.16255478741E+03  0.11443382358E+03  0.11565775704E+04  0.11735377434E+04  0.00000000000E+00 0. -1.
<scales pt_clust_5="13000.00000" pt_clust_6="13000.00000" pt_clust_7="13000.00000" pt_clust_8="13000.00000" pt_clust_9="68.41995" pt_clust_10="13000.00000"></scales>
<clustering>
<clus scale="   68.420">  2  9  1 -1</clus>
<clus scale="   81.400">  5  6 -1 -1</clus>
<clus scale="   86.845">  1  5  2 -1</clus>
<clus scale="   91.649">  7  8 -1 -1</clus>
<clus scale="  164.848">  7 10 -1 -1</clus>
<clus scale="   68.420">  2  5  1 -1</clus>
</clustering>
</event>
<event>
10    4  0.2759992E-005  0.7552600E+03  0.7546771E-02  0.1006129E+00
          2   -1    0    0  502    0 -0.00000000000E+00  0.00000000000E+00  0.24835490266E+04  0.24835490266E+04  0.00000000000E+00 0. -1.
         21   -1    0    0  503  502  0.00000000000E+00 -0.00000000000E+00 -0.11524553936E+03  0.11524553936E+03  0.00000000000E+00 0.  1.
         24    2    1    2    0    0  0.10666143112E+03  0.14493315353E+03  0.26960557151E+03  0.33319442130E+03  0.77130268474E+02 0.  0.
         23    2    1    2    0    0  0.18380631676E+03  0.22642742470E+03  0.57179049984E+03  0.64825725566E+03  0.90768678893E+02 0.  0.
        -11    1    3    3    0    0  0.52380076114E+02  0.59873404652E+02  0.57017687568E+02  0.97874989931E+02  0.00000000000E+00 0.  1.
         12    1    3    3    0    0  0.54281355004E+02  0.85059748879E+02  0.21258788394E+03  0.23531943137E+03  0.00000000000E+00 0. -1.
        -13    1    4    4    0    0  0.59968975644E+02  0.21398049380E+02  0.15454475708E+03  0.16714734966E+03  0.00000000000E+00 0. -1.
         13    1    4    4    0    0  0.12383734111E+03  0.20502937532E+03  0.41724574276E+03  0.48110990600E+03  0.00000000000E+00 0.  1.
         21    1    1    2  503  501  0.39729435167E+02 -0.92222564703E+02  0.26245046945E+03  0.28100476574E+03  0.00000000000E+00 0.  1.
          1    1    1    2  501    0 -0.33019718304E+03 -0.27913801352E+03  0.12644569464E+04  0.13363381233E+04  0.00000000000E+00 0. -1.
<scales pt_clust_5="13000.00000" pt_clust_6="13000.00000" pt_clust_7="13000.00000" pt_clust_8="13000.00000" pt_clust_9="100.41633" pt_clust_10="13000.00000"></scales>
<clustering>
<clus scale="   77.130">  5  6 -1 -1</clus>
<clus scale="   90.769">  7  8 -1 -1</clus>
<clus scale="  100.416">  2  9  1 -1</clus>
<clus scale="  183.743">  1  5  2 -1</clus>
<clus scale="  331.334">  7 10 -1 -1</clus>
<clus scale="  100.416">  2  5  1 -1</clus>
</clustering>
</event>
<event>
10    4  0.2759992E-005  0.2273028E+03  0.7546771E-02  0.1157584E+00
          2   -1    0    0  502    0 -0.00000000000E+00  0.00000000000E+00  0.13641215974E+04  0.13641215974E+04  0.00000000000E+00 0. -1.
         21   -1    0    0  503  502  0.00000000000E+00 -0.00000000000E+00 -0.45326797022E+02  0.45326797022E+02  0.00000000000E+00 0.  1.
         24    2    1    2    0    0 -0.51986059937E+02  0.81841181046E+02  0.44474741802E+03  0.46210581165E+03  0.79630308169E+02 0.  0.
         23    2    1    2    0    0 -0.99140423048E+02 -0.10172416628E+03  0.38182530887E+03  0.41804825836E+03  0.93793125238E+02 0.  0.
        -11    1    3    3    0    0 -0.55922436135E+02  0.40754530987E+02  0.37273244236E+03  0.37910120581E+03  0.00000000000E+00 0.  1.
         12    1    3    3    0    0  0.39363761983E+01  0.41086650059E+02  0.72014975657E+02  0.83004605833E+02  0.00000000000E+00 0. -1.
        -11    1    4    4    0    0 -0.10520390854E+03 -0.68695961897E+02  0.22535573760E+03  0.25801590266E+03  0.00000000000E+00 0.  1.
         11    1    4    4    0    0  0.60634854947E+01 -0.33028204380E+02  0.15646957127E+03  0.16003235571E+03  0.00000000000E+00 0. -1.
         21    1    1    2  503  501  0.11937301758E+03 -0.90803589388E+01  0.19381643563E+03  0.22780952781E+03  0.00000000000E+00 0. -1.
          1    1    1    2  501    0  0.31753465408E+02  0.28963344170E+02  0.29840563786E+03  0.30148479660E+03  0.00000000000E+00 0. -1.
<scales pt_clust_5="13000.00000" pt_clust_6="13000.00000" pt_clust_7="13000.00000" pt_clust_8="13000.00000" pt_clust_9="119.71788" pt_clust_10="13000.00000"></scales>
<clustering>
<clus scale="   79.630">  5  6 -1 -1</clus>
<clus scale="   93.793">  7  8 -1 -1</clus>
<clus scale="   42.979">  7 10 -1 -1</clus>
<clus scale="  119.718">  2  9  1 -1</clus>
<clus scale="  113.265">  1  5  2 -1</clus>
<clus scale="  119.718">  2  5  1 -1</clus>
</clustering>
</event>
<event>
10    4  0.2759992E-005  0.3896970E+03  0.7546771E-02  0.1096619E+00
         21   -1    0    0  503  502  0.00000000000E+00  0.00000000000E+00  0.50515350100E+02  0.50515350100E+02  0.00000000000E+00 0. -1.
         -1   -1    0    0    0  501 -0.00000000000E+00 -0.00000000000E+00 -0.14761261420E+04  0.14761261420E+04  0.00000000000E+00 0.  1.
         24    2    1    2    0    0 -0.35411714475E+02  0.41813895811E+02 -0.10434473836E+03  0.14237145131E+03  0.79871235880E+02 0.  0.
         23    2    1    2    0    0 -0.13617662278E+03 -0.10392532457E+03 -0.67831632628E+03  0.70565667608E+03  0.92161598902E+02 0.  0.
        -13    1    3    3    0    0 -0.11002855046E+02 -0.18596085636E+02 -0.59428550629E+02  0.63234720289E+02  0.00000000000E+00 0.  1.
         14    1    3    3    0    0 -0.24408859428E+02  0.60409981447E+02 -0.44916187728E+02  0.79136731024E+02  0.00000000000E+00 0. -1.
        -13    1    4    4    0    0 -0.12099631416E+03 -0.73697679183E+02 -0.63545203195E+03  0.65105356221E+03  0.00000000000E+00 0. -1.
         13    1    4    4    0    0 -0.15180308621E+02 -0.30227645385E+02 -0.42864294334E+02  0.54603113869E+02  0.00000000000E+00 0.  1.
         21    1    1    2  503  501 -0.17764241572E+02  0.10271093905E+02 -0.51760186276E+02  0.55679264829E+02  0.00000000000E+00 0. -1.
         -2    1    1    2    0  502  0.18935257883E+03  0.51840334853E+02 -0.59118954103E+03  0.62293409992E+03  0.00000000000E+00 0.  1.
<scales pt_clust_5="13000.00000" pt_clust_6="13000.00000" pt_clust_7="13000.00000" pt_clust_8="13000.00000" pt_clust_9="20.51984" pt_clust_10="13000.00000"></scales>
<clustering>
<clus scale="   20.520">  1  9  2 -1</clus>
<clus scale="   79.871">  5  6 -1 -1</clus>
<clus scale="   92.162">  7  8 -1 -1</clus>
<clus scale="  101.368">  2  5  1 -1</clus>
<clus scale="  181.090">  7 10 -1 -1</clus>
<clus scale="   20.520">  1  5  2 -1</clus>
</clustering>
</event>
<event>
10    4  0.2759992E-005  0.5691000E+03  0.7546771E-02  0.9989107E-01
         21   -1    0    0  501  502  0.00000000000E+00  0.00000000000E+00  0.13354607706E+04  0.13354607706E+04  0.00000000000E+00 0. -1.
          4   -1    0    0  503    0 -0.00000000000E+00 -0.00000000000E+00 -0.33258371025E+03  0.33258371025E+03  0.00000000000E+00 0. -1.
         24    2    1    2    0    0  0.38425538394E+03  0.34870576894E+03  0.88731361956E+03  0.10305603907E+04  0.74036112583E+02 0.  0.
         23    2    1    2    0    0 -0.18191727176E+03 -0.24305375233E+03  0.63997574825E+02  0.32450318498E+03  0.95066330475E+02 0.  0.
        -11    1    3    3    0    0  0.41638140094E+02  0.48578602110E+02  0.16093908655E+03  0.17319066046E+03  0.00000000000E+00 0.  1.
         12    1    3    3    0    0  0.34261724385E+03  0.30012716683E+03  0.72637453302E+03  0.85736973021E+03  0.00000000000E+00 0. -1.
        -11    1    4    4    0    0 -0.14473763426E+03 -0.23893760885E+03  0.46476952009E+02  0.28319652321E+03  0.00000000000E+00 0. -1.
         11    1    4    4    0    0 -0.37179637504E+02 -0.41161434810E+01  0.17520622816E+02  0.41306661762E+02  0.00000000000E+00 0.  1.
         21    1    1    2  503  502  0.28504372928E+02 -0.30208889181E+01  0.53105214700E+02  0.60347235846E+02  0.00000000000E+00 0. -1.
          3    1    1    2  501    0 -0.23084248511E+03 -0.10263112770E+03 -0.15393487414E+01  0.25263366937E+03  0.00000000000E+00 0. -1.
<scales pt_clust_5="13000.00000" pt_clust_6="13000.00000" pt_clust_7="13000.00000" pt_clust_8="13000.00000" pt_clust_9="28.66400" pt_clust_10="13000.00000"></scales>
<clustering>
<clus scale="   28.664">  1  9  2 -1</clus>
<clus scale="   74.036">  5  6 -1 -1</clus>
<clus scale="   95.066">  7  8 -1 -1</clus>
<clus scale="  250.196">  7 10 -1 -1</clus>
<clus scale="  538.553">  2  5  1 -1</clus>
<clus scale="   28.664">  1  5  2 -1</clus>
</clustering>
</event>
<event>
10    4  0.2759992E-005  0.2739972E+03  0.7546771E-02  0.1141070E+00
         21   -1    0    0  503  502  0.00000000000E+00  0.00000000000E+00  0.15021385123E+03  0.15021385123E+03  0.00000000000E+00 0. -1.
          4   -1    0    0  502    0 -0.00000000000E+00 -0.00000000000E+00 -0.44493846922E+03  0.44493846922E+03  0.00000000000E+00 0. -1.
         24    2    1    2    0    0  0.13542477178E+02 -0.55096618775E+02  0.24578424898E+02  0.10078420550E+03  0.79588447777E+02 0.  0.
         23    2    1    2    0    0 -0.98476320064E+02  0.49659449278E+01 -0.18495332090E+03  0.22911955766E+03  0.92551577878E+02 0.  0.
        -11    1    3    3    0    0  0.31164094647E+02 -0.28212467687E+02 -0.19410225787E+02  0.46302278489E+02  0.00000000000E+00 0.  1.
         12    1    3    3    0    0 -0.17621617469E+02 -0.26884151088E+02  0.43988650685E+02  0.54481927013E+02  0.00000000000E+00 0. -1.
        -11    1    4    4    0    0 -0.65668419830E+02  0.39158453097E+02 -0.65741255603E+02  0.10083470881E+03  0.00000000000E+00 0.  1.
         11    1    4    4    0    0 -0.32807900234E+02 -0.34192508169E+02 -0.11921206530E+03  0.12828484885E+03  0.00000000000E+00 0. -1.
         21    1    1    2  503  501 -0.47386243388E+02  0.64837793536E+01  0.24675906438E+02  0.53818173656E+02  0.00000000000E+00 0. -1.
          3    1    1    2  501    0  0.13232008627E+03  0.43646894493E+02 -0.15902562842E+03  0.21143038364E+03  0.00000000000E+00 0. -1.
<scales pt_clust_5="13000.00000" pt_clust_6="13000.00000" pt_clust_7="13000.00000" pt_clust_8="13000.00000" pt_clust_9="47.82777" pt_clust_10="13000.00000"></scales>
<clustering>
<clus scale="   47.828">  1  9  2 -1</clus>
<clus scale="   79.588">  5  6 -1 -1</clus>
<clus scale="   92.552">  7  8 -1 -1</clus>
<clus scale="   95.680">  2  5  1 -1</clus>
<clus scale="  118.153">  7 10 -1 -1</clus>
<clus scale="   47.828">  1  5  2 -1</clus>
</clustering>
</event>
<event>
10    4  0.2759992E-005  0.4484617E+03  0.7546771E-02  0.1047018E+00
         21   -1    0    0  503  502  0.00000000000E+00  0.00000000000E+00  0.16379413698E+03  0.16379413698E+03  0.00000000000E+00 0. -1.
          2   -1    0    0  502    0 -0.00000000000E+00 -0.00000000000E+00 -0.97514332818E+03  0.97514332818E+03  0.00000000000E+00 0. -1.
         24    2    1    2    0    0 -0.39463562532E+02 -0.25246653186E+03 -0.34414345269E+03  0.43657657584E+03  0.82871394732E+02 0.  0.
         23    2    1    2    0    0 -0.12438796081E+03  0.34234410978E+02 -0.35480645692E+03  0.38684997618E+03  0.84385558656E+02 0.  0.
        -11    1    3    3    0    0  0.19995051217E+02 -0.66835720236E+02 -0.60077106674E+02  0.92065597913E+02  0.00000000000E+00 0.  1.
         12    1    3    3    0    0 -0.59458613749E+02 -0.18563081162E+03 -0.28406634602E+03  0.34451097793E+03  0.00000000000E+00 0. -1.
        -13    1    4    4    0    0 -0.14024850197E+02 -0.22127833315E+02 -0.33869977142E+02  0.42819537385E+02  0.00000000000E+00 0. -1.
         13    1    4    4    0    0 -0.11036311061E+03  0.56362244293E+02 -0.32093647978E+03  0.34403043880E+03  0.00000000000E+00 0.  1.
         21    1    1    2  503  501  0.29368652711E+02  0.26093789059E+02  0.22179306810E+02  0.45114579019E+02  0.00000000000E+00 0.  1.
          1    1    1    2  501    0  0.13448287063E+03  0.19213833182E+03 -0.13457858841E+03  0.27039633412E+03  0.00000000000E+00 0. -1.
<scales pt_clust_5="13000.00000" pt_clust_6="13000.00000" pt_clust_7="13000.00000" pt_clust_8="13000.00000" pt_clust_9="39.28618" pt_clust_10="13000.00000"></scales>
<clustering>
<clus scale="   39.286">  1  9  2 -1</clus>
<clus scale="   82.871">  5  6 -1 -1</clus>
<clus scale="   84.386">  7  8 -1 -1</clus>
<clus scale="  254.513">  7 10 -1 -1</clus>
<clus scale="  258.567">  2  5  1 -1</clus>
<clus scale="   39.286">  1  5  2 -1</clus>
</clustering>
</event>
<event>
10    4  0.2759992E-005  0.2049904E+03  0.7546771E-02  0.1173154E+00
          2   -1    0    0  503    0 -0.00000000000E+00  0.00000000000E+00  0.12445534014E+04  0.12445534014E+04  0.00000000000E+00 0. -1.
         21   -1    0    0  501  502  0.00000000000E+00 -0.00000000000E+00 -0.10043928060E+03  0.10043928060E+03  0.00000000000E+00 0.  1.
         24    2    1    2    0    0  0.10608686078E+03 -0.27801099930E+01 -0.54260374195E+01  0.13176050665E+03  0.77905315530E+02 0.  0.
         23    2    1    2    0    0  0.14729455517E+02  0.31854691136E+02  0.40738122897E+03  0.41916738118E+03  0.92250471684E+02 0.  0.
        -13    1    3    3    0    0  0.93680910179E+02  0.15326443802E+02 -0.29285340530E+02  0.99341048825E+02  0.00000000000E+00 0.  1.
         14    1    3    3    0    0  0.12405950606E+02 -0.18106553795E+02  0.23859303111E+02  0.32419457825E+02  0.00000000000E+00 0. -1.
        -11    1    4    4    0    0  0.55419802249E+01  0.64065435044E+02  0.29352870617E+03  0.30048992472E+03  0.00000000000E+00 0.  1.
         11    1    4    4    0    0  0.91874752919E+01 -0.32210743908E+02  0.11385252279E+03  0.11867745646E+03  0.00000000000E+00 0. -1.
         21    1    1    2  503  502 -0.36392043464E+02  0.14602265747E+02 -0.61947167187E+01  0.39698633574E+02  0.00000000000E+00 0.  1.
          1    1    1    2  501    0 -0.84424272838E+02 -0.43676846891E+02  0.74835364594E+03  0.75436616055E+03  0.00000000000E+00 0. -1.
<scales pt_clust_5="13000.00000" pt_clust_6="13000.00000" pt_clust_7="13000.00000" pt_clust_8="13000.00000" pt_clust_9="39.21233" pt_clust_10="13000.00000"></scales>
<clustering>
<clus scale="   39.212">  2  9  1 -1</clus>
<clus scale="   77.905">  5  6 -1 -1</clus>
<clus scale="   92.250">  7  8 -1 -1</clus>
<clus scale="   96.054">  7 10 -1 -1</clus>
<clus scale="  107.840">  1  5  2 -1</clus>
<clus scale="   39.212">  2  5  1 -1</clus>
</clustering>
</event>
<event>
10    4  0.2759992E-005  0.4276830E+03  0.7546771E-02  0.1069607E+00
          2   -1    0    0  503    0 -0.00000000000E+00  0.00000000000E+00  0.10523588716E+04  0.10523588716E+04  0.00000000000E+00 0. -1.
         21   -1    0    0  501  502  0.00000000000E+00 -0.00000000000E+00 -0.10485448901E+03  0.10485448901E+03  0.00000000000E+00 0. -1.
         24    2    1    2    0    0  0.10940198649E+03 -0.88168902759E+02  0.28707173291E+03  0.32986395805E+03  0.81593510311E+02 0.  0.
         23    2    1    2    0    0 -0.16126870386E+03 -0.13944639501E+03  0.26258221790E+03  0.35069737353E+03  0.92662477377E+02 0.  0.
        -13    1    3    3    0    0  0.10755309776E+03 -0.40922995116E+02  0.19753851916E+03  0.22861283192E+03  0.00000000000E+00 0.  1.
         14    1    3    3    0    0  0.18488887291E+01 -0.47245907643E+02  0.89533213751E+02  0.10125112613E+03  0.00000000000E+00 0. -1.
        -13    1    4    4    0    0 -0.67022144899E+02 -0.24222969416E+02  0.36656440252E+02  0.80139969841E+02  0.00000000000E+00 0. -1.
         13    1    4    4    0    0 -0.94246558959E+02 -0.11522342559E+03  0.22592577765E+03  0.27055740368E+03  0.00000000000E+00 0.  1.
         21    1    1    2  503  502  0.13512564686E+02  0.52870453974E+02  0.19172947117E+02  0.57840091710E+02  0.00000000000E+00 0. -1.
          1    1    1    2  501    0  0.38354152684E+02  0.17474484380E+03  0.37867748466E+03  0.41881193733E+03  0.00000000000E+00 0. -1.
<scales pt_clust_5="13000.00000" pt_clust_6="13000.00000" pt_clust_7="13000.00000" pt_clust_8="13000.00000" pt_clust_9="54.56990" pt_clust_10="13000.00000"></scales>
<clustering>
<clus scale="   54.570">  2  9  1 -1</clus>
<clus scale="   81.594">  5  6 -1 -1</clus>
<clus scale="   92.662">  7  8 -1 -1</clus>
<clus scale="  158.094">  1  5  2 -1</clus>
<clus scale="  179.570">  7 10 -1 -1</clus>
<clus scale="   54.570">  2  5  1 -1</clus>
</clustering>
</event>
<event>
10    4  0.2759992E-005  0.3481348E+03  0.7546771E-02  0.1114505E+00
          2   -1    0    0  503    0 -0.00000000000E+00  0.00000000000E+00  0.12255637823E+04  0.12255637823E+04  0.00000000000E+00 0. -1.
         21   -1    0    0  501  502  0.00000000000E+00 -0.00000000000E+00 -0.87085399654E+02  0.87085399654E+02  0.00000000000E+00 0. -1.
         24    2    1    2    0    0  0.25519978339E+02  0.17266373737E+02  0.11557909163E+03  0.14206544089E+03  0.76646370543E+02 0.  0.
         23    2    1    2    0    0  0.71750073275E+02  0.74863397688E+02  0.65378582009E+03  0.66829678879E+03  0.91826456036E+02 0.  0.
        -13    1    3    3    0    0  0.15731440573E+02 -0.30236088400E+02  0.49381136111E+02  0.60001632209E+02  0.00000000000E+00 0.  1.
         14    1    3    3    0    0  0.97885377663E+01  0.47502462136E+02  0.66197955522E+02  0.82063808685E+02  0.00000000000E+00 0. -1.
        -11    1    4    4    0    0 -0.12867684664E+02  0.43249342054E+02  0.15657840623E+03  0.16295054524E+03  0.00000000000E+00 0.  1.
         11    1    4    4    0    0  0.84617757939E+02  0.31614055634E+02  0.49720741386E+03  0.50534624355E+03  0.00000000000E+00 0. -1.
         21    1    1    2  503  502 -0.14913184908E+02  0.81073105511E+02 -0.42537734294E+01  0.82542995521E+02  0.00000000000E+00 0. -1.
          1    1    1    2  501    0 -0.82356866706E+02 -0.17320287694E+03  0.37336724437E+03  0.41974395676E+03  0.00000000000E+00 0. -1.
<scales pt_clust_5="13000.00000" pt_clust_6="13000.00000" pt_clust_7="13000.00000" pt_clust_8="13000.00000" pt_clust_9="82.43332" pt_clust_10="13000.00000"></scales>
<clustering>
<clus scale="   76.646">  5  6 -1 -1</clus>
<clus scale="   82.433">  2  9  1 -1</clus>
<clus scale="   89.813">  1  5  2 -1</clus>
<clus scale="   91.826">  7  8 -1 -1</clus>
<clus scale="  144.899">  7 10 -1 -1</clus>
<clus scale="   82.433">  2  5  1 -1</clus>
</clustering>
</event>
<event>
10    4  0.2759992E-005  0.1555151E+03  0.7546771E-02  0.1217380E+00
         21   -1    0    0  503  502  0.00000000000E+00  0.00000000000E+00  0.50607427395E+02  0.50607427395E+02  0.00000000000E+00 0.  1.
          2   -1    0    0  502    0 -0.00000000000E+00 -0.00000000000E+00 -0.57863830273E+03  0.57863830273E+03  0.00000000000E+00 0. -1.
         24    2    1    2    0    0  0.28512144926E+02 -0.21382239159E+02 -0.10531484309E+03  0.13655530354E+03  0.79284249315E+02 0.  0.
         23    2    1    2    0    0 -0.83536621593E+02  0.41044605606E+02 -0.35453505610E+03  0.37776692851E+03  0.91376799406E+02 0.  0.
        -11    1    3    3    0    0 -0.68775778936E+00  0.28602060973E+02 -0.41375464310E+02  0.50303876089E+02  0.00000000000E+00 0.  1.
         12    1    3    3    0    0  0.29199902715E+02 -0.49984300131E+02 -0.63939378780E+02  0.86251427449E+02  0.00000000000E+00 0. -1.
        -11    1    4    4    0    0 -0.65883529528E+02  0.60212694111E+02 -0.33041925284E+03  0.34226172827E+03  0.00000000000E+00 0. -1.
         11    1    4    4    0    0 -0.17653092064E+02 -0.19168088504E+02 -0.24115803266E+02  0.35505200232E+02  0.00000000000E+00 0.  1.
         21    1    1    2  503  501  0.32510889576E+02  0.53394934830E+00  0.75465854303E+01  0.33379544554E+02  0.00000000000E+00 0.  1.
          1    1    1    2  501    0  0.22513587090E+02 -0.20196315796E+02 -0.75727561574E+02  0.81543953530E+02  0.00000000000E+00 0. -1.
<scales pt_clust_5="13000.00000" pt_clust_6="13000.00000" pt_clust_7="13000.00000" pt_clust_8="13000.00000" pt_clust_9="32.51527" pt_clust_10="13000.00000"></scales>
<clustering>
<clus scale="   32.515">  1  9  2 -1</clus>
<clus scale="   79.284">  5  6 -1 -1</clus>
<clus scale="   91.377">  7  8 -1 -1</clus>
<clus scale="   32.615">  7 10 -1 -1</clus>
<clus scale="   93.749">  2  5  1 -1</clus>
<clus scale="   32.515">  1  5  2 -1</clus>
</clustering>
</event>
<event>
10    4  0.2759992E-005  0.2165763E+03  0.7546771E-02  0.1163544E+00
          2   -1    0    0  502    0 -0.00000000000E+00  0.00000000000E+00  0.12727277430E+04  0.12727277430E+04  0.00000000000E+00 0. -1.
         21   -1    0    0  503  502  0.00000000000E+00 -0.00000000000E+00 -0.62529918167E+02  0.62529918167E+02  0.00000000000E+00 0. -1.
         24    2    1    2    0    0 -0.23505744401E+01  0.76870682515E+02  0.85406077780E+03  0.86178070995E+03  0.85624487311E+02 0.  0.
         23    2    1    2    0    0  0.48510597263E+02  0.18390259723E+02  0.21731364331E+03  0.24203221142E+03  0.93074658702E+02 0.  0.
        -13    1    3    3    0    0  0.58582358267E+01  0.68112883289E+02  0.30413261522E+03  0.31172156076E+03  0.00000000000E+00 0.  1.
         14    1    3    3    0    0 -0.82088102667E+01  0.87577992264E+01  0.54992816258E+03  0.55005914919E+03  0.00000000000E+00 0. -1.
        -11    1    4    4    0    0  0.37188402550E+02  0.53846329016E+02  0.16765062283E+03  0.17996981905E+03  0.00000000000E+00 0.  1.
         11    1    4    4    0    0  0.11322194714E+02 -0.35456069293E+02  0.49663020486E+02  0.62062392370E+02  0.00000000000E+00 0. -1.
         21    1    1    2  503  501  0.20336749586E+02 -0.13253889680E+02 -0.26086083423E+02  0.35633309188E+02  0.00000000000E+00 0. -1.
          1    1    1    2  501    0 -0.66496772409E+02 -0.82007052558E+02  0.16490948712E+03  0.19581143060E+03  0.00000000000E+00 0. -1.
<scales pt_clust_5="13000.00000" pt_clust_6="13000.00000" pt_clust_7="13000.00000" pt_clust_8="13000.00000" pt_clust_9="24.27445" pt_clust_10="13000.00000"></scales>
<clustering>
<clus scale="   24.274">  2  9  1 -1</clus>
<clus scale="   85.624">  5  6 -1 -1</clus>
<clus scale="   93.075">  7  8 -1 -1</clus>
<clus scale="  105.016">  7 10 -1 -1</clus>
<clus scale="  113.995">  1  5  2 -1</clus>
<clus scale="   24.274">  2  5  1 -1</clus>
</clustering>
</event>
<event>
10    4  0.2759992E-005  0.8767756E+03  0.7546771E-02  0.9813800E-01
          2   -1    0    0  502    0 -0.00000000000E+00  0.00000000000E+00  0.24888479479E+04  0.24888479479E+04  0.00000000000E+00 0. -1.
         21   -1    0    0  503  502  0.00000000000E+00 -0.00000000000E+00 -0.16382112118E+03  0.16382112118E+03  0.00000000000E+00 0. -1.
         24    2    1    2    0    0  0.23831928752E+03  0.98050401200E+02  0.26386091381E+03  0.37787919226E+03  0.82220059163E+02 0.  0.
         23    2    1    2    0    0  0.29794943124E+03 -0.17583543774E+03  0.88557635044E+03  0.95499559855E+03  0.89884125655E+02 0.  0.
        -11    1    3    3    0    0  0.65770907605E+02  0.55488131861E+02  0.12773405013E+03  0.15401536491E+03  0.00000000000E+00 0.  1.
         12    1    3    3    0    0  0.17254837992E+03  0.42562269339E+02  0.13612686367E+03  0.22386382735E+03  0.00000000000E+00 0. -1.
        -13    1    4    4    0    0  0.13681157769E+03 -0.11398460268E+03  0.35690506345E+03  0.39886228420E+03  0.00000000000E+00 0.  1.
         13    1    4    4    0    0  0.16113785355E+03 -0.61850835066E+02  0.52867128699E+03  0.55613331435E+03  0.00000000000E+00 0. -1.
         21    1    1    2  503  501 -0.30008890516E+02 -0.93209644815E+01 -0.54323974787E+01  0.31889258869E+02  0.00000000000E+00 0.  1.
          1    1    1    2  501    0 -0.50625982824E+03  0.87106001024E+02  0.11810219600E+04  0.12879050194E+04  0.00000000000E+00 0. -1.
<scales pt_clust_5="13000.00000" pt_clust_6="13000.00000" pt_clust_7="13000.00000" pt_clust_8="13000.00000" pt_clust_9="31.42314" pt_clust_10="13000.00000"></scales>
<clustering>
<clus scale="   31.423">  2  9  1 -1</clus>
<clus scale="   82.220">  5  6 -1 -1</clus>
<clus scale="   89.884">  7  8 -1 -1</clus>
<clus scale="  258.819">  1  5  2 -1</clus>
<clus scale="  408.451">  7 10 -1 -1</clus>
<clus scale="   31.423">  2  5  1 -1</clus>
</clustering>
</event>
<event>
10    4  0.2759992E-005  0.3058979E+03  0.7546771E-02  0.1127250E+00
         21   -1    0    0  501  502  0.00000000000E+00  0.00000000000E+00  0.21809658094E+03  0.21809658094E+03  0.00000000000E+00 0. -1.
          2   -1    0    0  503    0 -0.00000000000E+00 -0.00000000000E+00 -0.38560296286E+03  0.38560296286E+03  0.00000000000E+00 0. -1.
         24    2    1    2    0    0 -0.53236460544E+02  0.18715423065E+02 -0.81085343887E+02  0.12589252333E+03  0.78036572486E+02 0.  0.
         23    2    1    2    0    0  0.52956012033E+02 -0.71283268410E+02  0.42778218064E+02  0.13496600556E+03  0.92196546306E+02 0.  0.
        -11    1    3    3    0    0 -0.21829266401E+01  0.29543122423E+02 -0.64753010387E+02  0.71207538964E+02  0.00000000000E+00 0.  1.
         12    1    3    3    0    0 -0.51053533904E+02 -0.10827699358E+02 -0.16332333500E+02  0.54684984365E+02  0.00000000000E+00 0. -1.
        -13    1    4    4    0    0  0.22311543705E+02  0.80423905405E+01  0.43925404972E+02  0.49919197010E+02  0.00000000000E+00 0.  1.
         13    1    4    4    0    0  0.30644468329E+02 -0.79325658950E+02 -0.11471869084E+01  0.85046808552E+02  0.00000000000E+00 0. -1.
         21    1    1    2  503  502 -0.13516254158E+03 -0.52657425602E+02 -0.45735978280E+02  0.15209699808E+03  0.00000000000E+00 0. -1.
          1    1    1    2  501    0  0.13544299009E+03  0.10522527095E+03 -0.83463277824E+02  0.19074401683E+03  0.00000000000E+00 0. -1.
<scales pt_clust_5="13000.00000" pt_clust_6="13000.00000" pt_clust_7="13000.00000" pt_clust_8="13000.00000" pt_clust_9="160.58658" pt_clust_10="13000.00000"></scales>
<clustering>
<clus scale="   78.037">  5  6 -1 -1</clus>
<clus scale="   92.197">  7  8 -1 -1</clus>
<clus scale="   96.302">  2  5  1 -1</clus>
<clus scale="  158.351">  7 10 -1 -1</clus>
<clus scale="  160.587">  1  9  2 -1</clus>
<clus scale="  160.587">  1  5  2 -1</clus>
</clustering>
</event>
<event>
10    4  0.2759992E-005  0.5230419E+03  0.7546771E-02  0.1049574E+00
         21   -1    0    0  501  502  0.00000000000E+00  0.00000000000E+00  0.12951256378E+03  0.12951256378E+03  0.00000000000E+00 0. -1.
          2   -1    0    0  503    0 -0.00000000000E+00 -0.00000000000E+00 -0.11442216916E+04  0.11442216916E+04  0.00000000000E+00 0. -1.
         24    2    1    2    0    0  0.54605594588E+02 -0.10546621431E+03 -0.35789136398E+03  0.38655970880E+03  0.85072244185E+02 0.  0.
         23    2    1    2    0    0 -0.58327643481E+02 -0.12206216786E+02  0.60777468247E+02  0.12176760243E+03  0.87076648040E+02 0.  0.
        -13    1    3    3    0    0 -0.30131900575E-01 -0.48001028680E+02 -0.52910313035E+02  0.71439491093E+02  0.00000000000E+00 0.  1.
         14    1    3    3    0    0  0.54635726489E+02 -0.57465185633E+02 -0.30498105095E+03  0.31512021770E+03  0.00000000000E+00 0. -1.
        -11    1    4    4    0    0  0.18555845673E+02  0.11226932015E+02  0.12031703730E+01  0.21721211523E+02  0.00000000000E+00 0.  1.
         11    1    4    4    0    0 -0.76883489154E+02 -0.23433148801E+02  0.59574297874E+02  0.10004639091E+03  0.00000000000E+00 0. -1.
         21    1    1    2  503  502  0.15917216880E+01 -0.59394973595E+02 -0.60214685899E+02  0.84593763743E+02  0.00000000000E+00 0.  1.
          1    1    1    2  501    0  0.21303272050E+01  0.17706740469E+03 -0.65738054616E+03  0.68081318037E+03  0.00000000000E+00 0. -1.
<scales pt_clust_5="13000.00000" pt_clust_6="13000.00000" pt_clust_7="13000.00000" pt_clust_8="13000.00000" pt_clust_9="59.41630" pt_clust_10="13000.00000"></scales>
<clustering>
<clus scale="   59.416">  1  9  2 -1</clus>
<clus scale="   85.072">  5  6 -1 -1</clus>
<clus scale="   87.077">  7  8 -1 -1</clus>
<clus scale="  151.482">  2  5  1 -1</clus>
<clus scale="   89.238">  7 10 -1 -1</clus>
<clus scale="   59.416">  1  5  2 -1</clus>
</clustering>
</event>
<event>
10    4  0.2759992E-005  0.1609645E+03  0.7546771E-02  0.1215469E+00
          2   -1    0    0  503    0 -0.00000000000E+00  0.00000000000E+00  0.15551128440E+03  0.15551128440E+03  0.00000000000E+00 0. -1.
         21   -1    0    0  501  502  0.00000000000E+00 -0.00000000000E+00 -0.19301402934E+03  0.19301402934E+03  0.00000000000E+00 0.  1.
         24    2    1    2    0    0 -0.22940664963E+02  0.58544762996E+02 -0.91550376576E+02  0.13539420349E+03  0.77436138240E+02 0.  0.
         23    2    1    2    0    0  0.13031934303E+02 -0.69328665487E+02  0.48725833128E+02  0.12426243443E+03  0.89948044034E+02 0.  0.
        -13    1    3    3    0    0 -0.35302440202E+02  0.71586419391E+02 -0.84084252363E+02  0.11593549595E+03  0.00000000000E+00 0.  1.
         14    1    3    3    0    0  0.12361775239E+02 -0.13041656395E+02 -0.74661242129E+01  0.19458707546E+02  0.00000000000E+00 0. -1.
        -13    1    4    4    0    0 -0.11846250549E+02 -0.66317164157E+02  0.65616634227E+02  0.94041706712E+02  0.00000000000E+00 0. -1.
         13    1    4    4    0    0  0.24878184852E+02 -0.30115013293E+01 -0.16890801099E+02  0.30220727714E+02  0.00000000000E+00 0.  1.
         21    1    1    2  503  502  0.18657803683E+01 -0.32897059986E+02 -0.19197928740E+02  0.38134736921E+02  0.00000000000E+00 0.  1.
          1    1    1    2  501    0  0.80429502917E+01  0.43680962477E+02  0.24519727241E+02  0.50733938899E+02  0.00000000000E+00 0. -1.
<scales pt_clust_5="13000.00000" pt_clust_6="13000.00000" pt_clust_7="13000.00000" pt_clust_8="13000.00000" pt_clust_9="32.94993" pt_clust_10="13000.00000"></scales>
<clustering>
<clus scale="   32.950">  2  9  1 -1</clus>
<clus scale="   77.436">  5  6 -1 -1</clus>
<clus scale="   88.029">  1  5  2 -1</clus>
<clus scale="   89.948">  7  8 -1 -1</clus>
<clus scale="   50.645">  7 10 -1 -1</clus>
<clus scale="   32.950">  2  5  1 -1</clus>
</clustering>
</event>
<event>
10    4  0.2759992E-005  0.3561874E+03  0.7546771E-02  0.1080562E+00
          2   -1    0    0  503    0 -0.00000000000E+00  0.00000000000E+00  0.15131293244E+04  0.15131293244E+04  0.00000000000E+00 0. -1.
         21   -1    0    0  501  502  0.00000000000E+00 -0.00000000000E+00 -0.11945087417E+03  0.11945087417E+03  0.00000000000E+00 0. -1.
         24    2    1    2    0    0  0.19039699963E+03 -0.10224516272E+02  0.11523820727E+04  0.11705547503E+04  0.76540340881E+02 0.  0.
         23    2    1    2    0    0  0.25147367403E+02 -0.77911849326E+02  0.12030455744E+03  0.17079005401E+03  0.89405870352E+02 0.  0.
        -11    1    3    3    0    0  0.11266762732E+03 -0.40479163316E+02  0.59031382435E+03  0.60233127773E+03  0.00000000000E+00 0.  1.
         12    1    3    3    0    0  0.77729372311E+02  0.30254647044E+02  0.56206824831E+03  0.56822347254E+03  0.00000000000E+00 0. -1.
        -13    1    4    4    0    0  0.44302006921E+02 -0.69637550850E+02  0.47875657635E+02  0.95415590443E+02  0.00000000000E+00 0. -1.
         13    1    4    4    0    0 -0.19154639517E+02 -0.82742984761E+01  0.72428899806E+02  0.75374463563E+02  0.00000000000E+00 0.  1.
         21    1    1    2  503  502 -0.28203527817E+02 -0.26222366406E+02 -0.38930817569E+01  0.38706686332E+02  0.00000000000E+00 0.  1.
          1    1    1    2  501    0 -0.18734083922E+03  0.11435873200E+03  0.12488490186E+03  0.25252870794E+03  0.00000000000E+00 0. -1.
<scales pt_clust_5="13000.00000" pt_clust_6="13000.00000" pt_clust_7="13000.00000" pt_clust_8="13000.00000" pt_clust_9="38.51041" pt_clust_10="13000.00000"></scales>
<clustering>
<clus scale="   38.510">  2  9  1 -1</clus>
<clus scale="   76.540">  5  6 -1 -1</clus>
<clus scale="   89.406">  7  8 -1 -1</clus>
<clus scale="  203.180">  1  5  2 -1</clus>
<clus scale="  134.848">  7 10 -1 -1</clus>
<clus scale="   38.510">  2  5  1 -1</clus>
</clustering>
</event>
<event>
10    4  0.2759992E-005  0.4904115E+03  0.7546771E-02  0.1039066E+00
         21   -1    0    0  503  502  0.00000000000E+00  0.00000000000E+00  0.61770762799E+03  0.61770762799E+03  0.00000000000E+00 0. -1.
          2   -1    0    0  502    0 -0.00000000000E+00 -0.00000000000E+00 -0.67239150002E+03  0.67239150002E+03  0.00000000000E+00 0. -1.
         24    2    1    2    0    0 -0.22681854371E+03 -0.65895063099E+02 -0.18953826977E+03  0.31281694756E+03  0.78363740743E+02 0.  0.
         23    2    1    2    0    0 -0.13953557695E+03  0.11351383149E+02 -0.18190074329E+03  0.24705659481E+03  0.91378605248E+02 0.  0.
        -13    1    3    3    0    0 -0.25604824969E+02 -0.36354202169E+02 -0.23616323068E+02  0.50348443792E+02  0.00000000000E+00 0.  1.
         14    1    3    3    0    0 -0.20121371874E+03 -0.29540860930E+02 -0.16592194670E+03  0.26246850377E+03  0.00000000000E+00 0. -1.
        -11    1    4    4    0    0 -0.83284242772E+02 -0.14049277624E+02 -0.42387457224E+02  0.94500496432E+02  0.00000000000E+00 0.  1.
         11    1    4    4    0    0 -0.56251334175E+02  0.25400660773E+02 -0.13951328606E+03  0.15255609838E+03  0.00000000000E+00 0. -1.
         21    1    1    2  503  501  0.17379710149E+03  0.22013867832E+03  0.37634165856E+03  0.46936075054E+03  0.00000000000E+00 0. -1.
          1    1    1    2  501    0  0.19255701916E+03 -0.16559499837E+03 -0.59586517535E+02  0.26086483509E+03  0.00000000000E+00 0. -1.
<scales pt_clust_5="13000.00000" pt_clust_6="13000.00000" pt_clust_7="13000.00000" pt_clust_8="13000.00000" pt_clust_9="259.68782" pt_clust_10="13000.00000"></scales>
<clustering>
<clus scale="   78.364">  5  6 -1 -1</clus>
<clus scale="   91.379">  7  8 -1 -1</clus>
<clus scale="  248.857">  2  5  1 -1</clus>
<clus scale="  218.281">  7 10 -1 -1</clus>
<clus scale="  259.688">  1  9  2 -1</clus>
<clus scale="  259.688">  1  5  2 -1</clus>
</clustering>
</event>
<event>
10    4  0.2759992E-005  0.1245620E+04  0.7546771E-02  0.9608539E-01
          2   -1    0    0  503    0 -0.00000000000E+00  0.00000000000E+00  0.70980126087E+03  0.70980126087E+03  0.00000000000E+00 0. -1.
         21   -1    0    0  501  502  0.00000000000E+00 -0.00000000000E+00 -0.13750595486E+04  0.13750595486E+04  0.00000000000E+00 0. -1.
         24    2    1    2    0    0  0.14689001771E+03  0.62989242411E+02 -0.29238306631E+02  0.18175202007E+03  0.81453031024E+02 0.  0.
         23    2    1    2    0    0  0.44645391607E+03 -0.95831318930E+02 -0.22750358336E+03  0.51854619126E+03  0.92884504391E+02 0.  0.
        -11    1    3    3    0    0  0.94030070801E+02  0.87623094229E+00  0.29216852526E+01  0.94079531463E+02  0.00000000000E+00 0.  1.
         12    1    3    3    0    0  0.52859946910E+02  0.62113011469E+02 -0.32159991883E+02  0.87672488609E+02  0.00000000000E+00 0. -1.
        -11    1    4    4    0    0  0.27139924603E+03 -0.85072357649E+02 -0.99133766222E+02  0.30120152786E+03  0.00000000000E+00 0.  1.
         11    1    4    4    0    0  0.17505467005E+03 -0.10758961281E+02 -0.12836981714E+03  0.21734466339E+03  0.00000000000E+00 0. -1.
         21    1    1    2  503  502  0.13518025170E+03  0.16907191085E+03 -0.58407793697E+03  0.62290131477E+03  0.00000000000E+00 0. -1.
          1    1    1    2  501    0 -0.72852418549E+03 -0.13622983434E+03  0.17556153919E+03  0.76166128341E+03  0.00000000000E+00 0. -1.
<scales pt_clust_5="13000.00000" pt_clust_6="13000.00000" pt_clust_7="13000.00000" pt_clust_8="13000.00000" pt_clust_9="220.79948" pt_clust_10="13000.00000"></scales>
<clustering>
<clus scale="   81.453">  5  6 -1 -1</clus>
<clus scale="   92.885">  7  8 -1 -1</clus>
<clus scale="  179.385">  1  5  2 -1</clus>
<clus scale="  220.799">  2  9  1 -1</clus>
<clus scale="  566.952">  7 10 -1 -1</clus>
<clus scale="  220.799">  2  5  1 -1</clus>
</clustering>
</event>
<event>
10    4  0.2759992E-005  0.5519950E+03  0.7546771E-02  0.1043856E+00
         21   -1    0    0  503  502  0.00000000000E+00  0.00000000000E+00  0.16289822316E+03  0.16289822316E+03  0.00000000000E+00 0.  1.
          2   -1    0    0  502    0 -0.00000000000E+00 -0.00000000000E+00 -0.14658890744E+04  0.14658890744E+04  0.00000000000E+00 0. -1.
         24    2    1    2    0    0  0.33423540370E+02  0.11460462331E+03 -0.24110916439E+03  0.28090542776E+03  0.80764332840E+02 0.  0.
         23    2    1    2    0    0 -0.19762684410E+03 -0.16592468477E+03 -0.25999482364E+03  0.37752470195E+03  0.91324814472E+02 0.  0.
        -11    1    3    3    0    0  0.27828278909E+02  0.12162867497E+03 -0.24159517169E+03  0.27191207157E+03  0.00000000000E+00 0.  1.
         12    1    3    3    0    0  0.55952614618E+01 -0.70240516559E+01  0.48600730298E+00  0.89933561916E+01  0.00000000000E+00 0. -1.
        -13    1    4    4    0    0 -0.18063464914E+03 -0.17734691958E+03 -0.23759478132E+03  0.34717731271E+03  0.00000000000E+00 0.  1.
         13    1    4    4    0    0 -0.16992194956E+02  0.11422234806E+02 -0.22400042325E+02  0.30347389238E+02  0.00000000000E+00 0. -1.
         21    1    1    2  503  501  0.13030674859E+02  0.37394914186E+02  0.72649786856E+02  0.82741583406E+02  0.00000000000E+00 0.  1.
          1    1    1    2  501    0  0.15117262887E+03  0.13925147277E+02 -0.87453665003E+03  0.88761558442E+03  0.00000000000E+00 0. -1.
<scales pt_clust_5="13000.00000" pt_clust_6="13000.00000" pt_clust_7="13000.00000" pt_clust_8="13000.00000" pt_clust_9="39.60023" pt_clust_10="13000.00000"></scales>
<clustering>
<clus scale="   39.600">  1  9  2 -1</clus>
<clus scale="   80.764">  5  6 -1 -1</clus>
<clus scale="   91.325">  7  8 -1 -1</clus>
<clus scale="  151.871">  2  5  1 -1</clus>
<clus scale="  211.592">  7 10 -1 -1</clus>
<clus scale="   39.600">  1  5  2 -1</clus>
</clustering>
</event>
<event>
10    4  0.2759992E-005  0.1701105E+03  0.7546771E-02  0.1205757E+00
          2   -1    0    0  502    0 -0.00000000000E+00  0.00000000000E+00  0.94181885878E+02  0.94181885878E+02  0.00000000000E+00 0. -1.
         21   -1    0    0  503  502  0.00000000000E+00 -0.00000000000E+00 -0.34902677571E+03  0.34902677571E+03  0.00000000000E+00 0.  1.
         24    2    1    2    0    0  0.31294447919E+02 -0.21847201717E+02 -0.17882722146E+01  0.90160017316E+02  0.81663872744E+02 0.  0.
         23    2    1    2    0    0  0.12937501342E+02  0.72267450898E+01 -0.97520001575E+02  0.13417954412E+03  0.90963699174E+02 0.  0.
        -13    1    3    3    0    0 -0.14425348163E+02 -0.31428994661E+02  0.18514353509E+02  0.39225676042E+02  0.00000000000E+00 0.  1.
         14    1    3    3    0    0  0.45719796082E+02  0.95817929443E+01 -0.20302625724E+02  0.50934341275E+02  0.00000000000E+00 0. -1.
        -13    1    4    4    0    0 -0.30623644756E+02 -0.84489831098E+01 -0.77466305768E+02  0.83727065296E+02  0.00000000000E+00 0.  1.
         13    1    4    4    0    0  0.43561146098E+02  0.15675728200E+02 -0.20053695806E+02  0.50452478823E+02  0.00000000000E+00 0. -1.
         21    1    1    2  503  501  0.27765291889E+02  0.15070563625E+02 -0.14217313936E+03  0.14564077340E+03  0.00000000000E+00 0.  1.
          1    1    1    2  501    0 -0.71997241150E+02 -0.45010699788E+00 -0.13363476682E+02  0.73228326749E+02  0.00000000000E+00 0. -1.
<scales pt_clust_5="13000.00000" pt_clust_6="13000.00000" pt_clust_7="13000.00000" pt_clust_8="13000.00000" pt_clust_9="31.59167" pt_clust_10="13000.00000"></scales>
<clustering>
<clus scale="   31.592">  2  9  1 -1</clus>
<clus scale="   81.664">  5  6 -1 -1</clus>
<clus scale="   90.964">  7  8 -1 -1</clus>
<clus scale="   66.193">  7 10 -1 -1</clus>
<clus scale="   91.748">  1  5  2 -1</clus>
<clus scale="   31.592">  2  5  1 -1</clus>
</clustering>
</event>
<event>
10    4  0.2759992E-005  0.5070844E+03  0.7546771E-02  0.1062459E+00
          2   -1    0    0  502    0 -0.00000000000E+00  0.00000000000E+00  0.91948947490E+03  0.91948947490E+03  0.00000000000E+00 0. -1.
         21   -1    0    0  503  502  0.00000000000E+00 -0.00000000000E+00 -0.13663682029E+03  0.13663682029E+03  0.00000000000E+00 0. -1.
         24    2    1    2    0    0  0.67582550480E+02  0.21033382614E+02  0.18532042279E+03  0.21793433146E+03  0.90232529677E+02 0.  0.
         23    2    1    2    0    0  0.29777588073E+02 -0.13426820717E+03 -0.63077376496E+01  0.16474042468E+03  0.90470789542E+02 0.  0.
        -11    1    3    3    0    0  0.63922544893E+02  0.34039342727E+02  0.19023766394E+03  0.20355622658E+03  0.00000000000E+00 0.  1.
         12    1    3    3    0    0  0.36600055871E+01 -0.13005960113E+02 -0.49172411497E+01  0.14378104878E+02  0.00000000000E+00 0. -1.
        -11    1    4    4    0    0  0.30873308860E+02 -0.51956225863E+02 -0.43445143679E+02  0.74431788338E+02  0.00000000000E+00 0. -1.
         11    1    4    4    0    0 -0.10957207867E+01 -0.82311981307E+02  0.37137406030E+02  0.90308636339E+02  0.00000000000E+00 0.  1.
         21    1    1    2  503  501 -0.17862368015E+01  0.34418631663E+02 -0.18352299028E+02  0.39046635285E+02  0.00000000000E+00 0. -1.
          1    1    1    2  501    0 -0.95573901752E+02  0.78816192893E+02  0.62219226849E+03  0.63440490377E+03  0.00000000000E+00 0. -1.
<scales pt_clust_5="13000.00000" pt_clust_6="13000.00000" pt_clust_7="13000.00000" pt_clust_8="13000.00000" pt_clust_9="34.46495" pt_clust_10="13000.00000"></scales>
<clustering>
<clus scale="   34.465">  2  9  1 -1</clus>
<clus scale="   90.233">  5  6 -1 -1</clus>
<clus scale="   90.471">  7  8 -1 -1</clus>
<clus scale="  115.590">  1  5  2 -1</clus>
<clus scale="  110.121">  7 10 -1 -1</clus>
<clus scale="   34.465">  2  5  1 -1</clus>
</clustering>
</event>
<event>
10    4  0.2759992E-005  0.3059083E+03  0.7546771E-02  0.1105900E+00
         21   -1    0    0  501  502  0.00000000000E+00  0.00000000000E+00  0.29117432242E+03  0.29117432242E+03  0.00000000000E+00 0.  1.
         -3   -1    0    0    0  501 -0.00000000000E+00 -0.00000000000E+00 -0.42204187270E+03  0.42204187270E+03  0.00000000000E+00 0.  1.
         24    2    1    2    0    0  0.39508676556E+02 -0.12183162355E+03 -0.63056630634E+01  0.15153630807E+03  0.80744109731E+02 0.  0.
         23    2    1    2    0    0 -0.13447337273E+02 -0.60882973524E+02 -0.96755861565E+02  0.13853046512E+03  0.77080643962E+02 0.  0.
        -13    1    3    3    0    0  0.61218719809E+02 -0.80478540426E+02  0.11032488546E+02  0.10171648307E+03  0.00000000000E+00 0.  1.
         14    1    3    3    0    0 -0.21710043253E+02 -0.41353083121E+02 -0.17338151609E+02  0.49819824999E+02  0.00000000000E+00 0. -1.
        -11    1    4    4    0    0 -0.44696787180E+02 -0.29437586836E+02 -0.41716679898E+02  0.67857613314E+02  0.00000000000E+00 0.  1.
         11    1    4    4    0    0  0.31249449907E+02 -0.31445386688E+02 -0.55039181667E+02  0.70672851804E+02  0.00000000000E+00 0. -1.
         21    1    1    2  503  502  0.18712188758E+02 -0.26395437950E+02  0.14477590048E+03  0.14834731717E+03  0.00000000000E+00 0.  1.
         -4    1    1    2    0  503 -0.44773528042E+02  0.20911003502E+03 -0.17258192613E+03  0.27480210477E+03  0.00000000000E+00 0.  1.
<scales pt_clust_5="13000.00000" pt_clust_6="13000.00000" pt_clust_7="13000.00000" pt_clust_8="13000.00000" pt_clust_9="32.35530" pt_clust_10="13000.00000"></scales>
<clustering>
<clus scale="   32.355">  1  9  2 -1</clus>
<clus scale="   77.081">  7  8 -1 -1</clus>
<clus scale="   80.744">  5  6 -1 -1</clus>
<clus scale="  164.801">  2  5  1 -1</clus>
<clus scale="  116.108">  7 10 -1 -1</clus>
<clus scale="   32.355">  1  5  2 -1</clus>
</clustering>
</event>
<event>
10    4  0.2759992E-005  0.1702388E+03  0.7546771E-02  0.1203030E+00
          2   -1    0    0  502    0 -0.00000000000E+00  0.00000000000E+00  0.67681181211E+03  0.67681181211E+03  0.00000000000E+00 0. -1.
         21   -1    0    0  503  502  0.00000000000E+00 -0.00000000000E+00 -0.52691349493E+02  0.52691349493E+02  0.00000000000E+00 0. -1.
         24    2    1    2    0    0 -0.34689425362E+02 -0.37149752678E+02  0.34904019214E+03  0.36175981599E+03  0.80359494629E+02 0.  0.
         23    2    1    2    0    0  0.30326931540E+02  0.25319574254E+02  0.86725487480E+02  0.13267932032E+03  0.92312990660E+02 0.  0.
        -11    1    3    3    0    0 -0.51647500464E+02 -0.38702577284E+01  0.26157580134E+03  0.26665397625E+03  0.00000000000E+00 0.  1.
         12    1    3    3    0    0  0.16958075102E+02 -0.33279494950E+02  0.87464390796E+02  0.95105839740E+02  0.00000000000E+00 0. -1.
        -13    1    4    4    0    0  0.55611943322E+02  0.28555597599E+01  0.81122794022E+02  0.98395884932E+02  0.00000000000E+00 0.  1.
         13    1    4    4    0    0 -0.25285011782E+02  0.22464014494E+02  0.56026934585E+01  0.34283435387E+02  0.00000000000E+00 0. -1.
         21    1    1    2  503  501 -0.15590040896E+01 -0.22181906281E+02 -0.16266245179E+02  0.27551010730E+02  0.00000000000E+00 0. -1.
          1    1    1    2  501    0  0.59214979110E+01  0.34012084706E+02  0.20462102817E+03  0.20751301457E+03  0.00000000000E+00 0. -1.
<scales pt_clust_5="13000.00000" pt_clust_6="13000.00000" pt_clust_7="13000.00000" pt_clust_8="13000.00000" pt_clust_9="22.23662" pt_clust_10="13000.00000"></scales>
<clustering>
<clus scale="   22.237">  2  9  1 -1</clus>
<clus scale="   80.359">  5  6 -1 -1</clus>
<clus scale="   92.313">  7  8 -1 -1</clus>
<clus scale="   33.485">  7 10 -1 -1</clus>
<clus scale="   97.083">  1  5  2 -1</clus>
<clus scale="   22.237">  2  5  1 -1</clus>
</clustering>
</event>
<event>
10    4  0.2759992E-005  0.2588264E+03  0.7546771E-02  0.1151650E+00
         21   -1    0    0  503  502  0.00000000000E+00  0.00000000000E+00  0.27243284602E+03  0.27243284602E+03  0.00000000000E+00 0. -1.
          2   -1    0    0  502    0 -0.00000000000E+00 -0.00000000000E+00 -0.85063839440E+03  0.85063839440E+03  0.00000000000E+00 0. -1.
         24    2    1    2    0    0  0.17034573690E+02  0.30523224187E+02 -0.74160128153E+03  0.74685265302E+03  0.81207023301E+02 0.  0.
         23    2    1    2    0    0  0.32041648365E+02 -0.64927285607E+02 -0.58934472331E+02  0.12485578257E+03  0.82906421739E+02 0.  0.
        -13    1    3    3    0    0  0.33858968618E+02 -0.32230444619E+01 -0.14005607450E+03  0.14412675593E+03  0.00000000000E+00 0.  1.
         14    1    3    3    0    0 -0.16824394929E+02  0.33746268649E+02 -0.60154520703E+03  0.60272589709E+03  0.00000000000E+00 0. -1.
        -13    1    4    4    0    0  0.14553429748E+02 -0.17217882082E+02 -0.69404885255E+02  0.72974624892E+02  0.00000000000E+00 0. -1.
         13    1    4    4    0    0  0.17488218617E+02 -0.47709403525E+02  0.10470412924E+02  0.51881157677E+02  0.00000000000E+00 0.  1.
         21    1    1    2  503  501 -0.10237423316E+02 -0.32497104022E+02  0.10858416557E+03  0.11380416345E+03  0.00000000000E+00 0. -1.
          1    1    1    2  501    0 -0.38838798739E+02  0.66901165442E+02  0.11374603992E+03  0.13755864139E+03  0.00000000000E+00 0. -1.
<scales pt_clust_5="13000.00000" pt_clust_6="13000.00000" pt_clust_7="13000.00000" pt_clust_8="13000.00000" pt_clust_9="34.07149" pt_clust_10="13000.00000"></scales>
<clustering>
<clus scale="   34.071">  1  9  2 -1</clus>
<clus scale="   81.207">  5  6 -1 -1</clus>
<clus scale="   82.906">  7  8 -1 -1</clus>
<clus scale="   62.613">  7 10 -1 -1</clus>
<clus scale="   88.197">  2  5  1 -1</clus>
<clus scale="   34.071">  1  5  2 -1</clus>
</clustering>
</event>
<event>
10    4  0.2759992E-005  0.2786309E+03  0.7546771E-02  0.1121952E+00
         21   -1    0    0  501  502  0.00000000000E+00  0.00000000000E+00  0.15650955133E+03  0.15650955133E+03  0.00000000000E+00 0. -1.
          2   -1    0    0  503    0 -0.00000000000E+00 -0.00000000000E+00 -0.61111901082E+03  0.61111901082E+03  0.00000000000E+00 0. -1.
         24    2    1    2    0    0 -0.10305976451E+03  0.58222565342E+02 -0.34144185561E+03  0.36965361372E+03  0.77782203588E+02 0.  0.
         23    2    1    2    0    0  0.58230835660E+02  0.73293503905E+02 -0.77540062121E+02  0.15183443853E+03  0.90986084392E+02 0.  0.
        -13    1    3    3    0    0 -0.16828907995E+02  0.46681504245E+02 -0.80241958607E+02  0.94345889703E+02  0.00000000000E+00 0.  1.
         14    1    3    3    0    0 -0.86230856511E+02  0.11541061097E+02 -0.26119989701E+03  0.27530772401E+03  0.00000000000E+00 0. -1.
        -13    1    4    4    0    0  0.17862613745E+02  0.24031647954E+02 -0.82682969267E+02  0.87937855785E+02  0.00000000000E+00 0.  1.
         13    1    4    4    0    0  0.40368221915E+02  0.49261855951E+02  0.51429071467E+01  0.63896582743E+02  0.00000000000E+00 0. -1.
         21    1    1    2  503  502 -0.28831338550E+02  0.11184244605E+02  0.54002954446E+02  0.62230639550E+02  0.00000000000E+00 0. -1.
          1    1    1    2  501    0  0.73660267395E+02 -0.14270031385E+03 -0.89630496193E+02  0.18390987035E+03  0.00000000000E+00 0. -1.
<scales pt_clust_5="13000.00000" pt_clust_6="13000.00000" pt_clust_7="13000.00000" pt_clust_8="13000.00000" pt_clust_9="30.92464" pt_clust_10="13000.00000"></scales>
<clustering>
<clus scale="   30.925">  1  9  2 -1</clus>
<clus scale="   77.782">  5  6 -1 -1</clus>
<clus scale="   90.986">  7  8 -1 -1</clus>
<clus scale="  145.326">  2  5  1 -1</clus>
<clus scale="  106.711">  7 10 -1 -1</clus>
<clus scale="   30.925">  1  5  2 -1</clus>
</clustering>
</event>
<event>
10    4  0.2759992E-005  0.4251693E+03  0.7546771E-02  0.1060150E+00
          2   -1    0    0  503    0 -0.00000000000E+00  0.00000000000E+00  0.22017085730E+04  0.22017085730E+04  0.00000000000E+00 0. -1.
         21   -1    0    0  501  502  0.00000000000E+00 -0.00000000000E+00 -0.97908649732E+02  0.97908649732E+02  0.00000000000E+00 0. -1.
         24    2    1    2    0    0 -0.40319319287E+02  0.18170646213E+03  0.45655987511E+03  0.49960151384E+03  0.80696141086E+02 0.  0.
         23    2    1    2    0    0  0.12825799723E+03 -0.26337266283E+03  0.13180533614E+04  0.13528466421E+04  0.84345125827E+02 0.  0.
        -13    1    3    3    0    0 -0.14244164497E+02  0.24675222780E+02  0.19685607154E+02  0.34630708489E+02  0.00000000000E+00 0.  1.
         14    1    3    3    0    0 -0.26075154790E+02  0.15703123935E+03  0.43687426795E+03  0.46497080535E+03  0.00000000000E+00 0. -1.
        -13    1    4    4    0    0  0.12759482272E+03 -0.18455482430E+03  0.91012760327E+03  0.93737568573E+03  0.00000000000E+00 0. -1.
         13    1    4    4    0    0  0.66317451091E+00 -0.78817838531E+02  0.40792575809E+03  0.41547095637E+03  0.00000000000E+00 0.  1.
         21    1    1    2  503  502  0.14373607929E+02  0.18511864128E+02 -0.46846169737E+02  0.52381803495E+02  0.00000000000E+00 0. -1.
          1    1    1    2  501    0 -0.10231228587E+03  0.63154336576E+02  0.37603285651E+03  0.39478726328E+03  0.00000000000E+00 0. -1.
<scales pt_clust_5="13000.00000" pt_clust_6="13000.00000" pt_clust_7="13000.00000" pt_clust_8="13000.00000" pt_clust_9="23.43693" pt_clust_10="13000.00000"></scales>
<clustering>
<clus scale="   23.437">  2  9  1 -1</clus>
<clus scale="   80.696">  5  6 -1 -1</clus>
<clus scale="   84.345">  7  8 -1 -1</clus>
<clus scale="  119.833">  7 10 -1 -1</clus>
<clus scale="  209.154">  1  5  2 -1</clus>
<clus scale="   23.437">  2  5  1 -1</clus>
</clustering>
</event>
<event>
10    4  0.2759992E-005  0.2510953E+03  0.7546771E-02  0.1139036E+00
          2   -1    0    0  503    0 -0.00000000000E+00  0.00000000000E+00  0.80619377845E+03  0.80619377845E+03  0.00000000000E+00 0. -1.
         21   -1    0    0  501  502  0.00000000000E+00 -0.00000000000E+00 -0.82407898062E+02  0.82407898062E+02  0.00000000000E+00 0. -1.
         24    2    1    2    0    0  0.33429626707E+02 -0.87019752782E+02  0.36556487508E+03  0.38577667127E+03  0.80597672972E+02 0.  0.
         23    2    1    2    0    0  0.59653790957E+02  0.16021183922E+02  0.18790291437E+03  0.21785430608E+03  0.91311227875E+02 0.  0.
        -13    1    3    3    0    0  0.48833107590E+02 -0.62411458423E+02  0.33232904503E+03  0.34164668403E+03  0.00000000000E+00 0.  1.
         14    1    3    3    0    0 -0.15403480883E+02 -0.24608294360E+02  0.33235830049E+02  0.44129987238E+02  0.00000000000E+00 0. -1.
        -13    1    4    4    0    0  0.67282960302E+01 -0.29832399873E+02  0.10485492660E+03  0.10922361321E+03  0.00000000000E+00 0.  1.
         13    1    4    4    0    0  0.52925494926E+02  0.45853583794E+02  0.83047987772E+02  0.10863069287E+03  0.00000000000E+00 0. -1.
         21    1    1    2  503  502 -0.17246837991E+02 -0.66832885095E+02  0.34637857708E+02  0.77226091041E+02  0.00000000000E+00 0. -1.
          1    1    1    2  501    0 -0.75836579673E+02  0.13783145396E+03  0.13568023322E+03  0.20774460812E+03  0.00000000000E+00 0. -1.
<scales pt_clust_5="13000.00000" pt_clust_6="13000.00000" pt_clust_7="13000.00000" pt_clust_8="13000.00000" pt_clust_9="69.02237" pt_clust_10="13000.00000"></scales>
<clustering>
<clus scale="   69.022">  2  9  1 -1</clus>
<clus scale="   80.598">  5  6 -1 -1</clus>
<clus scale="   91.311">  7  8 -1 -1</clus>
<clus scale="  130.572">  1  5  2 -1</clus>
<clus scale="   94.465">  7 10 -1 -1</clus>
<clus scale="   69.022">  2  5  1 -1</clus>
</clustering>
</event>
<event>
10    4  0.2759992E-005  0.1288265E+03  0.7546771E-02  0.1248031E+00
          2   -1    0    0  503    0 -0.00000000000E+00  0.00000000000E+00  0.76206679824E+03  0.76206679824E+03  0.00000000000E+00 0. -1.
         21   -1    0    0  501  502  0.00000000000E+00 -0.00000000000E+00 -0.14707832932E+03  0.14707832932E+03  0.00000000000E+00 0. -1.
         24    2    1    2    0    0  0.11323799145E+02 -0.14775397387E+02  0.49418584918E+03  0.50197597327E+03  0.86102749137E+02 0.  0.
         23    2    1    2    0    0 -0.49618809306E+02 -0.10443916073E+01  0.19456428103E+03  0.22120382760E+03  0.92804940073E+02 0.  0.
        -13    1    3    3    0    0 -0.31689369180E+02  0.11392349464E+02  0.12844560284E+03  0.13278657551E+03  0.00000000000E+00 0.  1.
         14    1    3    3    0    0  0.43013168325E+02 -0.26167746851E+02  0.36574024634E+03  0.36918939776E+03  0.00000000000E+00 0. -1.
        -13    1    4    4    0    0  0.25132622851E+02 -0.10139707852E+02  0.31247910322E+02  0.41362958141E+02  0.00000000000E+00 0.  1.
         13    1    4    4    0    0 -0.74751432157E+02  0.90953162449E+01  0.16331637071E+03  0.17984086946E+03  0.00000000000E+00 0. -1.
         21    1    1    2  503  502  0.14732867912E+02  0.25345607514E+02 -0.12520236323E+03  0.12858883690E+03  0.00000000000E+00 0. -1.
          1    1    1    2  501    0  0.23562142249E+02 -0.95258185193E+01  0.51440701939E+02  0.57376489800E+02  0.00000000000E+00 0. -1.
<scales pt_clust_5="13000.00000" pt_clust_6="13000.00000" pt_clust_7="13000.00000" pt_clust_8="13000.00000" pt_clust_9="29.31650" pt_clust_10="13000.00000"></scales>
<clustering>
<clus scale="   29.317">  2  9  1 -1</clus>
<clus scale="   86.103">  5  6 -1 -1</clus>
<clus scale="   87.818">  1  5  2 -1</clus>
<clus scale="   92.805">  7  8 -1 -1</clus>
<clus scale="   30.096">  7 10 -1 -1</clus>
<clus scale="   29.317">  2  5  1 -1</clus>
</clustering>
</event>
<event>
10    4  0.2759992E-005  0.1276163E+04  0.7546771E-02  0.9570572E-01
         21   -1    0    0  503  502  0.00000000000E+00  0.00000000000E+00  0.15399425022E+04  0.15399425022E+04  0.00000000000E+00 0. -1.
          2   -1    0    0  502    0 -0.00000000000E+00 -0.00000000000E+00 -0.47179893295E+03  0.47179893295E+03  0.00000000000E+00 0. -1.
         24    2    1    2    0    0  0.10570483969E+03 -0.13504005734E+03 -0.98572784301E+02  0.21360965382E+03  0.80642173697E+02 0.  0.
         23    2    1    2    0    0  0.12227491272E+02 -0.23734656908E+03 -0.22577825527E+03  0.34039262939E+03  0.91697416514E+02 0.  0.
        -13    1    3    3    0    0  0.61031332341E+02 -0.42602583954E+02 -0.80013226949E+02  0.10927909303E+03  0.00000000000E+00 0.  1.
         14    1    3    3    0    0  0.44673507349E+02 -0.92437473385E+02 -0.18559557352E+02  0.10433056078E+03  0.00000000000E+00 0. -1.
        -11    1    4    4    0    0 -0.16248597538E+02 -0.95347020452E+02 -0.39592246017E+02  0.10451132559E+03  0.00000000000E+00 0.  1.
         11    1    4    4    0    0  0.28476088810E+02 -0.14199954863E+03 -0.18618600925E+03  0.23588130381E+03  0.00000000000E+00 0. -1.
         21    1    1    2  503  501  0.27807269458E+02  0.44996114734E+01  0.18311934923E+03  0.18527327600E+03  0.00000000000E+00 0.  1.
          1    1    1    2  501    0 -0.14573960042E+03  0.36788701495E+03  0.12093752596E+04  0.12724658759E+04  0.00000000000E+00 0. -1.
<scales pt_clust_5="13000.00000" pt_clust_6="13000.00000" pt_clust_7="13000.00000" pt_clust_8="13000.00000" pt_clust_9="28.16897" pt_clust_10="13000.00000"></scales>
<clustering>
<clus scale="   28.169">  1  9  2 -1</clus>
<clus scale="   80.642">  5  6 -1 -1</clus>
<clus scale="   91.697">  7  8 -1 -1</clus>
<clus scale="  190.031">  2  5  1 -1</clus>
<clus scale="  374.721">  7 10 -1 -1</clus>
<clus scale="   28.169">  1  5  2 -1</clus>
</clustering>
</event>
<event>
10    4  0.2759992E-005  0.2611897E+03  0.7546771E-02  0.1152715E+00
          2   -1    0    0  502    0 -0.00000000000E+00  0.00000000000E+00  0.10748901109E+04  0.10748901109E+04  0.00000000000E+00 0. -1.
         21   -1    0    0  503  502  0.00000000000E+00 -0.00000000000E+00 -0.10381626028E+03  0.10381626028E+03  0.00000000000E+00 0.  1.
         24    2    1    2    0    0 -0.21500547058E+02  0.23913650890E+02  0.18858457667E+03  0.20792128381E+03  0.81443118064E+02 0.  0.
         23    2    1    2    0    0  0.56011388842E+02 -0.89583279757E+02  0.35105916776E+03  0.37705914591E+03  0.88139778500E+02 0.  0.
        -13    1    3    3    0    0  0.15780368258E+02  0.17449151857E+02  0.10328622367E+02  0.25693839006E+02  0.00000000000E+00 0.  1.
         14    1    3    3    0    0 -0.37280915316E+02  0.64644990328E+01  0.17825595430E+03  0.18222744480E+03  0.00000000000E+00 0. -1.
        -11    1    4    4    0    0  0.41905497949E+02 -0.70606137944E+02  0.34203257980E+03  0.35174931858E+03  0.00000000000E+00 0.  1.
         11    1    4    4    0    0  0.14105890893E+02 -0.18977141813E+02  0.90265879524E+01  0.25309827327E+02  0.00000000000E+00 0. -1.
         21    1    1    2  503  501  0.48288153618E+02 -0.16672253542E+02 -0.65610135925E+02  0.83152869789E+02  0.00000000000E+00 0.  1.
          1    1    1    2  501    0 -0.82798995402E+02  0.82341882409E+02  0.49704024212E+03  0.51057307168E+03  0.00000000000E+00 0. -1.
<scales pt_clust_5="13000.00000" pt_clust_6="13000.00000" pt_clust_7="13000.00000" pt_clust_8="13000.00000" pt_clust_9="51.08532" pt_clust_10="13000.00000"></scales>
<clustering>
<clus scale="   51.085">  2  9  1 -1</clus>
<clus scale="   81.443">  5  6 -1 -1</clus>
<clus scale="   83.694">  1  5  2 -1</clus>
<clus scale="   88.140">  7  8 -1 -1</clus>
<clus scale="  114.788">  7 10 -1 -1</clus>
<clus scale="   51.085">  2  5  1 -1</clus>
</clustering>
</event>
<event>
10    4  0.2759992E-005  0.1883560E+03  0.7546771E-02  0.1186469E+00
          2   -1    0    0  503    0 -0.00000000000E+00  0.00000000000E+00  0.83496428966E+03  0.83496428966E+03  0.00000000000E+00 0. -1.
         21   -1    0    0  501  502  0.00000000000E+00 -0.00000000000E+00 -0.45646011198E+02  0.45646011198E+02  0.00000000000E+00 0. -1.
         24    2    1    2    0    0 -0.20389326425E+02  0.58497976049E+02  0.31059743814E+03  0.32733767257E+03  0.82713030836E+02 0.  0.
         23    2    1    2    0    0  0.26083574971E+02 -0.81544229795E+02  0.47471676255E+03  0.49115781503E+03  0.92467185097E+02 0.  0.
        -11    1    3    3    0    0 -0.34177313190E+02  0.69932977109E+02  0.28889648899E+03  0.29919874895E+03  0.00000000000E+00 0.  1.
         12    1    3    3    0    0  0.13787986765E+02 -0.11435001060E+02  0.21700949148E+02  0.28138923615E+02  0.00000000000E+00 0. -1.
        -11    1    4    4    0    0  0.45392708171E+02 -0.12900152710E+02  0.27664799370E+03  0.28064394580E+03  0.00000000000E+00 0.  1.
         11    1    4    4    0    0 -0.19309133200E+02 -0.68644077085E+02  0.19806876885E+03  0.21051386923E+03  0.00000000000E+00 0. -1.
         21    1    1    2  503  502  0.20159016473E+02  0.42247457631E+01 -0.14480830346E+02  0.25177944106E+02  0.00000000000E+00 0. -1.
          1    1    1    2  501    0 -0.25853265019E+02  0.18821507983E+02  0.18484908119E+02  0.36936869156E+02  0.00000000000E+00 0. -1.
<scales pt_clust_5="13000.00000" pt_clust_6="13000.00000" pt_clust_7="13000.00000" pt_clust_8="13000.00000" pt_clust_9="20.59695" pt_clust_10="13000.00000"></scales>
<clustering>
<clus scale="   20.597">  2  9  1 -1</clus>
<clus scale="   82.713">  5  6 -1 -1</clus>
<clus scale="   92.467">  7  8 -1 -1</clus>
<clus scale="   27.589">  7 10 -1 -1</clus>
<clus scale="  103.041">  1  5  2 -1</clus>
<clus scale="   20.597">  2  5  1 -1</clus>
</clustering>
</event>
<event>
10    4  0.2759992E-005  0.2542593E+03  0.7546771E-02  0.1124536E+00
          2   -1    0    0  503    0 -0.00000000000E+00  0.00000000000E+00  0.18069605038E+04  0.18069605038E+04  0.00000000000E+00 0. -1.
         21   -1    0    0  501  502  0.00000000000E+00 -0.00000000000E+00 -0.57485562251E+02  0.57485562251E+02  0.00000000000E+00 0. -1.
         24    2    1    2    0    0  0.14545961233E+02  0.15799700580E+03  0.12621859783E+04  0.12746185251E+04  0.79776574876E+02 0.  0.
         23    2    1    2    0    0  0.84639471605E+01 -0.41820741516E+02  0.87815080002E+02  0.13248666679E+03  0.89557890661E+02 0.  0.
        -11    1    3    3    0    0 -0.29207722560E+02  0.43088361265E+02  0.28354894307E+03  0.28828753190E+03  0.00000000000E+00 0.  1.
         12    1    3    3    0    0  0.43753683792E+02  0.11490864453E+03  0.97863703524E+03  0.98633099322E+03  0.00000000000E+00 0. -1.
        -11    1    4    4    0    0 -0.23623343961E+02 -0.66117076690E+01  0.80669417414E+02  0.84316854567E+02  0.00000000000E+00 0.  1.
         11    1    4    4    0    0  0.32087291122E+02 -0.35209033847E+02  0.71456625879E+01  0.48169812225E+02  0.00000000000E+00 0. -1.
         21    1    1    2  503  502 -0.25148638538E+02  0.14253845213E+02 -0.75892252390E+01  0.29886827590E+02  0.00000000000E+00 0. -1.
          1    1    1    2  501    0  0.21387301450E+01 -0.13043010949E+03  0.40706310845E+03  0.42745404652E+03  0.00000000000E+00 0. -1.
<scales pt_clust_5="13000.00000" pt_clust_6="13000.00000" pt_clust_7="13000.00000" pt_clust_8="13000.00000" pt_clust_9="28.90720" pt_clust_10="13000.00000"></scales>
<clustering>
<clus scale="   28.907">  2  9  1 -1</clus>
<clus scale="   79.777">  5  6 -1 -1</clus>
<clus scale="   89.558">  7  8 -1 -1</clus>
<clus scale="  126.759">  7 10 -1 -1</clus>
<clus scale="  179.348">  1  5  2 -1</clus>
<clus scale="   28.907">  2  5  1 -1</clus>
</clustering>
</event>
<event>
10    4  0.2759992E-005  0.2752704E+03  0.7546771E-02  0.1110829E+00
         21   -1    0    0  501  502  0.00000000000E+00  0.00000000000E+00  0.20892751026E+03  0.20892751026E+03  0.00000000000E+00 0. -1.
          2   -1    0    0  503    0 -0.00000000000E+00 -0.00000000000E+00 -0.45786226198E+03  0.45786226198E+03  0.00000000000E+00 0. -1.
         24    2    1    2    0    0  0.15826508457E+03  0.62930429256E+02  0.64872399352E+02  0.19935486834E+03  0.80782791564E+02 0.  0.
         23    2    1    2    0    0 -0.16234848470E+02  0.19733607930E+02 -0.98834261863E+02  0.13679358616E+03  0.91056511621E+02 0.  0.
        -11    1    3    3    0    0  0.19733504587E+02 -0.16696198867E+02 -0.24522239199E+01  0.25965123956E+02  0.00000000000E+00 0.  1.
         12    1    3    3    0    0  0.13853157999E+03  0.79626628123E+02  0.67324623272E+02  0.17338974439E+03  0.00000000000E+00 0. -1.
        -13    1    4    4    0    0 -0.14223578688E+02 -0.35437490193E+02 -0.30034283486E+02  0.48581725848E+02  0.00000000000E+00 0.  1.
         13    1    4    4    0    0 -0.20112697822E+01  0.55171098123E+02 -0.68799978377E+02  0.88211860308E+02  0.00000000000E+00 0. -1.
         21    1    1    2  503  502  0.91408585015E+01  0.20536636389E+02  0.21836533866E+02  0.31339159841E+02  0.00000000000E+00 0.  1.
          1    1    1    2  501    0 -0.15117109460E+03 -0.10320067357E+03 -0.23680942307E+03  0.29930215790E+03  0.00000000000E+00 0. -1.
<scales pt_clust_5="13000.00000" pt_clust_6="13000.00000" pt_clust_7="13000.00000" pt_clust_8="13000.00000" pt_clust_9="22.47907" pt_clust_10="13000.00000"></scales>
<clustering>
<clus scale="   22.479">  1  9  2 -1</clus>
<clus scale="   80.783">  5  6 -1 -1</clus>
<clus scale="   91.057">  7  8 -1 -1</clus>
<clus scale="  179.772">  7 10 -1 -1</clus>
<clus scale="  199.420">  2  5  1 -1</clus>
<clus scale="   22.479">  1  5  2 -1</clus>
</clustering>
</event>
<event>
10    4  0.2759992E-005  0.2222863E+03  0.7546771E-02  0.1153801E+00
          4   -1    0    0  502    0 -0.00000000000E+00  0.00000000000E+00  0.64248909538E+03  0.64248909538E+03  0.00000000000E+00 0. -1.
         21   -1    0    0  503  502  0.00000000000E+00 -0.00000000000E+00 -0.18175236843E+03  0.18175236843E+03  0.00000000000E+00 0. -1.
         24    2    1    2    0    0  0.10979380662E+03 -0.38594529419E+02  0.77964135041E+01  0.14029310692E+03  0.77956103747E+02 0.  0.
         23    2    1    2    0    0  0.18970948627E+02 -0.47570825962E+02  0.15770404724E+03  0.18938429603E+03  0.91503905346E+02 0.  0.
        -11    1    3    3    0    0  0.98132431223E+02 -0.32275674136E+02  0.35780553900E+02  0.10932493419E+03  0.00000000000E+00 0.  1.
         12    1    3    3    0    0  0.11661375401E+02 -0.63188552830E+01 -0.27984140396E+02  0.30968172727E+02  0.00000000000E+00 0. -1.
        -13    1    4    4    0    0 -0.22250148099E+02 -0.13922450551E+02  0.37742589380E+01  0.26516952131E+02  0.00000000000E+00 0. -1.
         13    1    4    4    0    0  0.41221096726E+02 -0.33648375411E+02  0.15392978830E+03  0.16286734390E+03  0.00000000000E+00 0.  1.
         21    1    1    2  503  501 -0.20274165516E+02  0.12063596111E+03 -0.49164466970E+02  0.13183786146E+03  0.00000000000E+00 0. -1.
          3    1    1    2  501    0 -0.10849058973E+03 -0.34470605733E+02  0.34440073318E+03  0.36272619940E+03  0.00000000000E+00 0. -1.
<scales pt_clust_5="13000.00000" pt_clust_6="13000.00000" pt_clust_7="13000.00000" pt_clust_8="13000.00000" pt_clust_9="122.32774" pt_clust_10="13000.00000"></scales>
<clustering>
<clus scale="   77.956">  5  6 -1 -1</clus>
<clus scale="   91.504">  7  8 -1 -1</clus>
<clus scale="  113.835">  7 10 -1 -1</clus>
<clus scale="  122.328">  2  9  1 -1</clus>
<clus scale="  132.348">  1  5  2 -1</clus>
<clus scale="  122.328">  2  5  1 -1</clus>
</clustering>
</event>
<event>
10    4  0.2759992E-005  0.5421095E+03  0.7546771E-02  0.1038616E+00
         -3   -1    0    0    0  501 -0.00000000000E+00  0.00000000000E+00  0.23036340741E+03  0.23036340741E+03  0.00000000000E+00 0.  1.
         21   -1    0    0  501  502  0.00000000000E+00 -0.00000000000E+00 -0.89359972430E+03  0.89359972430E+03  0.00000000000E+00 0.  1.
         24    2    1    2    0    0  0.27562813080E+01 -0.19165473749E+03 -0.20163522326E+03  0.29000922496E+03  0.81911243530E+02 0.  0.
         23    2    1    2    0    0 -0.17587846733E+03  0.28303850148E+03 -0.20059694260E+03  0.39959314528E+03  0.91605238866E+02 0.  0.
        -13    1    3    3    0    0 -0.30634490028E+02 -0.84530172665E+02 -0.12560714926E+03  0.15446999066E+03  0.00000000000E+00 0.  1.
         14    1    3    3    0    0  0.33390771336E+02 -0.10712456483E+03 -0.76028074002E+02  0.13553923430E+03  0.00000000000E+00 0. -1.
        -13    1    4    4    0    0 -0.13038910190E+03  0.12320022224E+03 -0.10185617910E+03  0.20628692124E+03  0.00000000000E+00 0.  1.
         13    1    4    4    0    0 -0.45489365431E+02  0.15983827923E+03 -0.98740763503E+02  0.19330622404E+03  0.00000000000E+00 0. -1.
         21    1    1    2  503  502  0.12318943579E+03  0.91335915811E+02 -0.82752352598E+02  0.17425796529E+03  0.00000000000E+00 0.  1.
         -4    1    1    2    0  503  0.49932750236E+02 -0.18271967980E+03 -0.17825179843E+03  0.26010279617E+03  0.00000000000E+00 0.  1.
<scales pt_clust_5="13000.00000" pt_clust_6="13000.00000" pt_clust_7="13000.00000" pt_clust_8="13000.00000" pt_clust_9="153.35550" pt_clust_10="13000.00000"></scales>
<clustering>
<clus scale="   81.911">  5  6 -1 -1</clus>
<clus scale="   91.605">  7  8 -1 -1</clus>
<clus scale="  153.356">  2  9  1 -1</clus>
<clus scale="  178.248">  7 10 -1 -1</clus>
<clus scale="  186.671">  1  5  2 -1</clus>
<clus scale="  153.356">  2  5  1 -1</clus>
</clustering>
</event>
<event>
10    4  0.2759992E-005  0.2733192E+03  0.7546771E-02  0.1139788E+00
         21   -1    0    0  503  502  0.00000000000E+00  0.00000000000E+00  0.16624683706E+03  0.16624683706E+03  0.00000000000E+00 0. -1.
          2   -1    0    0  502    0 -0.00000000000E+00 -0.00000000000E+00 -0.78484853482E+03  0.78484853482E+03  0.00000000000E+00 0. -1.
         24    2    1    2    0    0  0.93351838370E+00 -0.58877133306E+02 -0.20619003803E+03  0.22890723908E+03  0.80104956395E+02 0.  0.
         23    2    1    2    0    0  0.10688180892E+03  0.77627300657E+02 -0.30880259811E+03  0.34892785215E+03  0.94561527708E+02 0.  0.
        -13    1    3    3    0    0  0.25548211981E+02 -0.26361798429E+02 -0.17144613104E+03  0.17533234556E+03  0.00000000000E+00 0.  1.
         14    1    3    3    0    0 -0.24614693597E+02 -0.32515334877E+02 -0.34743906995E+02  0.53574893526E+02  0.00000000000E+00 0. -1.
        -11    1    4    4    0    0  0.11627654335E+03  0.52804940220E+02 -0.28853662368E+03  0.31553443465E+03  0.00000000000E+00 0.  1.
         11    1    4    4    0    0 -0.93947344335E+01  0.24822360436E+02 -0.20265974426E+02  0.33393417497E+02  0.00000000000E+00 0. -1.
         21    1    1    2  503  501 -0.21683848925E+03 -0.89169902683E+01  0.76802088960E+01  0.21715761268E+03  0.00000000000E+00 0. -1.
          1    1    1    2  501    0  0.10902316195E+03 -0.98331770822E+01 -0.11128927051E+03  0.15610266796E+03  0.00000000000E+00 0. -1.
<scales pt_clust_5="13000.00000" pt_clust_6="13000.00000" pt_clust_7="13000.00000" pt_clust_8="13000.00000" pt_clust_9="217.56781" pt_clust_10="13000.00000"></scales>
<clustering>
<clus scale="   80.105">  5  6 -1 -1</clus>
<clus scale="   94.562">  7  8 -1 -1</clus>
<clus scale="   99.419">  2  5  1 -1</clus>
<clus scale="  111.786">  7 10 -1 -1</clus>
<clus scale="  217.568">  1  9  2 -1</clus>
<clus scale="  217.568">  1  5  2 -1</clus>
</clustering>
</event>
<event>
10    4  0.2759992E-005  0.1897425E+03  0.7546771E-02  0.1190765E+00
         21   -1    0    0  501  502  0.00000000000E+00  0.00000000000E+00  0.57215269552E+02  0.57215269552E+02  0.00000000000E+00 0.  1.
          2   -1    0    0  503    0 -0.00000000000E+00 -0.00000000000E+00 -0.49314273024E+03  0.49314273024E+03  0.00000000000E+00 0. -1.
         24    2    1    2    0    0  0.41428122877E+02  0.14682816824E+02 -0.19488842508E+03  0.21590552882E+03  0.81864672906E+02 0.  0.
         23    2    1    2    0    0 -0.30328105055E+02 -0.58219654683E+02 -0.73010603114E+02  0.13380590902E+03  0.90907375796E+02 0.  0.
        -11    1    3    3    0    0  0.12641961185E+01  0.38776612604E+02 -0.13141611732E+03  0.13702342780E+03  0.00000000000E+00 0.  1.
         12    1    3    3    0    0  0.40163926759E+02 -0.24093795780E+02 -0.63472307762E+02  0.78882101014E+02  0.00000000000E+00 0. -1.
        -11    1    4    4    0    0 -0.52963669805E+02 -0.68877259915E+02 -0.60148070483E+02  0.10567411053E+03  0.00000000000E+00 0.  1.
         11    1    4    4    0    0  0.22635564750E+02  0.10657605232E+02 -0.12862532630E+02  0.28131798494E+02  0.00000000000E+00 0. -1.
         21    1    1    2  503  502 -0.17195904736E+02  0.12602291853E+02  0.72779256395E+01  0.22527429974E+02  0.00000000000E+00 0.  1.
          1    1    1    2  501    0  0.60958869137E+01  0.30934546007E+02 -0.17530635814E+03  0.17811913198E+03  0.00000000000E+00 0. -1.
<scales pt_clust_5="13000.00000" pt_clust_6="13000.00000" pt_clust_7="13000.00000" pt_clust_8="13000.00000" pt_clust_9="21.31940" pt_clust_10="13000.00000"></scales>
<clustering>
<clus scale="   21.319">  1  9  2 -1</clus>
<clus scale="   81.865">  5  6 -1 -1</clus>
<clus scale="   90.907">  7  8 -1 -1</clus>
<clus scale="   31.836">  7 10 -1 -1</clus>
<clus scale="   91.650">  2  5  1 -1</clus>
<clus scale="   21.319">  1  5  2 -1</clus>
</clustering>
</event>
<event>
10    4  0.2759992E-005  0.3107672E+03  0.7546771E-02  0.1111404E+00
         21   -1    0    0  501  502  0.00000000000E+00  0.00000000000E+00  0.91693573722E+02  0.91693573722E+02  0.00000000000E+00 0. -1.
          2   -1    0    0  503    0 -0.00000000000E+00 -0.00000000000E+00 -0.16212900871E+04  0.16212900871E+04  0.00000000000E+00 0. -1.
         24    2    1    2    0    0  0.40517197037E+02 -0.10236862994E+03 -0.10430533318E+03  0.17185530137E+03  0.80831073411E+02 0.  0.
         23    2    1    2    0    0 -0.18086168206E+02  0.89696547132E-02 -0.28193144933E+03  0.29706054775E+03  0.91828739230E+02 0.  0.
        -11    1    3    3    0    0  0.33136656693E+02 -0.34175523490E+01 -0.45906424441E+02  0.56719639331E+02  0.00000000000E+00 0.  1.
         12    1    3    3    0    0  0.73805403441E+01 -0.98951077587E+02 -0.58398908735E+02  0.11513566204E+03  0.00000000000E+00 0. -1.
        -11    1    4    4    0    0 -0.51796360726E+02  0.16282721859E+02 -0.13683900018E+03  0.14721719324E+03  0.00000000000E+00 0.  1.
         11    1    4    4    0    0  0.33710192521E+02 -0.16273752205E+02 -0.14509244916E+03  0.14984335452E+03  0.00000000000E+00 0. -1.
         21    1    1    2  503  502  0.17681357542E+00  0.26419066726E+03 -0.37620010052E+03  0.45969909241E+03  0.00000000000E+00 0. -1.
          1    1    1    2  501    0 -0.22607842407E+02 -0.16183100698E+03 -0.76715963039E+03  0.78436871933E+03  0.00000000000E+00 0. -1.
<scales pt_clust_5="13000.00000" pt_clust_6="13000.00000" pt_clust_7="13000.00000" pt_clust_8="13000.00000" pt_clust_9="235.62991" pt_clust_10="13000.00000"></scales>
<clustering>
<clus scale="   80.831">  5  6 -1 -1</clus>
<clus scale="   91.829">  7  8 -1 -1</clus>
<clus scale="  136.582">  2  5  1 -1</clus>
<clus scale="  215.378">  7 10 -1 -1</clus>
<clus scale="  235.630">  1  9  2 -1</clus>
<clus scale="  235.630">  1  5  2 -1</clus>
</clustering>
</event>
<event>
10    4  0.2759992E-005  0.3389377E+03  0.7546771E-02  0.1112243E+00
         21   -1    0    0  503  502  0.00000000000E+00  0.00000000000E+00  0.23988159484E+03  0.23988159484E+03  0.00000000000E+00 0.  1.
         -1   -1    0    0    0  501 -0.00000000000E+00 -0.00000000000E+00 -0.27153144573E+03  0.27153144573E+03  0.00000000000E+00 0.  1.
         24    2    1    2    0    0 -0.58745110487E+02 -0.19211730825E+02  0.46455669715E+02  0.11174847510E+03  0.80681558190E+02 0.  0.
         23    2    1    2    0    0 -0.36455191583E+02  0.15669052566E+03 -0.91110527439E+02  0.20691247587E+03  0.92901790266E+02 0.  0.
        -11    1    3    3    0    0 -0.39551610759E+02 -0.49557260506E+02  0.40804018408E+02  0.75400397219E+02  0.00000000000E+00 0.  1.
         12    1    3    3    0    0 -0.19193499728E+02  0.30345529681E+02  0.56516513076E+01  0.36348077885E+02  0.00000000000E+00 0. -1.
        -11    1    4    4    0    0 -0.66144363240E+02  0.12214674154E+03 -0.57650645137E+02  0.15039448176E+03  0.00000000000E+00 0.  1.
         11    1    4    4    0    0  0.29689171657E+02  0.34543784117E+02 -0.33459882302E+02  0.56517994112E+02  0.00000000000E+00 0. -1.
         21    1    1    2  503  501  0.17060690868E+01 -0.20307017229E+02  0.35735002225E+02  0.41137282415E+02  0.00000000000E+00 0.  1.
         -2    1    1    2    0  502  0.93494232983E+02 -0.11717177761E+03 -0.22729995394E+02  0.15161480719E+03  0.00000000000E+00 0.  1.
<scales pt_clust_5="13000.00000" pt_clust_6="13000.00000" pt_clust_7="13000.00000" pt_clust_8="13000.00000" pt_clust_9="20.37856" pt_clust_10="13000.00000"></scales>
<clustering>
<clus scale="   20.379">  1  9  2 -1</clus>
<clus scale="   80.682">  5  6 -1 -1</clus>
<clus scale="   92.902">  7  8 -1 -1</clus>
<clus scale="  103.060">  2  5  1 -1</clus>
<clus scale="  152.039">  7 10 -1 -1</clus>
<clus scale="   20.379">  1  5  2 -1</clus>
</clustering>
</event>
<event>
10    4  0.2759992E-005  0.2951866E+03  0.7546771E-02  0.1118739E+00
         21   -1    0    0  501  502  0.00000000000E+00  0.00000000000E+00  0.36926433640E+03  0.36926433640E+03  0.00000000000E+00 0. -1.
          4   -1    0    0  503    0 -0.00000000000E+00 -0.00000000000E+00 -0.28711660868E+03  0.28711660868E+03  0.00000000000E+00 0. -1.
         24    2    1    2    0    0  0.10866243391E+03 -0.46245688543E+01  0.10458394925E+03  0.17201732405E+03  0.82602942744E+02 0.  0.
         23    2    1    2    0    0 -0.13568565598E+03  0.11792683244E+03 -0.13010302676E+03  0.23771107577E+03  0.85219850530E+02 0.  0.
        -11    1    3    3    0    0  0.50041309797E+02  0.13213480693E+02  0.11182860449E+01  0.51768516705E+02  0.00000000000E+00 0.  1.
         12    1    3    3    0    0  0.58621124117E+02 -0.17838049547E+02  0.10346566320E+03  0.12024880734E+03  0.00000000000E+00 0. -1.
        -13    1    4    4    0    0 -0.10727021748E+03  0.43707644578E+02 -0.54469380488E+02  0.12800066861E+03  0.00000000000E+00 0. -1.
         13    1    4    4    0    0 -0.28415438499E+02  0.74219187858E+02 -0.75633646276E+02  0.10971040717E+03  0.00000000000E+00 0.  1.
         21    1    1    2  503  502 -0.12161868225E+02 -0.28115988443E+02  0.14315425244E+03  0.14639521794E+03  0.00000000000E+00 0. -1.
          3    1    1    2  501    0  0.39185090291E+02 -0.85186275139E+02 -0.35487447206E+02  0.10025732732E+03  0.00000000000E+00 0. -1.
<scales pt_clust_5="13000.00000" pt_clust_6="13000.00000" pt_clust_7="13000.00000" pt_clust_8="13000.00000" pt_clust_9="30.63364" pt_clust_10="13000.00000"></scales>
<clustering>
<clus scale="   30.634">  1  9  2 -1</clus>
<clus scale="   82.603">  5  6 -1 -1</clus>
<clus scale="   85.220">  7  8 -1 -1</clus>
<clus scale="   96.774">  7 10 -1 -1</clus>
<clus scale="  132.440">  2  5  1 -1</clus>
<clus scale="   30.634">  1  5  2 -1</clus>
</clustering>
</event>
<event>
10    4  0.2759992E-005  0.1803828E+03  0.7546771E-02  0.1179481E+00
         21   -1    0    0  501  502  0.00000000000E+00  0.00000000000E+00  0.81791511620E+02  0.81791511620E+02  0.00000000000E+00 0. -1.
          2   -1    0    0  503    0 -0.00000000000E+00 -0.00000000000E+00 -0.61858908320E+03  0.61858908320E+03  0.00000000000E+00 0. -1.
         24    2    1    2    0    0 -0.32666081816E+02 -0.95864565009E+02 -0.34896312675E+03  0.37206657036E+03  0.80007382306E+02 0.  0.
         23    2    1    2    0    0  0.14552306537E+02  0.14096445147E+03 -0.14522695454E+03  0.22216202218E+03  0.90456340697E+02 0.  0.
        -11    1    3    3    0    0 -0.16350179405E+02  0.11797560075E+02 -0.56488978882E+02  0.59979292472E+02  0.00000000000E+00 0.  1.
         12    1    3    3    0    0 -0.16315902411E+02 -0.10766212508E+03 -0.29247414787E+03  0.31208727789E+03  0.00000000000E+00 0. -1.
        -11    1    4    4    0    0  0.33877335438E+02  0.31099339699E+02 -0.81795619221E+02  0.93836912299E+02  0.00000000000E+00 0.  1.
         11    1    4    4    0    0 -0.19325028901E+02  0.10986511177E+03 -0.63431335316E+02  0.12832510988E+03  0.00000000000E+00 0. -1.
         21    1    1    2  503  502 -0.23010166038E+02 -0.50719668709E+02 -0.23234763759E+02  0.60347384219E+02  0.00000000000E+00 0. -1.
          1    1    1    2  501    0  0.41123941317E+02  0.56197822474E+01 -0.19372726532E+02  0.45804618056E+02  0.00000000000E+00 0. -1.
<scales pt_clust_5="13000.00000" pt_clust_6="13000.00000" pt_clust_7="13000.00000" pt_clust_8="13000.00000" pt_clust_9="55.69518" pt_clust_10="13000.00000"></scales>
<clustering>
<clus scale="   55.695">  1  9  2 -1</clus>
<clus scale="   80.007">  5  6 -1 -1</clus>
<clus scale="   90.456">  7  8 -1 -1</clus>
<clus scale="   36.655">  7 10 -1 -1</clus>
<clus scale="  137.160">  2  5  1 -1</clus>
<clus scale="   55.695">  1  5  2 -1</clus>
</clustering>
</event>
<event>
10    4  0.2759992E-005  0.2286589E+03  0.7546771E-02  0.1158652E+00
         21   -1    0    0  503  502  0.00000000000E+00  0.00000000000E+00  0.93818237476E+02  0.93818237476E+02  0.00000000000E+00 0.  1.
          2   -1    0    0  502    0 -0.00000000000E+00 -0.00000000000E+00 -0.44574495936E+03  0.44574495936E+03  0.00000000000E+00 0. -1.
         24    2    1    2    0    0  0.10158374592E+02  0.77102184426E+02 -0.13015965292E+03  0.17058018090E+03  0.78154484516E+02 0.  0.
         23    2    1    2    0    0  0.97990919564E+02 -0.62719238543E+02 -0.93239539870E+02  0.17381455724E+03  0.89341845250E+02 0.  0.
        -11    1    3    3    0    0  0.42025948663E+02  0.33904966621E+02 -0.83595430705E+02  0.99518456366E+02  0.00000000000E+00 0.  1.
         12    1    3    3    0    0 -0.31867574071E+02  0.43197217805E+02 -0.46564222212E+02  0.71061724532E+02  0.00000000000E+00 0. -1.
        -13    1    4    4    0    0  0.22469007152E+02  0.22552547163E+02 -0.12530813316E+02  0.34212496961E+02  0.00000000000E+00 0. -1.
         13    1    4    4    0    0  0.75521912412E+02 -0.85271785706E+02 -0.80708726554E+02  0.13960206028E+03  0.00000000000E+00 0.  1.
         21    1    1    2  503  501 -0.43632002497E+02 -0.62633036242E+01  0.72043643859E+01  0.44664118489E+02  0.00000000000E+00 0. -1.
          1    1    1    2  501    0 -0.64517291660E+02 -0.81196422590E+01 -0.13573189348E+03  0.15050434021E+03  0.00000000000E+00 0. -1.
<scales pt_clust_5="13000.00000" pt_clust_6="13000.00000" pt_clust_7="13000.00000" pt_clust_8="13000.00000" pt_clust_9="44.07925" pt_clust_10="13000.00000"></scales>
<clustering>
<clus scale="   44.079">  1  9  2 -1</clus>
<clus scale="   78.154">  5  6 -1 -1</clus>
<clus scale="   89.342">  7  8 -1 -1</clus>
<clus scale="   69.822">  7 10 -1 -1</clus>
<clus scale="  108.521">  2  5  1 -1</clus>
<clus scale="   44.079">  1  5  2 -1</clus>
</clustering>
</event>
<event>
10    4  0.2759992E-005  0.1955377E+03  0.7546771E-02  0.1191661E+00
          2   -1    0    0  502    0 -0.00000000000E+00  0.00000000000E+00  0.38695187193E+03  0.38695187193E+03  0.00000000000E+00 0. -1.
         21   -1    0    0  503  502  0.00000000000E+00 -0.00000000000E+00 -0.60755692200E+02  0.60755692200E+02  0.00000000000E+00 0. -1.
         24    2    1    2    0    0  0.10637770026E+02  0.13068378524E+02  0.11075439185E+03  0.13833640094E+03  0.81157130568E+02 0.  0.
         23    2    1    2    0    0  0.25277859195E+02 -0.14303215941E+01  0.31085181006E+02  0.10456249669E+03  0.96571275490E+02 0.  0.
        -13    1    3    3    0    0  0.15851208597E+02 -0.24279805027E+02  0.91521002037E+02  0.96004497603E+02  0.00000000000E+00 0.  1.
         14    1    3    3    0    0 -0.52134385705E+01  0.37348183552E+02  0.19233389815E+02  0.42331903337E+02  0.00000000000E+00 0. -1.
        -11    1    4    4    0    0  0.57827720217E+02  0.13252936642E+02  0.34819502864E+01  0.59429029379E+02  0.00000000000E+00 0. -1.
         11    1    4    4    0    0 -0.32549861023E+02 -0.14683258236E+02  0.27603230720E+02  0.45133467307E+02  0.00000000000E+00 0.  1.
         21    1    1    2  503  501 -0.24815203242E+01 -0.21503688702E+02  0.51599685220E+01  0.22252906463E+02  0.00000000000E+00 0. -1.
          1    1    1    2  501    0 -0.33434108897E+02  0.98656317714E+01  0.17919663834E+03  0.18255576004E+03  0.00000000000E+00 0. -1.
<scales pt_clust_5="13000.00000" pt_clust_6="13000.00000" pt_clust_7="13000.00000" pt_clust_8="13000.00000" pt_clust_9="21.64640" pt_clust_10="13000.00000"></scales>
<clustering>
<clus scale="   21.646">  2  9  1 -1</clus>
<clus scale="   81.157">  5  6 -1 -1</clus>
<clus scale="   82.102">  1  5  2 -1</clus>
<clus scale="   96.571">  7  8 -1 -1</clus>
<clus scale="   30.203">  7 10 -1 -1</clus>
<clus scale="   21.646">  2  5  1 -1</clus>
</clustering>
</event>
<event>
10    4  0.2759992E-005  0.2295623E+03  0.7546771E-02  0.1142359E+00
         21   -1    0    0  503  502  0.00000000000E+00  0.00000000000E+00  0.34484753774E+03  0.34484753774E+03  0.00000000000E+00 0. -1.
          2   -1    0    0  502    0 -0.00000000000E+00 -0.00000000000E+00 -0.21216790723E+03  0.21216790723E+03  0.00000000000E+00 0. -1.
         24    2    1    2    0    0  0.99714419798E+02 -0.18153306040E+02  0.22755348757E+02  0.13135542306E+03  0.80398589753E+02 0.  0.
         23    2    1    2    0    0 -0.39234222339E+02 -0.43622867170E+02  0.13646579991E+02  0.10957779648E+03  0.91535706657E+02 0.  0.
        -11    1    3    3    0    0  0.33564701330E+02  0.76326927861E+01 -0.27759845165E+02  0.44220540229E+02  0.00000000000E+00 0.  1.
         12    1    3    3    0    0  0.66149718468E+02 -0.25785998826E+02  0.50515193923E+02  0.87134882830E+02  0.00000000000E+00 0. -1.
        -13    1    4    4    0    0 -0.11634634285E+02  0.16608502954E+02  0.34587294293E+02  0.40093490891E+02  0.00000000000E+00 0.  1.
         13    1    4    4    0    0 -0.27599588053E+02 -0.60231370123E+02 -0.20940714302E+02  0.69484305588E+02  0.00000000000E+00 0. -1.
         21    1    1    2  503  501  0.11381567392E+03  0.45246736305E+02  0.63501516851E+02  0.13796273924E+03  0.00000000000E+00 0. -1.
          1    1    1    2  501    0 -0.17429587138E+03  0.16529436905E+02  0.32776184911E+02  0.17811948619E+03  0.00000000000E+00 0. -1.
<scales pt_clust_5="13000.00000" pt_clust_6="13000.00000" pt_clust_7="13000.00000" pt_clust_8="13000.00000" pt_clust_9="122.47969" pt_clust_10="13000.00000"></scales>
<clustering>
<clus scale="   80.399">  5  6 -1 -1</clus>
<clus scale="   91.536">  7  8 -1 -1</clus>
<clus scale="  122.480">  1  9  2 -1</clus>
<clus scale="  130.228">  7 10 -1 -1</clus>
<clus scale="  157.725">  2  5  1 -1</clus>
<clus scale="  122.480">  1  5  2 -1</clus>
</clustering>
</event>
<event>
10    4  0.2759992E-005  0.4837289E+03  0.7546771E-02  0.1061099E+00
         21   -1    0    0  503  502  0.00000000000E+00  0.00000000000E+00  0.35539942484E+03  0.35539942484E+03  0.00000000000E+00 0. -1.
          2   -1    0    0  502    0 -0.00000000000E+00 -0.00000000000E+00 -0.13376267143E+04  0.13376267143E+04  0.00000000000E+00 0. -1.
         24    2    1    2    0    0  0.36856523658E+01 -0.11306848721E+03 -0.15671901755E+03  0.20901706283E+03  0.79556365310E+02 0.  0.
         23    2    1    2    0    0 -0.55292849249E+02 -0.22529085084E+03 -0.55748348003E+03  0.61063075011E+03  0.90933029334E+02 0.  0.
        -11    1    3    3    0    0  0.29925766713E+02 -0.96733186767E+01 -0.40244689028E+02  0.51076017880E+02  0.00000000000E+00 0.  1.
         12    1    3    3    0    0 -0.26240114347E+02 -0.10339516853E+03 -0.11647432852E+03  0.15794104495E+03  0.00000000000E+00 0. -1.
        -11    1    4    4    0    0 -0.64210923797E+02 -0.11338725094E+03 -0.22878345923E+03  0.26328992124E+03  0.00000000000E+00 0.  1.
         11    1    4    4    0    0  0.89180745486E+01 -0.11190359990E+03 -0.32870002081E+03  0.34734082887E+03  0.00000000000E+00 0. -1.
         21    1    1    2  503  501 -0.70613600042E+02  0.43101761246E+03  0.12266484514E+03  0.45366190825E+03  0.00000000000E+00 0. -1.
          1    1    1    2  501    0  0.12222079693E+03 -0.92658274417E+02 -0.39068963704E+03  0.41971641796E+03  0.00000000000E+00 0. -1.
<scales pt_clust_5="13000.00000" pt_clust_6="13000.00000" pt_clust_7="13000.00000" pt_clust_8="13000.00000" pt_clust_9="420.69182" pt_clust_10="13000.00000"></scales>
<clustering>
<clus scale="   79.556">  5  6 -1 -1</clus>
<clus scale="   90.933">  7  8 -1 -1</clus>
<clus scale="  138.301">  2  5  1 -1</clus>
<clus scale="  181.019">  7 10 -1 -1</clus>
<clus scale="  420.692">  1  9  2 -1</clus>
<clus scale="  420.692">  1  5  2 -1</clus>
</clustering>
</event>
<event>
10    4  0.2759992E-005  0.1707679E+03  0.7546771E-02  0.1208549E+00
         21   -1    0    0  503  502  0.00000000000E+00  0.00000000000E+00  0.22823997185E+03  0.22823997185E+03  0.00000000000E+00 0. -1.
         -3   -1    0    0    0  501 -0.00000000000E+00 -0.00000000000E+00 -0.10647240351E+03  0.10647240351E+03  0.00000000000E+00 0.  1.
         24    2    1    2    0    0 -0.30881211183E+02 -0.10619751020E+02  0.41087472659E+02  0.91592073493E+02  0.75063301295E+02 0.  0.
         23    2    1    2    0    0  0.12530271688E+02  0.30401264230E+02  0.94653611412E+01  0.97724854686E+02  0.91538568846E+02 0.  0.
        -11    1    3    3    0    0 -0.22647186205E+02 -0.22780959934E+02 -0.13661792973E+02  0.34907187881E+02  0.00000000000E+00 0.  1.
         12    1    3    3    0    0 -0.82340249782E+01  0.12161208914E+02  0.54749265632E+02  0.56684885612E+02  0.00000000000E+00 0. -1.
        -11    1    4    4    0    0  0.35068612683E+02  0.50693118510E+02 -0.88852374547E+01  0.62277984107E+02  0.00000000000E+00 0.  1.
         11    1    4    4    0    0 -0.22538340995E+02 -0.20291854281E+02  0.18350598596E+02  0.35446870578E+02  0.00000000000E+00 0. -1.
         21    1    1    2  503  501 -0.27166075481E+02  0.41983262901E+02  0.26554015810E+02  0.56618952450E+02  0.00000000000E+00 0. -1.
         -4    1    1    2    0  502  0.45517014976E+02 -0.61764776111E+02  0.44660718724E+02  0.88776494734E+02  0.00000000000E+00 0.  1.
<scales pt_clust_5="13000.00000" pt_clust_6="13000.00000" pt_clust_7="13000.00000" pt_clust_8="13000.00000" pt_clust_9="50.00590" pt_clust_10="13000.00000"></scales>
<clustering>
<clus scale="   50.006">  1  9  2 -1</clus>
<clus scale="   75.063">  5  6 -1 -1</clus>
<clus scale="   85.418">  2  5  1 -1</clus>
<clus scale="   91.539">  7  8 -1 -1</clus>
<clus scale="   52.201">  7 10 -1 -1</clus>
<clus scale="   50.006">  1  5  2 -1</clus>
</clustering>
</event>
<event>
10    4  0.2759992E-005  0.4683328E+03  0.7546771E-02  0.1043160E+00
         21   -1    0    0  501  502  0.00000000000E+00  0.00000000000E+00  0.29404101774E+03  0.29404101774E+03  0.00000000000E+00 0.  1.
          2   -1    0    0  503    0 -0.00000000000E+00 -0.00000000000E+00 -0.10028255240E+04  0.10028255240E+04  0.00000000000E+00 0. -1.
         24    2    1    2    0    0  0.16153552428E+03  0.19377092588E+03 -0.35836481530E+03  0.44588145346E+03  0.82122057735E+02 0.  0.
         23    2    1    2    0    0 -0.72715550873E+00  0.10062531643E+03 -0.84771715606E+02  0.16092748111E+03  0.92657581169E+02 0.  0.
        -11    1    3    3    0    0  0.10585777244E+03  0.11768144172E+03 -0.28654904698E+03  0.32736088043E+03  0.00000000000E+00 0.  1.
         12    1    3    3    0    0  0.55677751848E+02  0.76089484163E+02 -0.71815768324E+02  0.11852057303E+03  0.00000000000E+00 0. -1.
        -13    1    4    4    0    0  0.26671337342E+02 -0.52496035878E+01 -0.20807382426E+02  0.34232524547E+02  0.00000000000E+00 0. -1.
         13    1    4    4    0    0 -0.27398492851E+02  0.10587492002E+03 -0.63964333180E+02  0.12669495656E+03  0.00000000000E+00 0.  1.
         21    1    1    2  503  502 -0.43174078203E+02 -0.12198963968E+02  0.15989667494E+03  0.16607155810E+03  0.00000000000E+00 0.  1.
          1    1    1    2  501    0 -0.11763429057E+03 -0.28219727835E+03 -0.42554465030E+03  0.52398604908E+03  0.00000000000E+00 0. -1.
<scales pt_clust_5="13000.00000" pt_clust_6="13000.00000" pt_clust_7="13000.00000" pt_clust_8="13000.00000" pt_clust_9="44.86442" pt_clust_10="13000.00000"></scales>
<clustering>
<clus scale="   44.864">  1  9  2 -1</clus>
<clus scale="   82.122">  5  6 -1 -1</clus>
<clus scale="   92.658">  7  8 -1 -1</clus>
<clus scale="  253.720">  2  5  1 -1</clus>
<clus scale="  134.692">  7 10 -1 -1</clus>
<clus scale="   44.864">  1  5  2 -1</clus>
</clustering>
</event>
<event>
10    4  0.2759992E-005  0.1762974E+03  0.7546771E-02  0.1203473E+00
          2   -1    0    0  502    0 -0.00000000000E+00  0.00000000000E+00  0.12067400117E+03  0.12067400117E+03  0.00000000000E+00 0. -1.
         21   -1    0    0  503  502  0.00000000000E+00 -0.00000000000E+00 -0.58119000354E+03  0.58119000354E+03  0.00000000000E+00 0.  1.
         24    2    1    2    0    0  0.31381749757E+02 -0.78685159303E+01  0.27089509447E+02  0.90616820495E+02  0.80192511332E+02 0.  0.
         23    2    1    2    0    0  0.46312017803E+02  0.37964036720E+01 -0.62042792184E+02  0.11886433650E+03  0.90112189824E+02 0.  0.
        -13    1    3    3    0    0 -0.22473625512E+02  0.11906979994E+02  0.20888092810E+02  0.32911281309E+02  0.00000000000E+00 0.  1.
         14    1    3    3    0    0  0.53855375269E+02 -0.19775495924E+02  0.62014166375E+01  0.57705539186E+02  0.00000000000E+00 0. -1.
        -13    1    4    4    0    0 -0.22845780687E+02 -0.76677159931E+01  0.16423723497E+01  0.24154108361E+02  0.00000000000E+00 0.  1.
         13    1    4    4    0    0  0.69157798491E+02  0.11464119665E+02 -0.63685164533E+02  0.94710228135E+02  0.00000000000E+00 0. -1.
         21    1    1    2  503  501 -0.23165612895E+02 -0.56301345707E+02 -0.40353353433E+03  0.40810023337E+03  0.00000000000E+00 0.  1.
          1    1    1    2  501    0 -0.54528154665E+02  0.60373457965E+02 -0.22029185310E+02  0.84282614359E+02  0.00000000000E+00 0. -1.
<scales pt_clust_5="13000.00000" pt_clust_6="13000.00000" pt_clust_7="13000.00000" pt_clust_8="13000.00000" pt_clust_9="60.88093" pt_clust_10="13000.00000"></scales>
<clustering>
<clus scale="   60.881">  2  9  1 -1</clus>
<clus scale="   80.193">  5  6 -1 -1</clus>
<clus scale="   86.581">  1  5  2 -1</clus>
<clus scale="   90.112">  7  8 -1 -1</clus>
<clus scale="   59.986">  7 10 -1 -1</clus>
<clus scale="   60.881">  2  5  1 -1</clus>
</clustering>
</event>
<event>
10    4  0.2759992E-005  0.2529086E+03  0.7546771E-02  0.1118895E+00
         21   -1    0    0  503  502  0.00000000000E+00  0.00000000000E+00  0.33475189634E+03  0.33475189634E+03  0.00000000000E+00 0. -1.
          2   -1    0    0  502    0 -0.00000000000E+00 -0.00000000000E+00 -0.14013408177E+04  0.14013408177E+04  0.00000000000E+00 0. -1.
         24    2    1    2    0    0  0.16208049111E+02 -0.19613323045E+03 -0.13330860417E+04  0.13496472650E+04  0.75487750013E+02 0.  0.
         23    2    1    2    0    0 -0.68545563307E+02  0.87261453307E+02  0.13243672922E+03  0.19631567624E+03  0.93205697312E+02 0.  0.
        -13    1    3    3    0    0  0.38563787081E+02 -0.68891701815E+02 -0.40623665900E+03  0.41383747458E+03  0.00000000000E+00 0.  1.
         14    1    3    3    0    0 -0.22355737970E+02 -0.12724152864E+03 -0.92684938266E+03  0.93580979038E+03  0.00000000000E+00 0. -1.
        -11    1    4    4    0    0  0.78616777020E+01  0.61773573778E+02  0.41483712082E+02  0.74824319320E+02  0.00000000000E+00 0.  1.
         11    1    4    4    0    0 -0.76407241010E+02  0.25487879529E+02  0.90953017134E+02  0.12149135692E+03  0.00000000000E+00 0. -1.
         21    1    1    2  503  501  0.15912197433E+02  0.33897231106E+02  0.86271224236E+02  0.94047564748E+02  0.00000000000E+00 0.  1.
          1    1    1    2  501    0  0.36425316764E+02  0.74974546040E+02  0.47789166810E+02  0.96082208132E+02  0.00000000000E+00 0. -1.
<scales pt_clust_5="13000.00000" pt_clust_6="13000.00000" pt_clust_7="13000.00000" pt_clust_8="13000.00000" pt_clust_9="37.44623" pt_clust_10="13000.00000"></scales>
<clustering>
<clus scale="   37.446">  1  9  2 -1</clus>
<clus scale="   75.488">  5  6 -1 -1</clus>
<clus scale="   93.206">  7  8 -1 -1</clus>
<clus scale="   94.367">  7 10 -1 -1</clus>
<clus scale="  209.758">  2  5  1 -1</clus>
<clus scale="   37.446">  1  5  2 -1</clus>
</clustering>
</event>
<event>
10    4  0.2759992E-005  0.2320958E+03  0.7546771E-02  0.1162723E+00
         21   -1    0    0  503  502  0.00000000000E+00  0.00000000000E+00  0.11552729608E+03  0.11552729608E+03  0.00000000000E+00 0. -1.
          2   -1    0    0  502    0 -0.00000000000E+00 -0.00000000000E+00 -0.26511375192E+03  0.26511375192E+03  0.00000000000E+00 0. -1.
         24    2    1    2    0    0 -0.40260446077E+02 -0.34704520751E+02 -0.59443158736E+02  0.11352930244E+03  0.80809071973E+02 0.  0.
         23    2    1    2    0    0 -0.69487691892E+02 -0.17963015432E+02 -0.68553746586E+02  0.13440285575E+03  0.90627270818E+02 0.  0.
        -13    1    3    3    0    0 -0.13389737089E+02 -0.35248676405E+02 -0.73935127883E+02  0.82994923837E+02  0.00000000000E+00 0.  1.
         14    1    3    3    0    0 -0.26870708988E+02  0.54415565470E+00  0.14491969147E+02  0.30534378603E+02  0.00000000000E+00 0. -1.
        -13    1    4    4    0    0 -0.34930253791E+02 -0.53583487454E+02 -0.50841719024E+02  0.81707974831E+02  0.00000000000E+00 0. -1.
         13    1    4    4    0    0 -0.34557438101E+02  0.35620472022E+02 -0.17712027562E+02  0.52694880923E+02  0.00000000000E+00 0.  1.
         21    1    1    2  503  501  0.55923472227E+01  0.20732649324E+02 -0.80334617467E+01  0.22927136827E+02  0.00000000000E+00 0.  1.
          1    1    1    2  501    0  0.10415579075E+03  0.31934886859E+02 -0.13556088776E+02  0.10978175298E+03  0.00000000000E+00 0. -1.
<scales pt_clust_5="13000.00000" pt_clust_6="13000.00000" pt_clust_7="13000.00000" pt_clust_8="13000.00000" pt_clust_9="21.47364" pt_clust_10="13000.00000"></scales>
<clustering>
<clus scale="   21.474">  1  9  2 -1</clus>
<clus scale="   80.809">  5  6 -1 -1</clus>
<clus scale="   90.627">  7  8 -1 -1</clus>
<clus scale="   94.401">  2  5  1 -1</clus>
<clus scale="   95.212">  7 10 -1 -1</clus>
<clus scale="   21.474">  1  5  2 -1</clus>
</clustering>
</event>
<event>
10    4  0.2759992E-005  0.2716754E+03  0.7546771E-02  0.1136342E+00
          2   -1    0    0  502    0 -0.00000000000E+00  0.00000000000E+00  0.93138491196E+03  0.93138491196E+03  0.00000000000E+00 0. -1.
         21   -1    0    0  503  502  0.00000000000E+00 -0.00000000000E+00 -0.57939843497E+02  0.57939843497E+02  0.00000000000E+00 0.  1.
         24    2    1    2    0    0  0.55959957661E+01  0.86112582362E+02  0.80351776127E+02  0.13903880041E+03  0.73679631397E+02 0.  0.
         23    2    1    2    0    0  0.95982029353E+02  0.10890053386E+02  0.54224159569E+03  0.55997425797E+03  0.10106472319E+03 0.  0.
        -13    1    3    3    0    0 -0.22754708619E+02  0.81392391358E+02  0.56156270317E+02  0.10146932951E+03  0.00000000000E+00 0.  1.
         14    1    3    3    0    0  0.28350704385E+02  0.47201910036E+01  0.24195505810E+02  0.37569470899E+02  0.00000000000E+00 0. -1.
        -13    1    4    4    0    0  0.69944328150E+02  0.53363600637E+02  0.38954755691E+03  0.39935846305E+03  0.00000000000E+00 0.  1.
         13    1    4    4    0    0  0.26037701203E+02 -0.42473547251E+02  0.15269403878E+03  0.16061579492E+03  0.00000000000E+00 0. -1.
         21    1    1    2  503  501 -0.24541124551E+02 -0.85724074413E+01  0.26306475407E+02  0.36983558670E+02  0.00000000000E+00 0.  1.
          1    1    1    2  501    0 -0.77036900568E+02 -0.88430228307E+02  0.22454522124E+03  0.25332813841E+03  0.00000000000E+00 0. -1.
<scales pt_clust_5="13000.00000" pt_clust_6="13000.00000" pt_clust_7="13000.00000" pt_clust_8="13000.00000" pt_clust_9="25.99525" pt_clust_10="13000.00000"></scales>
<clustering>
<clus scale="   25.995">  2  9  1 -1</clus>
<clus scale="   73.680">  5  6 -1 -1</clus>
<clus scale="  101.065">  7  8 -1 -1</clus>
<clus scale="  110.040">  1  5  2 -1</clus>
<clus scale="  107.203">  7 10 -1 -1</clus>
<clus scale="   25.995">  2  5  1 -1</clus>
</clustering>
</event>
<event>
10    4  0.2759992E-005  0.2594438E+03  0.7546771E-02  0.1111950E+00
         21   -1    0    0  503  502  0.00000000000E+00  0.00000000000E+00  0.40565507703E+03  0.40565507703E+03  0.00000000000E+00 0.  1.
          2   -1    0    0  502    0 -0.00000000000E+00 -0.00000000000E+00 -0.46915894669E+03  0.46915894669E+03  0.00000000000E+00 0. -1.
         24    2    1    2    0    0  0.10328754433E+03 -0.19115266598E+03 -0.25125098731E+03  0.34163842564E+03  0.79888026148E+02 0.  0.
         23    2    1    2    0    0  0.23160198289E+02 -0.36865883031E+02  0.55487073034E+02  0.11660436667E+03  0.92856205696E+02 0.  0.
        -11    1    3    3    0    0 -0.39653299645E+00 -0.31779826617E+02 -0.77742340683E+01  0.32719311325E+02  0.00000000000E+00 0.  1.
         12    1    3    3    0    0  0.10368407733E+03 -0.15937283937E+03 -0.24347675324E+03  0.30891911431E+03  0.00000000000E+00 0. -1.
        -11    1    4    4    0    0 -0.28458550426E+02 -0.30831183071E+02  0.48557932400E+02  0.64174167239E+02  0.00000000000E+00 0.  1.
         11    1    4    4    0    0  0.51618748715E+02 -0.60346999605E+01  0.69291406346E+01  0.52430199431E+02  0.00000000000E+00 0. -1.
         21    1    1    2  503  501 -0.15899297035E+03  0.23097843074E+03  0.19792351739E+03  0.34322517219E+03  0.00000000000E+00 0.  1.
          1    1    1    2  501    0  0.32545227726E+02 -0.29598817232E+01 -0.65663472769E+02  0.73346059224E+02  0.00000000000E+00 0. -1.
<scales pt_clust_5="13000.00000" pt_clust_6="13000.00000" pt_clust_7="13000.00000" pt_clust_8="13000.00000" pt_clust_9="189.79640" pt_clust_10="13000.00000"></scales>
<clustering>
<clus scale="   79.888">  5  6 -1 -1</clus>
<clus scale="   92.856">  7  8 -1 -1</clus>
<clus scale="   32.680">  7 10 -1 -1</clus>
<clus scale="  231.495">  2  5  1 -1</clus>
<clus scale="  189.796">  1  9  2 -1</clus>
<clus scale="  189.796">  1  5  2 -1</clus>
</clustering>
</event>
<event>
10    4  0.2759992E-005  0.1319210E+03  0.7546771E-02  0.1243999E+00
          2   -1    0    0  503    0 -0.00000000000E+00  0.00000000000E+00  0.41018624853E+02  0.41018624853E+02  0.00000000000E+00 0. -1.
         21   -1    0    0  501  502  0.00000000000E+00 -0.00000000000E+00 -0.43811632467E+03  0.43811632467E+03  0.00000000000E+00 0.  1.
         24    2    1    2    0    0 -0.20698878424E+02  0.16582303661E+02 -0.11519014523E+03  0.14285801395E+03  0.80226094433E+02 0.  0.
         23    2    1    2    0    0 -0.65366305808E+00 -0.15531089533E+02 -0.12244634701E+03  0.15346640954E+03  0.91198623578E+02 0.  0.
        -13    1    3    3    0    0  0.75820497278E+01 -0.20717600222E+02 -0.42774094411E+01  0.22472264429E+02  0.00000000000E+00 0.  1.
         14    1    3    3    0    0 -0.28280928152E+02  0.37299903882E+02 -0.11091273579E+03  0.12038574952E+03  0.00000000000E+00 0. -1.
        -11    1    4    4    0    0 -0.27952017172E+02 -0.43011257368E+02 -0.86809209255E+02  0.10083214932E+03  0.00000000000E+00 0. -1.
         11    1    4    4    0    0  0.27298354114E+02  0.27480167835E+02 -0.35637137755E+02  0.52634260220E+02  0.00000000000E+00 0.  1.
         21    1    1    2  503  502 -0.12488347742E+02  0.27105515319E+02 -0.12011504463E+03  0.12376708665E+03  0.00000000000E+00 0.  1.
          1    1    1    2  501    0  0.33840889224E+02 -0.28156729447E+02 -0.39346162938E+02  0.59043439386E+02  0.00000000000E+00 0. -1.
<scales pt_clust_5="13000.00000" pt_clust_6="13000.00000" pt_clust_7="13000.00000" pt_clust_8="13000.00000" pt_clust_9="29.84406" pt_clust_10="13000.00000"></scales>
<clustering>
<clus scale="   29.844">  2  9  1 -1</clus>
<clus scale="   80.226">  5  6 -1 -1</clus>
<clus scale="   88.689">  1  5  2 -1</clus>
<clus scale="   91.199">  7  8 -1 -1</clus>
<clus scale="   27.466">  7 10 -1 -1</clus>
<clus scale="   29.844">  2  5  1 -1</clus>
</clustering>
</event>
<event>
10    4  0.2759992E-005  0.1482113E+03  0.7546771E-02  0.1216436E+00
          2   -1    0    0  503    0 -0.00000000000E+00  0.00000000000E+00  0.36345785467E+03  0.36345785467E+03  0.00000000000E+00 0. -1.
         21   -1    0    0  501  502  0.00000000000E+00 -0.00000000000E+00 -0.16191175826E+03  0.16191175826E+03  0.00000000000E+00 0. -1.
         24    2    1    2    0    0  0.56326204943E+02 -0.42153117223E+02  0.22653412307E+03  0.25038827253E+03  0.80168893287E+02 0.  0.
         23    2    1    2    0    0 -0.92257781355E+02  0.73169765774E+01  0.68072672206E+02  0.14720891276E+03  0.92040963312E+02 0.  0.
        -11    1    3    3    0    0  0.68513177960E+02 -0.94230132678E+01  0.12283246608E+03  0.14096334082E+03  0.00000000000E+00 0.  1.
         12    1    3    3    0    0 -0.12186973017E+02 -0.32730103955E+02  0.10370165700E+03  0.10942493171E+03  0.00000000000E+00 0. -1.
        -13    1    4    4    0    0 -0.61221549428E+02 -0.40569604675E+02  0.39448146406E+02  0.83367422851E+02  0.00000000000E+00 0. -1.
         13    1    4    4    0    0 -0.31036231927E+02  0.47886581253E+02  0.28624525800E+02  0.63841489907E+02  0.00000000000E+00 0.  1.
         21    1    1    2  503  502  0.56991518676E+02  0.19773991191E+02 -0.74774277170E+02  0.96074119589E+02  0.00000000000E+00 0. -1.
          1    1    1    2  501    0 -0.21059942265E+02  0.15062149455E+02 -0.18286421698E+02  0.31698308045E+02  0.00000000000E+00 0. -1.
<scales pt_clust_5="13000.00000" pt_clust_6="13000.00000" pt_clust_7="13000.00000" pt_clust_8="13000.00000" pt_clust_9="60.32449" pt_clust_10="13000.00000"></scales>
<clustering>
<clus scale="   60.324">  2  9  1 -1</clus>
<clus scale="   80.169">  5  6 -1 -1</clus>
<clus scale="   92.041">  7  8 -1 -1</clus>
<clus scale="   21.661">  7 10 -1 -1</clus>
<clus scale="  110.482">  1  5  2 -1</clus>
<clus scale="   60.324">  2  5  1 -1</clus>
</clustering>
</event>
<event>
10    4  0.2759992E-005  0.5076489E+03  0.7546771E-02  0.1038240E+00
          2   -1    0    0  503    0 -0.00000000000E+00  0.00000000000E+00  0.13962884003E+04  0.13962884003E+04  0.00000000000E+00 0. -1.
         21   -1    0    0  501  502  0.00000000000E+00 -0.00000000000E+00 -0.25207712520E+03  0.25207712520E+03  0.00000000000E+00 0. -1.
         24    2    1    2    0    0 -0.11895136845E+03  0.17954901169E+03  0.20773505007E+03  0.30980162934E+03  0.80224203678E+02 0.  0.
         23    2    1    2    0    0  0.70323186576E+02 -0.12952427465E+03  0.22269565051E+03  0.28251068253E+03  0.92179415785E+02 0.  0.
        -13    1    3    3    0    0 -0.97384493686E+01  0.83868190471E+02  0.70139011130E+02  0.10976425489E+03  0.00000000000E+00 0.  1.
         14    1    3    3    0    0 -0.10921291908E+03  0.95680821220E+02  0.13759603894E+03  0.20003737445E+03  0.00000000000E+00 0. -1.
        -13    1    4    4    0    0  0.46947346381E+02 -0.96166347450E+02  0.78625627804E+02  0.13279310623E+03  0.00000000000E+00 0. -1.
         13    1    4    4    0    0  0.23375840194E+02 -0.33357927201E+02  0.14407002270E+03  0.14971757630E+03  0.00000000000E+00 0.  1.
         21    1    1    2  503  502  0.15956468456E+03  0.29906483504E+03  0.56873537584E+03  0.66208805446E+03  0.00000000000E+00 0. -1.
          1    1    1    2  501    0 -0.11093650269E+03 -0.34908957208E+03  0.14504519863E+03  0.39396515913E+03  0.00000000000E+00 0. -1.
<scales pt_clust_5="13000.00000" pt_clust_6="13000.00000" pt_clust_7="13000.00000" pt_clust_8="13000.00000" pt_clust_9="407.48253" pt_clust_10="13000.00000"></scales>
<clustering>
<clus scale="   80.224">  5  6 -1 -1</clus>
<clus scale="   92.179">  7  8 -1 -1</clus>
<clus scale="  229.833">  1  5  2 -1</clus>
<clus scale="  336.641">  7 10 -1 -1</clus>
<clus scale="  407.483">  2  9  1 -1</clus>
<clus scale="  407.483">  2  5  1 -1</clus>
</clustering>
</event>
<event>
10    4  0.2759992E-005  0.3240497E+03  0.7546771E-02  0.1083877E+00
         21   -1    0    0  501  502  0.00000000000E+00  0.00000000000E+00  0.19182236847E+03  0.19182236847E+03  0.00000000000E+00 0. -1.
          2   -1    0    0  503    0 -0.00000000000E+00 -0.00000000000E+00 -0.50747448793E+03  0.50747448793E+03  0.00000000000E+00 0. -1.
         24    2    1    2    0    0  0.33689084339E+01  0.24565346851E+03 -0.10126212580E+03  0.27755566531E+03  0.80163290163E+02 0.  0.
         23    2    1    2    0    0 -0.86100007293E+02 -0.83415619400E+02 -0.11907785062E+03  0.19341287493E+03  0.94114976846E+02 0.  0.
        -13    1    3    3    0    0 -0.61376712989E+01  0.71463837884E+02 -0.70199341571E+02  0.10036283521E+03  0.00000000000E+00 0.  1.
         14    1    3    3    0    0  0.95065797328E+01  0.17418963063E+03 -0.31062784232E+02  0.17719283011E+03  0.00000000000E+00 0. -1.
        -11    1    4    4    0    0 -0.79254927308E+02 -0.28702872655E+02 -0.10828790611E+03  0.13722779970E+03  0.00000000000E+00 0. -1.
         11    1    4    4    0    0 -0.68450799848E+01 -0.54712746745E+02 -0.10789944507E+02  0.56185075232E+02  0.00000000000E+00 0.  1.
         21    1    1    2  503  502 -0.34415611487E+01 -0.23218636272E+02  0.17806153667E+02  0.29461984351E+02  0.00000000000E+00 0.  1.
          1    1    1    2  501    0  0.86172660007E+02 -0.13901921284E+03 -0.11311829671E+03  0.19886633180E+03  0.00000000000E+00 0. -1.
<scales pt_clust_5="13000.00000" pt_clust_6="13000.00000" pt_clust_7="13000.00000" pt_clust_8="13000.00000" pt_clust_9="23.47231" pt_clust_10="13000.00000"></scales>
<clustering>
<clus scale="   23.472">  1  9  2 -1</clus>
<clus scale="   80.163">  5  6 -1 -1</clus>
<clus scale="   94.115">  7  8 -1 -1</clus>
<clus scale="  168.174">  7 10 -1 -1</clus>
<clus scale="  246.868">  2  5  1 -1</clus>
<clus scale="   23.472">  1  5  2 -1</clus>
</clustering>
</event>
<event>
10    4  0.2759992E-005  0.3206137E+03  0.7546771E-02  0.1080281E+00
          2   -1    0    0  502    0 -0.00000000000E+00  0.00000000000E+00  0.13893006799E+04  0.13893006799E+04  0.00000000000E+00 0. -1.
         21   -1    0    0  503  502  0.00000000000E+00 -0.00000000000E+00 -0.75537257980E+02  0.75537257980E+02  0.00000000000E+00 0.  1.
         24    2    1    2    0    0 -0.10072319122E+03  0.24389574116E+03  0.52823699822E+03  0.59598580466E+03  0.80836002252E+02 0.  0.
         23    2    1    2    0    0 -0.99868589254E+01 -0.74297589654E+02  0.28495690647E+03  0.30835595655E+03  0.90901530306E+02 0.  0.
        -11    1    3    3    0    0 -0.11291869166E+03  0.19272088141E+03  0.42914836378E+03  0.48379777510E+03  0.00000000000E+00 0.  1.
         12    1    3    3    0    0  0.12195500431E+02  0.51174859749E+02  0.99088634443E+02  0.11218802956E+03  0.00000000000E+00 0. -1.
        -11    1    4    4    0    0  0.39993537159E+02 -0.37509625071E+02  0.11445662537E+03  0.12691246621E+03  0.00000000000E+00 0.  1.
         11    1    4    4    0    0 -0.49980396085E+02 -0.36787964582E+02  0.17050028110E+03  0.18144349034E+03  0.00000000000E+00 0. -1.
         21    1    1    2  503  501  0.29678387162E+02  0.21655899753E+02  0.35221667928E+02  0.50895486541E+02  0.00000000000E+00 0. -1.
          1    1    1    2  501    0  0.81031662989E+02 -0.19125405126E+03  0.46534784926E+03  0.50960069009E+03  0.00000000000E+00 0. -1.
<scales pt_clust_5="13000.00000" pt_clust_6="13000.00000" pt_clust_7="13000.00000" pt_clust_8="13000.00000" pt_clust_9="36.73942" pt_clust_10="13000.00000"></scales>
<clustering>
<clus scale="   36.739">  2  9  1 -1</clus>
<clus scale="   80.836">  5  6 -1 -1</clus>
<clus scale="   90.902">  7  8 -1 -1</clus>
<clus scale="  205.312">  7 10 -1 -1</clus>
<clus scale="  280.708">  1  5  2 -1</clus>
<clus scale="   36.739">  2  5  1 -1</clus>
</clustering>
</event>
<event>
10    4  0.2759992E-005  0.8598529E+03  0.7546771E-02  0.1003268E+00
          2   -1    0    0  502    0 -0.00000000000E+00  0.00000000000E+00  0.19681022179E+04  0.19681022179E+04  0.00000000000E+00 0. -1.
         21   -1    0    0  503  502  0.00000000000E+00 -0.00000000000E+00 -0.43796914782E+03  0.43796914782E+03  0.00000000000E+00 0.  1.
         24    2    1    2    0    0 -0.10695405954E+03  0.18775384926E+02  0.22313302705E+03  0.26138955265E+03  0.82124689020E+02 0.  0.
         23    2    1    2    0    0 -0.33893170424E+03 -0.16770772283E+03  0.64114912822E+03  0.75013521374E+03  0.92898083067E+02 0.  0.
        -11    1    3    3    0    0 -0.10661295930E+02 -0.26978434634E+02  0.57678684142E+02  0.64562603499E+02  0.00000000000E+00 0.  1.
         12    1    3    3    0    0 -0.96292763606E+02  0.45753819560E+02  0.16545434290E+03  0.19682694915E+03  0.00000000000E+00 0. -1.
        -13    1    4    4    0    0 -0.24845578260E+02 -0.12256486489E+02  0.12480464271E+02  0.30385625031E+02  0.00000000000E+00 0. -1.
         13    1    4    4    0    0 -0.31408612598E+03 -0.15545123634E+03  0.62866866395E+03  0.71974958871E+03  0.00000000000E+00 0.  1.
         21    1    1    2  503  501 -0.35686382371E+02  0.13819556740E+03 -0.29053760545E+03  0.32370300109E+03  0.00000000000E+00 0.  1.
          1    1    1    2  501    0  0.48157214615E+03  0.10736770505E+02  0.95638852025E+03  0.10708435982E+04  0.00000000000E+00 0. -1.
<scales pt_clust_5="13000.00000" pt_clust_6="13000.00000" pt_clust_7="13000.00000" pt_clust_8="13000.00000" pt_clust_9="143.16365" pt_clust_10="13000.00000"></scales>
<clustering>
<clus scale="   82.125">  5  6 -1 -1</clus>
<clus scale="   92.898">  7  8 -1 -1</clus>
<clus scale="  136.148">  1  5  2 -1</clus>
<clus scale="  143.164">  2  9  1 -1</clus>
<clus scale="  411.078">  7 10 -1 -1</clus>
<clus scale="  143.164">  2  5  1 -1</clus>
</clustering>
</event>
<event>
10    4  0.2759992E-005  0.2738235E+03  0.7546771E-02  0.1135021E+00
         -1   -1    0    0    0  501 -0.00000000000E+00  0.00000000000E+00  0.47436596001E+03  0.47436596001E+03  0.00000000000E+00 0.  1.
         21   -1    0    0  503  502  0.00000000000E+00 -0.00000000000E+00 -0.33781711744E+03  0.33781711744E+03  0.00000000000E+00 0.  1.
         24    2    1    2    0    0  0.12633091038E+02 -0.77925899181E+02  0.36103419469E+03  0.37839737253E+03  0.81282476908E+02 0.  0.
         23    2    1    2    0    0  0.55506060953E+02 -0.67315318686E+02  0.14296016790E+01  0.12573771831E+03  0.90529857580E+02 0.  0.
        -11    1    3    3    0    0 -0.15832721989E+02 -0.81354951432E+02  0.29467803313E+03  0.30611182012E+03  0.00000000000E+00 0.  1.
         12    1    3    3    0    0  0.28465813027E+02  0.34290522513E+01  0.66356161555E+02  0.72285552408E+02  0.00000000000E+00 0. -1.
        -11    1    4    4    0    0  0.95049896314E+01 -0.74532903219E+02 -0.14503122441E+02  0.76523454252E+02  0.00000000000E+00 0.  1.
         11    1    4    4    0    0  0.46001071321E+02  0.72175845325E+01  0.15932724120E+02  0.49214264061E+02  0.00000000000E+00 0. -1.
         21    1    1    2  503  501 -0.26361506152E+02  0.99934375355E+02 -0.37722952232E+02  0.11002195012E+03  0.00000000000E+00 0.  1.
         -2    1    1    2    0  502 -0.41777645839E+02  0.45306842513E+02 -0.18819200156E+03  0.19802603648E+03  0.00000000000E+00 0.  1.
<scales pt_clust_5="13000.00000" pt_clust_6="13000.00000" pt_clust_7="13000.00000" pt_clust_8="13000.00000" pt_clust_9="103.35283" pt_clust_10="13000.00000"></scales>
<clustering>
<clus scale="   81.282">  5  6 -1 -1</clus>
<clus scale="   90.530">  7  8 -1 -1</clus>
<clus scale="   61.629">  7 10 -1 -1</clus>
<clus scale="  103.353">  2  9  1 -1</clus>
<clus scale="  110.979">  1  5  2 -1</clus>
<clus scale="  103.353">  2  5  1 -1</clus>
</clustering>
</event>
<event>
10    4  0.2759992E-005  0.3597488E+03  0.7546771E-02  0.1078130E+00
          2   -1    0    0  503    0 -0.00000000000E+00  0.00000000000E+00  0.48727307870E+03  0.48727307870E+03  0.00000000000E+00 0. -1.
         21   -1    0    0  501  502  0.00000000000E+00 -0.00000000000E+00 -0.15953119833E+04  0.15953119833E+04  0.00000000000E+00 0.  1.
         24    2    1    2    0    0  0.59487014975E+02 -0.18587468672E+03  0.12078947262E+02  0.21092020952E+03  0.79077997595E+02 0.  0.
         23    2    1    2    0    0 -0.12421795948E+03  0.81026962435E+02  0.22115317657E+03  0.28150330269E+03  0.91323117666E+02 0.  0.
        -11    1    3    3    0    0  0.13911704572E+02 -0.60206844371E+02 -0.32739004337E+02  0.69930265538E+02  0.00000000000E+00 0.  1.
         12    1    3    3    0    0  0.45575310403E+02 -0.12566784234E+03  0.44817951599E+02  0.14098994398E+03  0.00000000000E+00 0. -1.
        -11    1    4    4    0    0 -0.11560154100E+03  0.57149089425E+02  0.22128421689E+03  0.25611801840E+03  0.00000000000E+00 0. -1.
         11    1    4    4    0    0 -0.86164184840E+01  0.23877873009E+02 -0.13104032441E+00  0.25385284291E+02  0.00000000000E+00 0.  1.
         21    1    1    2  503  502  0.91509520678E+02  0.22857584555E+03 -0.14199319951E+04  0.14411203212E+04  0.00000000000E+00 0.  1.
          1    1    1    2  501    0 -0.26778576169E+02 -0.12372812127E+03  0.78660966665E+02  0.14904122856E+03  0.00000000000E+00 0. -1.
<scales pt_clust_5="13000.00000" pt_clust_6="13000.00000" pt_clust_7="13000.00000" pt_clust_8="13000.00000" pt_clust_9="241.99688" pt_clust_10="13000.00000"></scales>
<clustering>
<clus scale="   79.078">  5  6 -1 -1</clus>
<clus scale="   91.323">  7  8 -1 -1</clus>
<clus scale="  126.593">  7 10 -1 -1</clus>
<clus scale="  210.574">  1  5  2 -1</clus>
<clus scale="  241.997">  2  9  1 -1</clus>
<clus scale="  241.997">  2  5  1 -1</clus>
</clustering>
</event>
<event>
10    4  0.2759992E-005  0.2450296E+03  0.7546771E-02  0.1159156E+00
          2   -1    0    0  503    0 -0.00000000000E+00  0.00000000000E+00  0.17409154503E+03  0.17409154503E+03  0.00000000000E+00 0. -1.
         21   -1    0    0  501  502  0.00000000000E+00 -0.00000000000E+00 -0.27613357027E+03  0.27613357027E+03  0.00000000000E+00 0.  1.
         24    2    1    2    0    0  0.15817821970E+02  0.24799521102E+02 -0.22435322947E+02  0.87978946095E+02  0.79823126358E+02 0.  0.
         23    2    1    2    0    0  0.34087827889E+02 -0.71595511354E+02  0.10431563362E+03  0.16156941197E+03  0.94525267570E+02 0.  0.
        -13    1    3    3    0    0  0.36293896187E+02  0.39832984725E+02 -0.29736647212E+02  0.61548206797E+02  0.00000000000E+00 0.  1.
         14    1    3    3    0    0 -0.20476074217E+02 -0.15033463622E+02  0.73013242648E+01  0.26430739298E+02  0.00000000000E+00 0. -1.
        -13    1    4    4    0    0  0.27187718790E+02  0.17995219601E+02  0.36865486964E+02  0.49214470541E+02  0.00000000000E+00 0. -1.
         13    1    4    4    0    0  0.69001090991E+01 -0.89590730956E+02  0.67450146658E+02  0.11235494143E+03  0.00000000000E+00 0.  1.
         21    1    1    2  503  502 -0.86827384880E+01  0.23048623517E+02 -0.11033412879E+03  0.11304976325E+03  0.00000000000E+00 0.  1.
          1    1    1    2  501    0 -0.41222911371E+02  0.23747366735E+02 -0.73588207117E+02  0.87626993988E+02  0.00000000000E+00 0. -1.
<scales pt_clust_5="13000.00000" pt_clust_6="13000.00000" pt_clust_7="13000.00000" pt_clust_8="13000.00000" pt_clust_9="24.62984" pt_clust_10="13000.00000"></scales>
<clustering>
<clus scale="   24.630">  2  9  1 -1</clus>
<clus scale="   79.823">  5  6 -1 -1</clus>
<clus scale="   87.160">  1  5  2 -1</clus>
<clus scale="   94.525">  7  8 -1 -1</clus>
<clus scale="   58.270">  7 10 -1 -1</clus>
<clus scale="   24.630">  2  5  1 -1</clus>
</clustering>
</event>
<event>
10    4  0.2951864E-005  0.2574524E+03  0.7546771E-02  0.1137599E+00
         21   -1    0    0  501  502  0.00000000000E+00  0.00000000000E+00  0.51485409571E+03  0.51485409571E+03  0.00000000000E+00 0. -1.
         -1   -1    0    0    0  501 -0.00000000000E+00 -0.00000000000E+00 -0.26732916324E+03  0.26732916324E+03  0.00000000000E+00 0.  1.
         24    2    1    2    0    0 -0.89073297640E+02 -0.39760992789E+02 -0.65972636748E+00  0.12544806475E+03  0.78878341832E+02 0.  0.
         23    2    1    2    0    0 -0.55442093834E+02 -0.47761510074E+01 -0.84047598232E+02  0.13463950078E+03  0.89258943609E+02 0.  0.
        -13    1    3    3    0    0 -0.10391478092E+03 -0.36709469129E+02  0.93654762642E+00  0.11021226765E+03  0.00000000000E+00 0.  1.
         14    1    3    3    0    0  0.14841483283E+02 -0.30515236603E+01 -0.15962739939E+01  0.15235797103E+02  0.00000000000E+00 0. -1.
        -13    1    4    4    0    0 -0.30834458448E+02  0.41338795370E+02 -0.52471505636E+02  0.73572540626E+02  0.00000000000E+00 0.  1.
         13    1    4    4    0    0 -0.24607635386E+02 -0.46114946377E+02 -0.31576092596E+02  0.61066960153E+02  0.00000000000E+00 0. -1.
         21    1    1    2  503  502  0.30255822081E+02 -0.49575754130E+02  0.36573939896E+03  0.37032212750E+03  0.00000000000E+00 0. -1.
         -2    1    1    2    0  503  0.11425956939E+03  0.94112897926E+02 -0.33507141898E+02  0.15177356592E+03  0.00000000000E+00 0.  1.
<scales pt_clust_5="13000.00000" pt_clust_6="13000.00000" pt_clust_7="13000.00000" pt_clust_8="13000.00000" pt_clust_9="58.07900" pt_clust_10="13000.00000"></scales>
<clustering>
<clus scale="   58.079">  1  9  2 -1</clus>
<clus scale="   78.878">  5  6 -1 -1</clus>
<clus scale="   89.259">  7  8 -1 -1</clus>
<clus scale="  125.422">  2  5  1 -1</clus>
<clus scale="  102.226">  7 10 -1 -1</clus>
<clus scale="   58.079">  1  5  2 -1</clus>
</clustering>
</event>
<event>
10    4  0.2759992E-005  0.2103387E+03  0.7546771E-02  0.1178654E+00
          2   -1    0    0  502    0 -0.00000000000E+00  0.00000000000E+00  0.74528083526E+03  0.74528083526E+03  0.00000000000E+00 0. -1.
         21   -1    0    0  503  502  0.00000000000E+00 -0.00000000000E+00 -0.83994207683E+02  0.83994207683E+02  0.00000000000E+00 0.  1.
         24    2    1    2    0    0  0.31345187207E+02  0.47053372490E+01  0.19084081652E+03  0.21006117077E+03  0.81858519748E+02 0.  0.
         23    2    1    2    0    0 -0.78736090008E+02  0.34578605059E+02  0.37964948573E+03  0.40073887452E+03  0.95199063763E+02 0.  0.
        -13    1    3    3    0    0  0.51895526208E+02 -0.75925213748E+01  0.73457038300E+02  0.90259229429E+02  0.00000000000E+00 0.  1.
         14    1    3    3    0    0 -0.20550339002E+02  0.12297858624E+02  0.11738377822E+03  0.11980194134E+03  0.00000000000E+00 0. -1.
        -11    1    4    4    0    0 -0.43325464966E+02  0.67257867998E+02  0.24447050543E+03  0.25722858462E+03  0.00000000000E+00 0. -1.
         11    1    4    4    0    0 -0.35410625041E+02 -0.32679262939E+02  0.13517898030E+03  0.14351028990E+03  0.00000000000E+00 0.  1.
         21    1    1    2  503  501 -0.23592442085E+01  0.21127061206E+02 -0.51701475629E+02  0.55901353567E+02  0.00000000000E+00 0.  1.
          1    1    1    2  501    0  0.49750147009E+02 -0.60411003514E+02  0.14249780096E+03  0.16257364408E+03  0.00000000000E+00 0. -1.
<scales pt_clust_5="13000.00000" pt_clust_6="13000.00000" pt_clust_7="13000.00000" pt_clust_8="13000.00000" pt_clust_9="21.25838" pt_clust_10="13000.00000"></scales>
<clustering>
<clus scale="   21.258">  2  9  1 -1</clus>
<clus scale="   81.859">  5  6 -1 -1</clus>
<clus scale="   88.133">  1  5  2 -1</clus>
<clus scale="   95.199">  7  8 -1 -1</clus>
<clus scale="   75.814">  7 10 -1 -1</clus>
<clus scale="   21.258">  2  5  1 -1</clus>
</clustering>
</event>
<event>
10    4  0.2759992E-005  0.1699022E+03  0.7546771E-02  0.1184309E+00
         21   -1    0    0  503  502  0.00000000000E+00  0.00000000000E+00  0.11601405025E+03  0.11601405025E+03  0.00000000000E+00 0. -1.
          2   -1    0    0  502    0 -0.00000000000E+00 -0.00000000000E+00 -0.11650814425E+04  0.11650814425E+04  0.00000000000E+00 0. -1.
         24    2    1    2    0    0  0.43852881825E+02 -0.12458726323E+03 -0.33432473424E+03  0.36886585751E+03  0.82728057566E+02 0.  0.
         23    2    1    2    0    0 -0.43732779308E+02  0.53206033187E+02 -0.52879731097E+03  0.54092405344E+03  0.90712719852E+02 0.  0.
        -13    1    3    3    0    0 -0.87715759516E+01 -0.84354380360E+02 -0.14137670272E+03  0.16486350143E+03  0.00000000000E+00 0.  1.
         14    1    3    3    0    0  0.52624457777E+02 -0.40232882866E+02 -0.19294803152E+03  0.20400235608E+03  0.00000000000E+00 0. -1.
        -11    1    4    4    0    0  0.26468135231E+02  0.28034138009E+02 -0.15167769474E+03  0.15650111232E+03  0.00000000000E+00 0.  1.
         11    1    4    4    0    0 -0.70200914539E+02  0.25171895178E+02 -0.37711961623E+03  0.38442294112E+03  0.00000000000E+00 0. -1.
         21    1    1    2  503  501  0.83045952694E+01  0.19668676891E+02  0.88942480883E+02  0.91469055198E+02  0.00000000000E+00 0. -1.
          1    1    1    2  501    0 -0.84246977864E+01  0.51712553148E+02 -0.27488782796E+03  0.27983652664E+03  0.00000000000E+00 0. -1.
<scales pt_clust_5="13000.00000" pt_clust_6="13000.00000" pt_clust_7="13000.00000" pt_clust_8="13000.00000" pt_clust_9="21.35002" pt_clust_10="13000.00000"></scales>
<clustering>
<clus scale="   21.350">  1  9  2 -1</clus>
<clus scale="   82.728">  5  6 -1 -1</clus>
<clus scale="   90.713">  7  8 -1 -1</clus>
<clus scale="   54.138">  7 10 -1 -1</clus>
<clus scale="  147.312">  2  5  1 -1</clus>
<clus scale="   21.350">  1  5  2 -1</clus>
</clustering>
</event>
<event>
10    4  0.2759992E-005  0.2452317E+03  0.7546771E-02  0.1145067E+00
         21   -1    0    0  501  502  0.00000000000E+00  0.00000000000E+00  0.40478813036E+03  0.40478813036E+03  0.00000000000E+00 0.  1.
          2   -1    0    0  503    0 -0.00000000000E+00 -0.00000000000E+00 -0.15266362217E+03  0.15266362217E+03  0.00000000000E+00 0. -1.
         24    2    1    2    0    0 -0.62830903299E+02  0.45248812095E+02  0.19902508415E+03  0.22806823758E+03  0.80055977077E+02 0.  0.
         23    2    1    2    0    0  0.37289218746E+02  0.59317357108E+02 -0.53369787910E+02  0.12699251229E+03  0.91486224243E+02 0.  0.
        -11    1    3    3    0    0 -0.74943551552E+02  0.51984734326E+02  0.13749432367E+03  0.16499587135E+03  0.00000000000E+00 0.  1.
         12    1    3    3    0    0  0.12112648253E+02 -0.67359222315E+01  0.61530760477E+02  0.63072366222E+02  0.00000000000E+00 0. -1.
        -11    1    4    4    0    0 -0.28479307138E+02  0.13414940332E+02 -0.15775066323E+01  0.31520153654E+02  0.00000000000E+00 0.  1.
         11    1    4    4    0    0  0.65768525884E+02  0.45902416776E+02 -0.51792281278E+02  0.95472358632E+02  0.00000000000E+00 0. -1.
         21    1    1    2  503  502 -0.22460457831E+02  0.38461792944E+01  0.76886225959E+02  0.80192000869E+02  0.00000000000E+00 0.  1.
          1    1    1    2  501    0  0.48002142384E+02 -0.10841234850E+03  0.29582985987E+02  0.12219900180E+03  0.00000000000E+00 0. -1.
<scales pt_clust_5="13000.00000" pt_clust_6="13000.00000" pt_clust_7="13000.00000" pt_clust_8="13000.00000" pt_clust_9="22.78739" pt_clust_10="13000.00000"></scales>
<clustering>
<clus scale="   22.787">  1  9  2 -1</clus>
<clus scale="   80.056">  5  6 -1 -1</clus>
<clus scale="   91.486">  7  8 -1 -1</clus>
<clus scale="  115.715">  7 10 -1 -1</clus>
<clus scale="  121.251">  2  5  1 -1</clus>
<clus scale="   22.787">  1  5  2 -1</clus>
</clustering>
</event>
<event>
10    4  0.2759992E-005  0.2096762E+03  0.7546771E-02  0.1160537E+00
         21   -1    0    0  503  502  0.00000000000E+00  0.00000000000E+00  0.12545787360E+03  0.12545787360E+03  0.00000000000E+00 0.  1.
          2   -1    0    0  502    0 -0.00000000000E+00 -0.00000000000E+00 -0.66003601622E+03  0.66003601622E+03  0.00000000000E+00 0. -1.
         24    2    1    2    0    0 -0.10127170255E+03 -0.47517250079E+02 -0.53069442402E+03  0.54820933379E+03  0.79894024656E+02 0.  0.
         23    2    1    2    0    0  0.33577192820E+02  0.63065420046E+02  0.31199443206E+02  0.12056056146E+03  0.91960690739E+02 0.  0.
        -11    1    3    3    0    0 -0.53861071091E+02 -0.47598441333E+02 -0.17229154885E+03  0.18668423715E+03  0.00000000000E+00 0.  1.
         12    1    3    3    0    0 -0.47410631456E+02  0.81191254275E-01 -0.35840287517E+03  0.36152509664E+03  0.00000000000E+00 0. -1.
        -11    1    4    4    0    0  0.19172115513E+02  0.25986378569E+02  0.62229906376E+02  0.70110078676E+02  0.00000000000E+00 0.  1.
         11    1    4    4    0    0  0.14405077307E+02  0.37079041477E+02 -0.31030463170E+02  0.50450482789E+02  0.00000000000E+00 0. -1.
         21    1    1    2  503  501  0.29028757732E+02  0.29955695737E+02  0.87857191008E+01  0.42628644626E+02  0.00000000000E+00 0.  1.
          1    1    1    2  501    0  0.38665751995E+02 -0.45503865704E+02 -0.43868880910E+02  0.74095349946E+02  0.00000000000E+00 0. -1.
<scales pt_clust_5="13000.00000" pt_clust_6="13000.00000" pt_clust_7="13000.00000" pt_clust_8="13000.00000" pt_clust_9="41.71346" pt_clust_10="13000.00000"></scales>
<clustering>
<clus scale="   41.713">  1  9  2 -1</clus>
<clus scale="   79.894">  5  6 -1 -1</clus>
<clus scale="   91.961">  7  8 -1 -1</clus>
<clus scale="   59.436">  7 10 -1 -1</clus>
<clus scale="  134.700">  2  5  1 -1</clus>
<clus scale="   41.713">  1  5  2 -1</clus>
</clustering>
</event>
<event>
10    4  0.2759992E-005  0.4514769E+03  0.7546771E-02  0.1033675E+00
         21   -1    0    0  501  502  0.00000000000E+00  0.00000000000E+00  0.28941715703E+03  0.28941715703E+03  0.00000000000E+00 0. -1.
          4   -1    0    0  503    0 -0.00000000000E+00 -0.00000000000E+00 -0.98219458611E+03  0.98219458611E+03  0.00000000000E+00 0. -1.
         24    2    1    2    0    0 -0.33336566372E+03  0.42834164259E+02  0.49943765627E+02  0.35031826531E+03  0.85211946997E+02 0.  0.
         23    2    1    2    0    0  0.26655362474E+03  0.63968181840E+02 -0.60286733761E+03  0.66852858478E+03  0.91316366357E+02 0.  0.
        -11    1    3    3    0    0 -0.60401446369E+02 -0.13352294601E+02 -0.16083809992E+02  0.63916409774E+02  0.00000000000E+00 0.  1.
         12    1    3    3    0    0 -0.27296421735E+03  0.56186458860E+02  0.66027575619E+02  0.28640185554E+03  0.00000000000E+00 0. -1.
        -11    1    4    4    0    0  0.12342222988E+03  0.43861992653E+02 -0.18740822291E+03  0.22864549688E+03  0.00000000000E+00 0.  1.
         11    1    4    4    0    0  0.14313139486E+03  0.20106189187E+02 -0.41545911470E+03  0.43988308790E+03  0.00000000000E+00 0. -1.
         21    1    1    2  503  502 -0.36161199735E+02  0.44954887086E+01  0.11810397396E+02  0.38305708081E+02  0.00000000000E+00 0.  1.
          3    1    1    2  501    0  0.10297323871E+03 -0.11129783481E+03 -0.15166425450E+03  0.21445918496E+03  0.00000000000E+00 0. -1.
<scales pt_clust_5="13000.00000" pt_clust_6="13000.00000" pt_clust_7="13000.00000" pt_clust_8="13000.00000" pt_clust_9="36.43956" pt_clust_10="13000.00000"></scales>
<clustering>
<clus scale="   36.440">  1  9  2 -1</clus>
<clus scale="   85.212">  5  6 -1 -1</clus>
<clus scale="   91.316">  7  8 -1 -1</clus>
<clus scale="  148.345">  7 10 -1 -1</clus>
<clus scale="  373.542">  2  5  1 -1</clus>
<clus scale="   36.440">  1  5  2 -1</clus>
</clustering>
</event>
<event>
10    4  0.2759992E-005  0.3371782E+03  0.7546771E-02  0.1113407E+00
         21   -1    0    0  501  502  0.00000000000E+00  0.00000000000E+00  0.69721691371E+02  0.69721691371E+02  0.00000000000E+00 0. -1.
          4   -1    0    0  503    0 -0.00000000000E+00 -0.00000000000E+00 -0.89665662204E+03  0.89665662204E+03  0.00000000000E+00 0. -1.
         24    2    1    2    0    0  0.36450989392E+02  0.47687331828E+02 -0.30695354720E+03  0.32291485036E+03  0.80316649570E+02 0.  0.
         23    2    1    2    0    0 -0.45105445704E+02  0.12662533894E+03 -0.19681012187E+03  0.25501640697E+03  0.90723018341E+02 0.  0.
        -13    1    3    3    0    0 -0.22093784051E+02  0.11014091700E+02 -0.14119136018E+03  0.14333333771E+03  0.00000000000E+00 0.  1.
         14    1    3    3    0    0  0.58544773444E+02  0.36673240128E+02 -0.16576218702E+03  0.17958151265E+03  0.00000000000E+00 0. -1.
        -13    1    4    4    0    0  0.23222925885E+02  0.75056935787E+01 -0.36800240032E+02  0.44157642478E+02  0.00000000000E+00 0.  1.
         13    1    4    4    0    0 -0.68328371589E+02  0.11911964536E+03 -0.16000988184E+03  0.21085876449E+03  0.00000000000E+00 0. -1.
         21    1    1    2  503  502  0.28456821978E+02 -0.11547990157E+01 -0.10259593118E+02  0.30271827312E+02  0.00000000000E+00 0. -1.
          3    1    1    2  501    0 -0.19802365667E+02 -0.17315787176E+03 -0.31291166848E+03  0.35817522878E+03  0.00000000000E+00 0. -1.
<scales pt_clust_5="13000.00000" pt_clust_6="13000.00000" pt_clust_7="13000.00000" pt_clust_8="13000.00000" pt_clust_9="28.48024" pt_clust_10="13000.00000"></scales>
<clustering>
<clus scale="   28.480">  1  9  2 -1</clus>
<clus scale="   80.317">  5  6 -1 -1</clus>
<clus scale="   90.723">  7  8 -1 -1</clus>
<clus scale="  101.639">  2  5  1 -1</clus>
<clus scale="  145.967">  7 10 -1 -1</clus>
<clus scale="   28.480">  1  5  2 -1</clus>
</clustering>
</event>
<event>
10    4  0.2759992E-005  0.1232246E+03  0.7546771E-02  0.1249860E+00
          2   -1    0    0  503    0 -0.00000000000E+00  0.00000000000E+00  0.60802569467E+03  0.60802569467E+03  0.00000000000E+00 0. -1.
         21   -1    0    0  501  502  0.00000000000E+00 -0.00000000000E+00 -0.24886911803E+03  0.24886911803E+03  0.00000000000E+00 0. -1.
         24    2    1    2    0    0 -0.72419527203E+02 -0.65404557248E+02  0.21254546292E+03  0.24751616247E+03  0.81032912109E+02 0.  0.
         23    2    1    2    0    0  0.49903894328E+01  0.40329308376E+01  0.27001222667E+03  0.28450226470E+03  0.89407871840E+02 0.  0.
        -11    1    3    3    0    0 -0.30153332162E+02 -0.15710120293E+02  0.11093797995E+02  0.35764558910E+02  0.00000000000E+00 0.  1.
         12    1    3    3    0    0 -0.42266195042E+02 -0.49694436955E+02  0.20145166492E+03  0.21175160356E+03  0.00000000000E+00 0. -1.
        -11    1    4    4    0    0  0.34626724467E+02 -0.29050399341E+02  0.13937329209E+03  0.14651911239E+03  0.00000000000E+00 0.  1.
         11    1    4    4    0    0 -0.29636335035E+02  0.33083330179E+02  0.13063893459E+03  0.13798315231E+03  0.00000000000E+00 0. -1.
         21    1    1    2  503  502  0.58824009459E+02  0.37185698435E+02 -0.21696604288E+03  0.22785368994E+03  0.00000000000E+00 0. -1.
          1    1    1    2  501    0  0.86051283113E+01  0.24185927975E+02  0.93564929932E+02  0.97022695584E+02  0.00000000000E+00 0. -1.
<scales pt_clust_5="13000.00000" pt_clust_6="13000.00000" pt_clust_7="13000.00000" pt_clust_8="13000.00000" pt_clust_9="69.59196" pt_clust_10="13000.00000"></scales>
<clustering>
<clus scale="   69.592">  2  9  1 -1</clus>
<clus scale="   81.033">  5  6 -1 -1</clus>
<clus scale="   89.408">  7  8 -1 -1</clus>
<clus scale="   29.383">  7 10 -1 -1</clus>
<clus scale="   96.741">  1  5  2 -1</clus>
<clus scale="   69.592">  2  5  1 -1</clus>
</clustering>
</event>
<event>
10    4  0.2759992E-005  0.2279381E+03  0.7546771E-02  0.1159160E+00
         21   -1    0    0  503  502  0.00000000000E+00  0.00000000000E+00  0.87529797979E+02  0.87529797979E+02  0.00000000000E+00 0. -1.
          2   -1    0    0  502    0 -0.00000000000E+00 -0.00000000000E+00 -0.93031925013E+03  0.93031925013E+03  0.00000000000E+00 0. -1.
         24    2    1    2    0    0 -0.32963277707E+02 -0.32681899863E+02  0.26279112290E+02  0.96598124390E+02  0.80535219855E+02 0.  0.
         23    2    1    2    0    0  0.77798509063E+02 -0.44319483956E+02 -0.28024296970E+03  0.30529152782E+03  0.81547349589E+02 0.  0.
        -13    1    3    3    0    0 -0.26614147291E+02 -0.45494942262E+02 -0.13430748213E+02  0.54391981073E+02  0.00000000000E+00 0.  1.
         14    1    3    3    0    0 -0.63491304164E+01  0.12813042400E+02  0.39709860502E+02  0.42206143317E+02  0.00000000000E+00 0. -1.
        -11    1    4    4    0    0  0.24166440282E+02 -0.59691108521E+02 -0.16871042803E+03  0.18058309389E+03  0.00000000000E+00 0. -1.
         11    1    4    4    0    0  0.53632068780E+02  0.15371624565E+02 -0.11153254166E+03  0.12470843393E+03  0.00000000000E+00 0.  1.
         21    1    1    2  503  501 -0.37730294604E+02 -0.33149830236E+01 -0.22776501593E+02  0.44196530047E+02  0.00000000000E+00 0. -1.
          1    1    1    2  501    0 -0.71049367513E+01  0.80316366842E+02 -0.56604909315E+03  0.57176286585E+03  0.00000000000E+00 0. -1.
<scales pt_clust_5="13000.00000" pt_clust_6="13000.00000" pt_clust_7="13000.00000" pt_clust_8="13000.00000" pt_clust_9="37.87564" pt_clust_10="13000.00000"></scales>
<clustering>
<clus scale="   37.876">  1  9  2 -1</clus>
<clus scale="   80.535">  5  6 -1 -1</clus>
<clus scale="   81.547">  7  8 -1 -1</clus>
<clus scale="   80.643">  7 10 -1 -1</clus>
<clus scale="  108.263">  2  5  1 -1</clus>
<clus scale="   37.876">  1  5  2 -1</clus>
</clustering>
</event>
<event>
10    4  0.2759992E-005  0.7253599E+03  0.7546771E-02  0.9982910E-01
         21   -1    0    0  503  502  0.00000000000E+00  0.00000000000E+00  0.10250999965E+04  0.10250999965E+04  0.00000000000E+00 0. -1.
          2   -1    0    0  502    0 -0.00000000000E+00 -0.00000000000E+00 -0.62401163991E+03  0.62401163991E+03  0.00000000000E+00 0. -1.
         24    2    1    2    0    0  0.88736065179E+02 -0.24156786180E+03 -0.41622183702E+03  0.49593726897E+03  0.80523512272E+02 0.  0.
         23    2    1    2    0    0  0.16410373347E+03 -0.21296259689E+03  0.29806400614E+03  0.41001436546E+03  0.83585436015E+02 0.  0.
        -11    1    3    3    0    0  0.14776303785E+02 -0.15538647781E+03 -0.24116614293E+03  0.28727061307E+03  0.00000000000E+00 0.  1.
         12    1    3    3    0    0  0.73959761394E+02 -0.86181383984E+02 -0.17505569409E+03  0.20866665590E+03  0.00000000000E+00 0. -1.
        -11    1    4    4    0    0  0.63800658928E+02 -0.74995988941E+02  0.17097678682E+03  0.19730175891E+03  0.00000000000E+00 0. -1.
         11    1    4    4    0    0  0.10030307454E+03 -0.13796660795E+03  0.12708721932E+03  0.21271260655E+03  0.00000000000E+00 0.  1.
         21    1    1    2  503  501 -0.76649863731E+02  0.77186070265E+02  0.15821301649E+03  0.19200065011E+03  0.00000000000E+00 0. -1.
          1    1    1    2  501    0 -0.17618993492E+03  0.37734438842E+03  0.36103317101E+03  0.55115935191E+03  0.00000000000E+00 0. -1.
<scales pt_clust_5="13000.00000" pt_clust_6="13000.00000" pt_clust_7="13000.00000" pt_clust_8="13000.00000" pt_clust_9="108.77909" pt_clust_10="13000.00000"></scales>
<clustering>
<clus scale="   80.524">  5  6 -1 -1</clus>
<clus scale="   83.585">  7  8 -1 -1</clus>
<clus scale="  108.779">  1  9  2 -1</clus>
<clus scale="  265.241">  2  5  1 -1</clus>
<clus scale="  296.352">  7 10 -1 -1</clus>
<clus scale="  108.779">  1  5  2 -1</clus>
</clustering>
</event>
<event>
10    4  0.2759992E-005  0.2474351E+03  0.7546771E-02  0.1139907E+00
         21   -1    0    0  501  502  0.00000000000E+00  0.00000000000E+00  0.62858365630E+03  0.62858365630E+03  0.00000000000E+00 0.  1.
          2   -1    0    0  503    0 -0.00000000000E+00 -0.00000000000E+00 -0.19069444086E+03  0.19069444086E+03  0.00000000000E+00 0. -1.
         24    2    1    2    0    0  0.81990950143E+02  0.21951184965E+02 -0.11801518706E+03  0.17835846525E+03  0.10334305648E+03 0.  0.
         23    2    1    2    0    0 -0.64240435510E+01 -0.10442779010E+03  0.27660085703E+03  0.31059108600E+03  0.94933434087E+02 0.  0.
        -13    1    3    3    0    0  0.25063422873E+01  0.39309840445E+02 -0.58920825309E+01  0.39827904088E+02  0.00000000000E+00 0.  1.
         14    1    3    3    0    0  0.79484607856E+02 -0.17358655480E+02 -0.11212310453E+03  0.13853056116E+03  0.00000000000E+00 0. -1.
        -11    1    4    4    0    0 -0.32864984234E+02 -0.59422904329E+02  0.23263993667E+03  0.24234795003E+03  0.00000000000E+00 0.  1.
         11    1    4    4    0    0  0.26440940683E+02 -0.45004885775E+02  0.43960920357E+02  0.68243135966E+02  0.00000000000E+00 0. -1.
         21    1    1    2  503  502 -0.99050289277E+01  0.26145472066E+02  0.22808021834E+03  0.22978746986E+03  0.00000000000E+00 0.  1.
          1    1    1    2  501    0 -0.65661877664E+02  0.56331133072E+02  0.51223327136E+02  0.10054107606E+03  0.00000000000E+00 0. -1.
<scales pt_clust_5="13000.00000" pt_clust_6="13000.00000" pt_clust_7="13000.00000" pt_clust_8="13000.00000" pt_clust_9="27.95881" pt_clust_10="13000.00000"></scales>
<clustering>
<clus scale="   27.959">  1  9  2 -1</clus>
<clus scale="   94.933">  7  8 -1 -1</clus>
<clus scale="   91.209">  7 10 -1 -1</clus>
<clus scale="  103.343">  5  6 -1 -1</clus>
<clus scale="  133.614">  2  5  1 -1</clus>
<clus scale="   27.959">  1  5  2 -1</clus>
</clustering>
</event>
<event>
10    4  0.2759992E-005  0.1574947E+03  0.7546771E-02  0.1215684E+00
         21   -1    0    0  501  502  0.00000000000E+00  0.00000000000E+00  0.19207548714E+03  0.19207548714E+03  0.00000000000E+00 0.  1.
          2   -1    0    0  503    0 -0.00000000000E+00 -0.00000000000E+00 -0.59957836808E+03  0.59957836808E+03  0.00000000000E+00 0. -1.
         24    2    1    2    0    0 -0.25121578000E+02 -0.56518624082E+02 -0.46840098475E+03  0.47760325452E+03  0.69856550574E+02 0.  0.
         23    2    1    2    0    0  0.19330497012E+02  0.13862361835E+02 -0.84078965620E+02  0.12696192174E+03  0.92109847042E+02 0.  0.
        -11    1    3    3    0    0 -0.44913200736E+02 -0.22312992055E+02 -0.19428510745E+03  0.20065335330E+03  0.00000000000E+00 0.  1.
         12    1    3    3    0    0  0.19791622736E+02 -0.34205632028E+02 -0.27411587730E+03  0.27694990122E+03  0.00000000000E+00 0. -1.
        -11    1    4    4    0    0 -0.22835141435E+02 -0.24362911732E+02 -0.51517008281E+02  0.61392159879E+02  0.00000000000E+00 0. -1.
         11    1    4    4    0    0  0.42165638447E+02  0.38225273567E+02 -0.32561957339E+02  0.65569761862E+02  0.00000000000E+00 0.  1.
         21    1    1    2  503  502 -0.29486847550E+02  0.87194176686E+01  0.13325042657E+03  0.13675225265E+03  0.00000000000E+00 0.  1.
          1    1    1    2  501    0  0.35277928538E+02  0.33936844579E+02  0.11726642865E+02  0.50336426321E+02  0.00000000000E+00 0. -1.
<scales pt_clust_5="13000.00000" pt_clust_6="13000.00000" pt_clust_7="13000.00000" pt_clust_8="13000.00000" pt_clust_9="30.74902" pt_clust_10="13000.00000"></scales>
<clustering>
<clus scale="   30.749">  1  9  2 -1</clus>
<clus scale="   69.857">  5  6 -1 -1</clus>
<clus scale="   92.110">  7  8 -1 -1</clus>
<clus scale="   43.201">  7 10 -1 -1</clus>
<clus scale="   93.549">  2  5  1 -1</clus>
<clus scale="   30.749">  1  5  2 -1</clus>
</clustering>
</event>
<event>
10    4  0.2759992E-005  0.3610595E+03  0.7546771E-02  0.1088711E+00
         21   -1    0    0  501  502  0.00000000000E+00  0.00000000000E+00  0.42641544378E+03  0.42641544378E+03  0.00000000000E+00 0. -1.
          2   -1    0    0  503    0 -0.00000000000E+00 -0.00000000000E+00 -0.43330242777E+03  0.43330242777E+03  0.00000000000E+00 0. -1.
         24    2    1    2    0    0 -0.29952378151E+01 -0.13504955830E+03 -0.27305544076E+03  0.31555018161E+03  0.82251375276E+02 0.  0.
         23    2    1    2    0    0  0.16424645006E+03  0.73608039053E+02  0.22665272559E+02  0.20349527064E+03  0.92203963170E+02 0.  0.
        -13    1    3    3    0    0  0.42649598439E+01 -0.52369688960E+02 -0.34219063636E+02  0.62703417135E+02  0.00000000000E+00 0.  1.
         14    1    3    3    0    0 -0.72601976590E+01 -0.82679869336E+02 -0.23883637713E+03  0.25284676447E+03  0.00000000000E+00 0. -1.
        -13    1    4    4    0    0  0.97758718184E+02  0.89409098639E+02  0.26278004206E+02  0.13506031025E+03  0.00000000000E+00 0. -1.
         13    1    4    4    0    0  0.66487731873E+02 -0.15801059586E+02 -0.36127316469E+01  0.68434960390E+02  0.00000000000E+00 0.  1.
         21    1    1    2  503  502 -0.18853765527E+02  0.17594779543E+02  0.17463887791E+03  0.17653265539E+03  0.00000000000E+00 0. -1.
          1    1    1    2  501    0 -0.14239744671E+03  0.43846739700E+02  0.68864306314E+02  0.16413976391E+03  0.00000000000E+00 0. -1.
<scales pt_clust_5="13000.00000" pt_clust_6="13000.00000" pt_clust_7="13000.00000" pt_clust_8="13000.00000" pt_clust_9="25.78838" pt_clust_10="13000.00000"></scales>
<clustering>
<clus scale="   25.788">  1  9  2 -1</clus>
<clus scale="   82.251">  5  6 -1 -1</clus>
<clus scale="   92.204">  7  8 -1 -1</clus>
<clus scale="  156.922">  2  5  1 -1</clus>
<clus scale="  152.935">  7 10 -1 -1</clus>
<clus scale="   25.788">  1  5  2 -1</clus>
</clustering>
</event>
<event>
10    4  0.2759992E-005  0.1503257E+03  0.7546771E-02  0.1220638E+00
          2   -1    0    0  502    0 -0.00000000000E+00  0.00000000000E+00  0.55955193730E+03  0.55955193730E+03  0.00000000000E+00 0. -1.
         21   -1    0    0  503  502  0.00000000000E+00 -0.00000000000E+00 -0.40460142713E+02  0.40460142713E+02  0.00000000000E+00 0. -1.
         24    2    1    2    0    0  0.34521366396E+02 -0.28840973029E+02  0.21939700048E+03  0.23794281801E+03  0.80363016125E+02 0.  0.
         23    2    1    2    0    0 -0.30923104499E+02 -0.59640331318E+01  0.14202547059E+03  0.17229448950E+03  0.92316568022E+02 0.  0.
        -13    1    3    3    0    0  0.48061033670E+02  0.11473994597E+02  0.11096382811E+03  0.12146804789E+03  0.00000000000E+00 0.  1.
         14    1    3    3    0    0 -0.13539667274E+02 -0.40314967626E+02  0.10843317237E+03  0.11647477012E+03  0.00000000000E+00 0. -1.
        -13    1    4    4    0    0 -0.43761355678E+02  0.16878526790E+02  0.13803890501E+03  0.14578984948E+03  0.00000000000E+00 0.  1.
         13    1    4    4    0    0  0.12838251180E+02 -0.22842559922E+02  0.39865655877E+01  0.26504640015E+02  0.00000000000E+00 0. -1.
         21    1    1    2  503  501  0.27849052833E+02 -0.12233846154E+02  0.10625572565E+02  0.32220172684E+02  0.00000000000E+00 0. -1.
          1    1    1    2  501    0 -0.31447314731E+02  0.47038852315E+02  0.14704375095E+03  0.15755459982E+03  0.00000000000E+00 0. -1.
<scales pt_clust_5="13000.00000" pt_clust_6="13000.00000" pt_clust_7="13000.00000" pt_clust_8="13000.00000" pt_clust_9="30.41770" pt_clust_10="13000.00000"></scales>
<clustering>
<clus scale="   30.418">  2  9  1 -1</clus>
<clus scale="   80.363">  5  6 -1 -1</clus>
<clus scale="   92.317">  7  8 -1 -1</clus>
<clus scale="   52.119">  7 10 -1 -1</clus>
<clus scale="   96.922">  1  5  2 -1</clus>
<clus scale="   30.418">  2  5  1 -1</clus>
</clustering>
</event>
<event>
10    4  0.2759992E-005  0.2675885E+03  0.7546771E-02  0.1117495E+00
         21   -1    0    0  501  502  0.00000000000E+00  0.00000000000E+00  0.12449635052E+03  0.12449635052E+03  0.00000000000E+00 0.  1.
         -3   -1    0    0    0  501 -0.00000000000E+00 -0.00000000000E+00 -0.60738862959E+03  0.60738862959E+03  0.00000000000E+00 0.  1.
         24    2    1    2    0    0  0.15545191472E+03  0.80807840090E+02 -0.11447272438E+03  0.22590148643E+03  0.85042766499E+02 0.  0.
         23    2    1    2    0    0 -0.44474806032E+02 -0.70827588639E+02 -0.36164224211E+03  0.38167137241E+03  0.88844637168E+02 0.  0.
        -11    1    3    3    0    0  0.98825136335E+02  0.14708286007E+02 -0.92440414414E+02  0.13611749140E+03  0.00000000000E+00 0.  1.
         12    1    3    3    0    0  0.56626778381E+02  0.66099554083E+02 -0.22032309964E+02  0.89783995023E+02  0.00000000000E+00 0. -1.
        -11    1    4    4    0    0 -0.34087774958E+02  0.21271448810E+01 -0.44585974440E+02  0.56164136810E+02  0.00000000000E+00 0. -1.
         11    1    4    4    0    0 -0.10387031074E+02 -0.72954733520E+02 -0.31705626767E+03  0.32550723560E+03  0.00000000000E+00 0.  1.
         21    1    1    2  503  502 -0.30741403585E+02  0.97580737292E+01  0.19398543447E+02  0.37637180887E+02  0.00000000000E+00 0. -1.
         -4    1    1    2    0  503 -0.80235705099E+02 -0.19738325181E+02 -0.26175856023E+02  0.86674940393E+02  0.00000000000E+00 0.  1.
<scales pt_clust_5="13000.00000" pt_clust_6="13000.00000" pt_clust_7="13000.00000" pt_clust_8="13000.00000" pt_clust_9="32.25297" pt_clust_10="13000.00000"></scales>
<clustering>
<clus scale="   32.253">  1  9  2 -1</clus>
<clus scale="   85.043">  5  6 -1 -1</clus>
<clus scale="   88.845">  7  8 -1 -1</clus>
<clus scale="   91.455">  7 10 -1 -1</clus>
<clus scale="  183.427">  2  5  1 -1</clus>
<clus scale="   32.253">  1  5  2 -1</clus>
</clustering>
</event>
<event>
10    4  0.2759992E-005  0.1290471E+03  0.7546771E-02  0.1250804E+00
         -1   -1    0    0    0  501 -0.00000000000E+00  0.00000000000E+00  0.46191421981E+03  0.46191421981E+03  0.00000000000E+00 0.  1.
         21   -1    0    0  501  502  0.00000000000E+00 -0.00000000000E+00 -0.21063341434E+03  0.21063341434E+03  0.00000000000E+00 0. -1.
         24    2    1    2    0    0  0.19786947996E+01 -0.15524131952E+02  0.39228384546E+03  0.40086562628E+03  0.81004450624E+02 0.  0.
         23    2    1    2    0    0 -0.71481311730E+01  0.49621175966E+02 -0.79991838732E+01  0.10374949367E+03  0.90479907220E+02 0.  0.
        -13    1    3    3    0    0 -0.24847829016E+02 -0.39003186773E+02  0.24520589642E+03  0.24952874549E+03  0.00000000000E+00 0.  1.
         14    1    3    3    0    0  0.26826523815E+02  0.23479054822E+02  0.14707794903E+03  0.15133688079E+03  0.00000000000E+00 0. -1.
        -11    1    4    4    0    0 -0.14830124791E+02  0.22592563867E+02  0.39915240768E+02  0.48203557845E+02  0.00000000000E+00 0.  1.
         11    1    4    4    0    0  0.76819936176E+01  0.27028612099E+02 -0.47914424641E+02  0.55545935824E+02  0.00000000000E+00 0. -1.
         21    1    1    2  503  502 -0.15288193146E+02 -0.14830281454E+02 -0.13778943355E+03  0.13942594485E+03  0.00000000000E+00 0. -1.
         -2    1    1    2    0  503  0.20457629519E+02 -0.19266762560E+02  0.47855774321E+01  0.28506569356E+02  0.00000000000E+00 0.  1.
<scales pt_clust_5="13000.00000" pt_clust_6="13000.00000" pt_clust_7="13000.00000" pt_clust_8="13000.00000" pt_clust_9="21.29944" pt_clust_10="13000.00000"></scales>
<clustering>
<clus scale="   21.299">  2  9  1 -1</clus>
<clus scale="   81.004">  5  6 -1 -1</clus>
<clus scale="   82.656">  1  5  2 -1</clus>
<clus scale="   90.480">  7  8 -1 -1</clus>
<clus scale="   31.873">  7 10 -1 -1</clus>
<clus scale="   21.299">  2  5  1 -1</clus>
</clustering>
</event>
<event>
10    4  0.2759992E-005  0.2774099E+03  0.7546771E-02  0.1144876E+00
         21   -1    0    0  503  502  0.00000000000E+00  0.00000000000E+00  0.48143937904E+03  0.48143937904E+03  0.00000000000E+00 0. -1.
          4   -1    0    0  502    0 -0.00000000000E+00 -0.00000000000E+00 -0.12951212677E+04  0.12951212677E+04  0.00000000000E+00 0. -1.
         24    2    1    2    0    0 -0.31799159310E+00  0.31727388925E+02 -0.79962859789E+03  0.80404396077E+03  0.77936307130E+02 0.  0.
         23    2    1    2    0    0 -0.10849364245E+03 -0.31042395883E+02 -0.34955971302E+03  0.37817214964E+03  0.89931535113E+02 0.  0.
        -11    1    3    3    0    0  0.25740431611E+02 -0.10914612534E+02 -0.15658968391E+03  0.15906611108E+03  0.00000000000E+00 0.  1.
         12    1    3    3    0    0 -0.26058423204E+02  0.42642001459E+02 -0.64303891398E+03  0.64497784969E+03  0.00000000000E+00 0. -1.
        -13    1    4    4    0    0 -0.10065923442E+03  0.58100046806E+01 -0.20049524354E+03  0.22442009783E+03  0.00000000000E+00 0. -1.
         13    1    4    4    0    0 -0.78344080320E+01 -0.36852400564E+02 -0.14906446948E+03  0.15375205181E+03  0.00000000000E+00 0.  1.
         21    1    1    2  503  501  0.72363957268E+02 -0.98912730108E+02  0.43374077893E+03  0.45072312321E+03  0.00000000000E+00 0. -1.
          3    1    1    2  501    0  0.36447676776E+02  0.98227737066E+02 -0.98234356670E+02  0.14362141310E+03  0.00000000000E+00 0. -1.
<scales pt_clust_5="13000.00000" pt_clust_6="13000.00000" pt_clust_7="13000.00000" pt_clust_8="13000.00000" pt_clust_9="122.11362" pt_clust_10="13000.00000"></scales>
<clustering>
<clus scale="   77.936">  5  6 -1 -1</clus>
<clus scale="   84.147">  2  5  1 -1</clus>
<clus scale="   89.932">  7  8 -1 -1</clus>
<clus scale="  112.071">  7 10 -1 -1</clus>
<clus scale="  122.114">  1  9  2 -1</clus>
<clus scale="  122.114">  1  5  2 -1</clus>
</clustering>
</event>
<event>
10    4  0.2759992E-005  0.2374950E+03  0.7546771E-02  0.1165784E+00
         21   -1    0    0  501  502  0.00000000000E+00  0.00000000000E+00  0.32545480309E+03  0.32545480309E+03  0.00000000000E+00 0. -1.
          2   -1    0    0  503    0 -0.00000000000E+00 -0.00000000000E+00 -0.40258818778E+03  0.40258818778E+03  0.00000000000E+00 0. -1.
         24    2    1    2    0    0  0.10030450668E+02  0.12430128521E+02 -0.39936240169E+02  0.89159214714E+02  0.78098298662E+02 0.  0.
         23    2    1    2    0    0 -0.40214336273E+02 -0.92783295464E+02 -0.16896609550E+03  0.21718832271E+03  0.91625833323E+02 0.  0.
        -11    1    3    3    0    0  0.28451979562E+02 -0.16448533849E+02 -0.43722514585E+02  0.54696688094E+02  0.00000000000E+00 0.  1.
         12    1    3    3    0    0 -0.18421528895E+02  0.28878662370E+02  0.37862744160E+01  0.34462526620E+02  0.00000000000E+00 0. -1.
        -11    1    4    4    0    0  0.24438361017E+02 -0.51490240896E+02 -0.51057796043E+02  0.76520434745E+02  0.00000000000E+00 0. -1.
         11    1    4    4    0    0 -0.64652697290E+02 -0.41293054568E+02 -0.11790829946E+03  0.14066788796E+03  0.00000000000E+00 0.  1.
         21    1    1    2  503  502  0.41598190089E+02 -0.24532669171E+02  0.25496375624E+03  0.25949716429E+03  0.00000000000E+00 0. -1.
          1    1    1    2  501    0 -0.11414304483E+02  0.10488583611E+03 -0.12319480526E+03  0.16219828916E+03  0.00000000000E+00 0. -1.
<scales pt_clust_5="13000.00000" pt_clust_6="13000.00000" pt_clust_7="13000.00000" pt_clust_8="13000.00000" pt_clust_9="48.29349" pt_clust_10="13000.00000"></scales>
<clustering>
<clus scale="   48.293">  1  9  2 -1</clus>
<clus scale="   78.098">  5  6 -1 -1</clus>
<clus scale="   82.091">  2  5  1 -1</clus>
<clus scale="   91.626">  7  8 -1 -1</clus>
<clus scale="   99.745">  7 10 -1 -1</clus>
<clus scale="   48.293">  1  5  2 -1</clus>
</clustering>
</event>
<event>
10    4  0.2759992E-005  0.4664816E+03  0.7546771E-02  0.1034785E+00
          2   -1    0    0  503    0 -0.00000000000E+00  0.00000000000E+00  0.62500797296E+03  0.62500797296E+03  0.00000000000E+00 0. -1.
         21   -1    0    0  501  502  0.00000000000E+00 -0.00000000000E+00 -0.11239484270E+04  0.11239484270E+04  0.00000000000E+00 0.  1.
         24    2    1    2    0    0  0.52480019721E+02  0.32865265191E+03  0.21778314496E+03  0.40600166832E+03  0.81493179950E+02 0.  0.
         23    2    1    2    0    0 -0.22906159331E+02  0.44803606010E+02  0.22542825461E+02  0.10556069871E+03  0.90015703546E+02 0.  0.
        -11    1    3    3    0    0  0.28049101410E+02  0.64090686522E+02  0.14451496320E+02  0.71436782785E+02  0.00000000000E+00 0.  1.
         12    1    3    3    0    0  0.24430918312E+02  0.26456196539E+03  0.20333164864E+03  0.33456488554E+03  0.00000000000E+00 0. -1.
        -11    1    4    4    0    0 -0.42839171027E+02  0.30159601958E+02  0.47286380378E+02  0.70574768394E+02  0.00000000000E+00 0. -1.
         11    1    4    4    0    0  0.19933011696E+02  0.14644004052E+02 -0.24743554917E+02  0.34985930313E+02  0.00000000000E+00 0.  1.
         21    1    1    2  503  502 -0.12675408551E+03 -0.31741267337E+02 -0.85409500927E+03  0.86403263312E+03  0.00000000000E+00 0.  1.
          1    1    1    2  501    0  0.97180225123E+02 -0.34171499058E+03  0.11482858485E+03  0.37336139978E+03  0.00000000000E+00 0. -1.
<scales pt_clust_5="13000.00000" pt_clust_6="13000.00000" pt_clust_7="13000.00000" pt_clust_8="13000.00000" pt_clust_9="130.66792" pt_clust_10="13000.00000"></scales>
<clustering>
<clus scale="   81.493">  5  6 -1 -1</clus>
<clus scale="   90.016">  7  8 -1 -1</clus>
<clus scale="  130.668">  2  9  1 -1</clus>
<clus scale="  327.756">  1  5  2 -1</clus>
<clus scale="  120.635">  7 10 -1 -1</clus>
<clus scale="  130.668">  2  5  1 -1</clus>
</clustering>
</event>
<event>
10    4  0.2759992E-005  0.3849803E+03  0.7546771E-02  0.1063705E+00
          2   -1    0    0  503    0 -0.00000000000E+00  0.00000000000E+00  0.87869707749E+03  0.87869707749E+03  0.00000000000E+00 0. -1.
         21   -1    0    0  501  502  0.00000000000E+00 -0.00000000000E+00 -0.35189365697E+03  0.35189365697E+03  0.00000000000E+00 0.  1.
         24    2    1    2    0    0  0.83761567183E+02  0.28335030583E+03  0.22813836640E+03  0.38121635284E+03  0.77300695309E+02 0.  0.
         23    2    1    2    0    0 -0.80308188798E+02 -0.15840287110E+03  0.45203196794E+03  0.49412972052E+03  0.91051666087E+02 0.  0.
        -13    1    3    3    0    0  0.95044875553E+02  0.26166706529E+03  0.22184660841E+03  0.35597626197E+03  0.00000000000E+00 0.  1.
         14    1    3    3    0    0 -0.11283308370E+02  0.21683240545E+02  0.62917579910E+01  0.25240090866E+02  0.00000000000E+00 0. -1.
        -13    1    4    4    0    0 -0.28409219517E+02 -0.10144041966E+02  0.15715538146E+03  0.16002437084E+03  0.00000000000E+00 0.  1.
         13    1    4    4    0    0 -0.51898969281E+02 -0.14825882913E+03  0.29487658648E+03  0.33410534968E+03  0.00000000000E+00 0. -1.
         21    1    1    2  503  502  0.97596190417E+02 -0.15194205894E+03 -0.17155329588E+03  0.24908219323E+03  0.00000000000E+00 0.  1.
          1    1    1    2  501    0 -0.10104956880E+03  0.26994624207E+02  0.18186382054E+02  0.10616246787E+03  0.00000000000E+00 0. -1.
<scales pt_clust_5="13000.00000" pt_clust_6="13000.00000" pt_clust_7="13000.00000" pt_clust_8="13000.00000" pt_clust_9="180.58628" pt_clust_10="13000.00000"></scales>
<clustering>
<clus scale="   77.301">  5  6 -1 -1</clus>
<clus scale="   91.052">  7  8 -1 -1</clus>
<clus scale="  104.593">  7 10 -1 -1</clus>
<clus scale="  180.586">  2  9  1 -1</clus>
<clus scale="  255.144">  1  5  2 -1</clus>
<clus scale="  180.586">  2  5  1 -1</clus>
</clustering>
</event>
<event>
10    4  0.2759992E-005  0.1543092E+03  0.7546771E-02  0.1218375E+00
          2   -1    0    0  502    0 -0.00000000000E+00  0.00000000000E+00  0.11826662153E+04  0.11826662153E+04  0.00000000000E+00 0. -1.
         21   -1    0    0  503  502  0.00000000000E+00 -0.00000000000E+00 -0.21228401336E+02  0.21228401336E+02  0.00000000000E+00 0.  1.
         24    2    1    2    0    0 -0.40725393286E+02 -0.38009852536E+02  0.58305455425E+03  0.59147494207E+03  0.82381352959E+02 0.  0.
         23    2    1    2    0    0 -0.22081764913E+02 -0.94922594545E+01  0.23048594669E+03  0.24802908116E+03  0.88413495268E+02 0.  0.
        -13    1    3    3    0    0  0.51304781866E+01  0.22596069152E+02  0.11836673925E+03  0.12061338694E+03  0.00000000000E+00 0.  1.
         14    1    3    3    0    0 -0.45855871473E+02 -0.60605921689E+02  0.46468781500E+03  0.47086155513E+03  0.00000000000E+00 0. -1.
        -13    1    4    4    0    0  0.48378346651E+01 -0.41251572781E+02  0.63096549723E+02  0.75539866879E+02  0.00000000000E+00 0.  1.
         13    1    4    4    0    0 -0.26919599578E+02  0.31759313326E+02  0.16738939697E+03  0.17248921428E+03  0.00000000000E+00 0. -1.
         21    1    1    2  503  501  0.33025173986E+02  0.17781216606E+02  0.44986002717E+02  0.58571103979E+02  0.00000000000E+00 0.  1.
          1    1    1    2  501    0  0.29781984212E+02  0.29720895384E+02  0.30291131033E+03  0.30581948946E+03  0.00000000000E+00 0. -1.
<scales pt_clust_5="13000.00000" pt_clust_6="13000.00000" pt_clust_7="13000.00000" pt_clust_8="13000.00000" pt_clust_9="37.50778" pt_clust_10="13000.00000"></scales>
<clustering>
<clus scale="   37.508">  2  9  1 -1</clus>
<clus scale="   82.381">  5  6 -1 -1</clus>
<clus scale="   88.413">  7  8 -1 -1</clus>
<clus scale="   45.708">  7 10 -1 -1</clus>
<clus scale="   93.973">  1  5  2 -1</clus>
<clus scale="   37.508">  2  5  1 -1</clus>
</clustering>
</event>
<event>
10    4  0.2759992E-005  0.4320291E+03  0.7546771E-02  0.1051423E+00
          2   -1    0    0  502    0 -0.00000000000E+00  0.00000000000E+00  0.15207255387E+04  0.15207255387E+04  0.00000000000E+00 0. -1.
         21   -1    0    0  503  502  0.00000000000E+00 -0.00000000000E+00 -0.17508275710E+03  0.17508275710E+03  0.00000000000E+00 0. -1.
         24    2    1    2    0    0 -0.22711223686E+03 -0.88644081614E+02  0.99945080227E+03  0.10318459914E+04  0.79790365894E+02 0.  0.
         23    2    1    2    0    0  0.11322955033E+02 -0.62173072292E+02  0.30331305460E+03  0.32325716857E+03  0.92210019567E+02 0.  0.
        -11    1    3    3    0    0 -0.18285771006E+02  0.14437589034E+02  0.10735052089E+03  0.10984965969E+03  0.00000000000E+00 0.  1.
         12    1    3    3    0    0 -0.20882646586E+03 -0.10308167065E+03  0.89210028137E+03  0.92199633171E+03  0.00000000000E+00 0. -1.
        -13    1    4    4    0    0 -0.15735913926E+02  0.19865653068E+02  0.64510497088E+02  0.69309937191E+02  0.00000000000E+00 0.  1.
         13    1    4    4    0    0  0.27058868958E+02 -0.82038725360E+02  0.23880255751E+03  0.25394723137E+03  0.00000000000E+00 0. -1.
         21    1    1    2  503  501  0.14922997839E+00  0.29359331564E+02 -0.64541544161E+02  0.70905595986E+02  0.00000000000E+00 0. -1.
          1    1    1    2  501    0  0.21564005185E+03  0.12145782234E+03  0.10742046893E+03  0.26979953987E+03  0.00000000000E+00 0. -1.
<scales pt_clust_5="13000.00000" pt_clust_6="13000.00000" pt_clust_7="13000.00000" pt_clust_8="13000.00000" pt_clust_9="29.35971" pt_clust_10="13000.00000"></scales>
<clustering>
<clus scale="   29.360">  2  9  1 -1</clus>
<clus scale="   79.790">  5  6 -1 -1</clus>
<clus scale="   92.210">  7  8 -1 -1</clus>
<clus scale="  255.007">  1  5  2 -1</clus>
<clus scale="  165.314">  7 10 -1 -1</clus>
<clus scale="   29.360">  2  5  1 -1</clus>
</clustering>
</event>
<event>
10    4  0.2759992E-005  0.2727214E+03  0.7546771E-02  0.1121351E+00
          2   -1    0    0  502    0 -0.00000000000E+00  0.00000000000E+00  0.57115052287E+03  0.57115052287E+03  0.00000000000E+00 0. -1.
         21   -1    0    0  503  502  0.00000000000E+00 -0.00000000000E+00 -0.17657723873E+03  0.17657723873E+03  0.00000000000E+00 0. -1.
         24    2    1    2    0    0  0.82058344310E+02 -0.10616910559E+03  0.40703765378E+03  0.43601626816E+03  0.80156619547E+02 0.  0.
         23    2    1    2    0    0 -0.15201591255E+03  0.57537477370E+01  0.10246853412E+02  0.17671971005E+03  0.89347157950E+02 0.  0.
        -13    1    3    3    0    0  0.29445990585E+02 -0.17887333905E+02  0.31542678533E+02  0.46711493712E+02  0.00000000000E+00 0.  1.
         14    1    3    3    0    0  0.52612353725E+02 -0.88281771684E+02  0.37549497524E+03  0.38930477445E+03  0.00000000000E+00 0. -1.
        -11    1    4    4    0    0 -0.30065833925E+02  0.13993277670E+02  0.38961378856E+02  0.51164003283E+02  0.00000000000E+00 0.  1.
         11    1    4    4    0    0 -0.12195007863E+03 -0.82395299327E+01 -0.28714525444E+02  0.12555570677E+03  0.00000000000E+00 0. -1.
         21    1    1    2  503  501  0.28707723065E+02  0.66032507408E+01 -0.12513668721E+02  0.32005127539E+02  0.00000000000E+00 0. -1.
          1    1    1    2  501    0  0.41249845179E+02  0.93812107111E+02 -0.10197554328E+02  0.10298665585E+03  0.00000000000E+00 0. -1.
<scales pt_clust_5="13000.00000" pt_clust_6="13000.00000" pt_clust_7="13000.00000" pt_clust_8="13000.00000" pt_clust_9="29.45736" pt_clust_10="13000.00000"></scales>
<clustering>
<clus scale="   29.457">  2  9  1 -1</clus>
<clus scale="   80.157">  5  6 -1 -1</clus>
<clus scale="   89.347">  7  8 -1 -1</clus>
<clus scale="  109.279">  7 10 -1 -1</clus>
<clus scale="  157.318">  1  5  2 -1</clus>
<clus scale="   29.457">  2  5  1 -1</clus>
</clustering>
</event>
<event>
10    4  0.2759992E-005  0.3491638E+03  0.7546771E-02  0.1080810E+00
          2   -1    0    0  502    0 -0.00000000000E+00  0.00000000000E+00  0.56013377440E+03  0.56013377440E+03  0.00000000000E+00 0. -1.
         21   -1    0    0  503  502  0.00000000000E+00 -0.00000000000E+00 -0.18400605421E+03  0.18400605421E+03  0.00000000000E+00 0. -1.
         24    2    1    2    0    0  0.64317749463E+02 -0.19750227677E+03  0.18593799145E+03  0.29026489429E+03  0.80850788312E+02 0.  0.
         23    2    1    2    0    0  0.84757775512E+02  0.56612570135E+02  0.13651582617E+02  0.13703541058E+03  0.90573033719E+02 0.  0.
        -11    1    3    3    0    0 -0.14989795620E+02 -0.14682281408E+02  0.61411343496E+01  0.21862682617E+02  0.00000000000E+00 0.  1.
         12    1    3    3    0    0  0.79307545083E+02 -0.18281999536E+03  0.17979685710E+03  0.26840221168E+03  0.00000000000E+00 0. -1.
        -13    1    4    4    0    0  0.82076141691E+01 -0.19579697913E+02  0.19561477222E+02  0.28868337185E+02  0.00000000000E+00 0.  1.
         13    1    4    4    0    0  0.76550161343E+02  0.76192268048E+02 -0.59098946055E+01  0.10816707339E+03  0.00000000000E+00 0. -1.
         21    1    1    2  503  501 -0.30399412873E+02  0.17695066202E+02 -0.31699908589E+02  0.47351070478E+02  0.00000000000E+00 0.  1.
          1    1    1    2  501    0 -0.11867611210E+03  0.12319464043E+03  0.20823805471E+03  0.26948845327E+03  0.00000000000E+00 0. -1.
<scales pt_clust_5="13000.00000" pt_clust_6="13000.00000" pt_clust_7="13000.00000" pt_clust_8="13000.00000" pt_clust_9="35.17442" pt_clust_10="13000.00000"></scales>
<clustering>
<clus scale="   35.174">  2  9  1 -1</clus>
<clus scale="   80.851">  5  6 -1 -1</clus>
<clus scale="   90.573">  7  8 -1 -1</clus>
<clus scale="  178.242">  7 10 -1 -1</clus>
<clus scale="  214.258">  1  5  2 -1</clus>
<clus scale="   35.174">  2  5  1 -1</clus>
</clustering>
</event>
<event>
10    4  0.2899152E-005  0.4406388E+03  0.7546771E-02  0.1055134E+00
         21   -1    0    0  503  502  0.00000000000E+00  0.00000000000E+00  0.75481114695E+02  0.75481114695E+02  0.00000000000E+00 0. -1.
          2   -1    0    0  502    0 -0.00000000000E+00 -0.00000000000E+00 -0.18306000258E+04  0.18306000258E+04  0.00000000000E+00 0. -1.
         24    2    1    2    0    0 -0.12296728930E+03 -0.17002098452E+03 -0.28220369035E+03  0.36048598992E+03  0.79266239124E+02 0.  0.
         23    2    1    2    0    0  0.54740475663E+01 -0.11067894476E+03 -0.43642546148E+03  0.45945901275E+03  0.91409009177E+02 0.  0.
        -13    1    3    3    0    0 -0.23523786622E+02 -0.83505032211E+02 -0.73808170599E+02  0.11390392877E+03  0.00000000000E+00 0.  1.
         14    1    3    3    0    0 -0.99443502681E+02 -0.86515952313E+02 -0.20839551975E+03  0.24658206115E+03  0.00000000000E+00 0. -1.
        -11    1    4    4    0    0  0.41037237650E+02 -0.96438896355E+02 -0.33641037875E+03  0.35235842339E+03  0.00000000000E+00 0. -1.
         11    1    4    4    0    0 -0.35563190083E+02 -0.14240048409E+02 -0.10001508273E+03  0.10710058936E+03  0.00000000000E+00 0.  1.
         21    1    1    2  503  501  0.23292946562E+02  0.29091353854E+01 -0.31951584027E+02  0.39647549105E+02  0.00000000000E+00 0.  1.
          1    1    1    2  501    0  0.94200295176E+02  0.27779079390E+03 -0.10045381753E+04  0.10464885888E+04  0.00000000000E+00 0. -1.
<scales pt_clust_5="13000.00000" pt_clust_6="13000.00000" pt_clust_7="13000.00000" pt_clust_8="13000.00000" pt_clust_9="23.47391" pt_clust_10="13000.00000"></scales>
<clustering>
<clus scale="   23.474">  1  9  2 -1</clus>
<clus scale="   79.266">  5  6 -1 -1</clus>
<clus scale="   91.409">  7  8 -1 -1</clus>
<clus scale="  216.345">  2  5  1 -1</clus>
<clus scale="  163.089">  7 10 -1 -1</clus>
<clus scale="   23.474">  1  5  2 -1</clus>
</clustering>
</event>
<event>
10    4  0.2759992E-005  0.1304415E+03  0.7546771E-02  0.1243588E+00
         21   -1    0    0  501  502  0.00000000000E+00  0.00000000000E+00  0.14357679663E+03  0.14357679663E+03  0.00000000000E+00 0. -1.
          4   -1    0    0  503    0 -0.00000000000E+00 -0.00000000000E+00 -0.57206885294E+03  0.57206885294E+03  0.00000000000E+00 0. -1.
         24    2    1    2    0    0 -0.12374406298E+02  0.55885839379E+02 -0.22293728387E+03  0.24348332146E+03  0.79415000590E+02 0.  0.
         23    2    1    2    0    0  0.23114937211E+02 -0.24486766449E+02 -0.29425923528E+03  0.30992303218E+03  0.91268210634E+02 0.  0.
        -11    1    3    3    0    0  0.30975810088E+02  0.30878750737E+02 -0.13941807292E+03  0.14611775085E+03  0.00000000000E+00 0.  1.
         12    1    3    3    0    0 -0.43350216386E+02  0.25007088642E+02 -0.83519210945E+02  0.97365570609E+02  0.00000000000E+00 0. -1.
        -11    1    4    4    0    0  0.53383067463E+02 -0.21564863372E+02 -0.12080191731E+03  0.13382039624E+03  0.00000000000E+00 0. -1.
         11    1    4    4    0    0 -0.30268130252E+02 -0.29219030775E+01 -0.17345731797E+03  0.17610263593E+03  0.00000000000E+00 0.  1.
         21    1    1    2  503  502  0.10292654123E+02 -0.19556691419E+02  0.12039303941E+03  0.12240460305E+03  0.00000000000E+00 0. -1.
          3    1    1    2  501    0 -0.21033185036E+02 -0.11842381511E+02 -0.31688576575E+02  0.39834692894E+02  0.00000000000E+00 0. -1.
<scales pt_clust_5="13000.00000" pt_clust_6="13000.00000" pt_clust_7="13000.00000" pt_clust_8="13000.00000" pt_clust_9="22.09984" pt_clust_10="13000.00000"></scales>
<clustering>
<clus scale="   22.100">  1  9  2 -1</clus>
<clus scale="   79.415">  5  6 -1 -1</clus>
<clus scale="   91.268">  7  8 -1 -1</clus>
<clus scale="   24.590">  7 10 -1 -1</clus>
<clus scale="   92.506">  2  5  1 -1</clus>
<clus scale="   22.100">  1  5  2 -1</clus>
</clustering>
</event>
<event>
10    4  0.2759992E-005  0.2022073E+03  0.7546771E-02  0.1171356E+00
         21   -1    0    0  501  502  0.00000000000E+00  0.00000000000E+00  0.96492167500E+02  0.96492167500E+02  0.00000000000E+00 0. -1.
         -3   -1    0    0    0  501 -0.00000000000E+00 -0.00000000000E+00 -0.77486868254E+03  0.77486868254E+03  0.00000000000E+00 0.  1.
         24    2    1    2    0    0 -0.78898901965E+02  0.44047929127E+01 -0.23714276065E+03  0.26243269286E+03  0.79936164651E+02 0.  0.
         23    2    1    2    0    0 -0.17975847889E+01 -0.54571450436E+02 -0.36960421292E+03  0.38556678664E+03  0.95253337162E+02 0.  0.
        -13    1    3    3    0    0 -0.36203035498E+02 -0.31660985427E+02 -0.61261292780E+02  0.77884682516E+02  0.00000000000E+00 0.  1.
         14    1    3    3    0    0 -0.42695866466E+02  0.36065778339E+02 -0.17588146787E+03  0.18454801034E+03  0.00000000000E+00 0. -1.
        -13    1    4    4    0    0 -0.97532698675E+01  0.24507822485E+02 -0.14340935533E+03  0.14581496093E+03  0.00000000000E+00 0.  1.
         13    1    4    4    0    0  0.79556850786E+01 -0.79079272921E+02 -0.22619485759E+03  0.23975182571E+03  0.00000000000E+00 0. -1.
         21    1    1    2  503  502  0.14334463841E+00  0.82778603464E+02  0.31436360139E+02  0.88546950698E+02  0.00000000000E+00 0. -1.
         -4    1    1    2    0  503  0.80553142115E+02 -0.32611945940E+02 -0.10306590161E+03  0.13481441984E+03  0.00000000000E+00 0.  1.
<scales pt_clust_5="13000.00000" pt_clust_6="13000.00000" pt_clust_7="13000.00000" pt_clust_8="13000.00000" pt_clust_9="82.77873" pt_clust_10="13000.00000"></scales>
<clustering>
<clus scale="   79.936">  5  6 -1 -1</clus>
<clus scale="   82.779">  1  9  2 -1</clus>
<clus scale="   95.253">  7  8 -1 -1</clus>
<clus scale="   80.687">  7 10 -1 -1</clus>
<clus scale="  117.053">  2  5  1 -1</clus>
<clus scale="   82.779">  1  5  2 -1</clus>
</clustering>
</event>
<event>
10    4  0.2759992E-005  0.1886070E+03  0.7546771E-02  0.1192778E+00
          2   -1    0    0  502    0 -0.00000000000E+00  0.00000000000E+00  0.80764225290E+03  0.80764225290E+03  0.00000000000E+00 0. -1.
         21   -1    0    0  503  502  0.00000000000E+00 -0.00000000000E+00 -0.34513551672E+02  0.34513551672E+02  0.00000000000E+00 0. -1.
         24    2    1    2    0    0 -0.53071670830E+02 -0.91006221797E+00  0.18624501410E+03  0.21000361650E+03  0.81221199249E+02 0.  0.
         23    2    1    2    0    0 -0.56422792661E+02 -0.23089248484E+02  0.25856856610E+03  0.28099185129E+03  0.91553657427E+02 0.  0.
        -11    1    3    3    0    0 -0.53401665648E+02  0.30564316348E+02  0.14921636192E+03  0.16140457860E+03  0.00000000000E+00 0.  1.
         12    1    3    3    0    0  0.32999481728E+00 -0.31474378566E+02  0.37028652186E+02  0.48599037907E+02  0.00000000000E+00 0. -1.
        -11    1    4    4    0    0  0.20456790496E+02  0.10743713897E+02  0.86257807233E+02  0.89299031206E+02  0.00000000000E+00 0.  1.
         11    1    4    4    0    0 -0.76879583157E+02 -0.33832962381E+02  0.17231075887E+03  0.19169282009E+03  0.00000000000E+00 0. -1.
         21    1    1    2  503  501  0.38436700413E+02  0.15393507264E+02  0.56301613253E+02  0.69887135149E+02  0.00000000000E+00 0. -1.
          1    1    1    2  501    0  0.71057763078E+02  0.86058034385E+01  0.27201350777E+03  0.28127320163E+03  0.00000000000E+00 0. -1.
<scales pt_clust_5="13000.00000" pt_clust_6="13000.00000" pt_clust_7="13000.00000" pt_clust_8="13000.00000" pt_clust_9="41.40459" pt_clust_10="13000.00000"></scales>
<clustering>
<clus scale="   41.405">  2  9  1 -1</clus>
<clus scale="   81.221">  5  6 -1 -1</clus>
<clus scale="   89.268">  1  5  2 -1</clus>
<clus scale="   91.554">  7  8 -1 -1</clus>
<clus scale="   58.775">  7 10 -1 -1</clus>
<clus scale="   41.405">  2  5  1 -1</clus>
</clustering>
</event>
<event>
10    4  0.2759992E-005  0.4964821E+03  0.7546771E-02  0.1038995E+00
         21   -1    0    0  501  502  0.00000000000E+00  0.00000000000E+00  0.26074081461E+03  0.26074081461E+03  0.00000000000E+00 0. -1.
          2   -1    0    0  503    0 -0.00000000000E+00 -0.00000000000E+00 -0.59957714488E+03  0.59957714488E+03  0.00000000000E+00 0. -1.
         24    2    1    2    0    0  0.20296250484E+03  0.84915918064E+02 -0.10769717299E+03  0.25934745073E+03  0.85193471682E+02 0.  0.
         23    2    1    2    0    0  0.11467477676E+03 -0.30761444822E+02 -0.24821830489E+02  0.15043976542E+03  0.88991172804E+02 0.  0.
        -13    1    3    3    0    0  0.90377935769E+02 -0.31292439931E+01 -0.23378727701E+02  0.93405183747E+02  0.00000000000E+00 0.  1.
         14    1    3    3    0    0  0.11258456907E+03  0.88045162057E+02 -0.84318445292E+02  0.16594226698E+03  0.00000000000E+00 0. -1.
        -13    1    4    4    0    0  0.98642455422E+02 -0.48214792519E+02  0.78523650462E+01  0.11007570062E+03  0.00000000000E+00 0. -1.
         13    1    4    4    0    0  0.16032321341E+02  0.17453347698E+02 -0.32674195535E+02  0.40364064802E+02  0.00000000000E+00 0.  1.
         21    1    1    2  503  502  0.21283049506E+02 -0.14915292745E+02  0.26783815688E+02  0.37320328733E+02  0.00000000000E+00 0. -1.
          1    1    1    2  501    0 -0.33892033111E+03 -0.39239180497E+02 -0.23310114247E+03  0.41321041462E+03  0.00000000000E+00 0. -1.
<scales pt_clust_5="13000.00000" pt_clust_6="13000.00000" pt_clust_7="13000.00000" pt_clust_8="13000.00000" pt_clust_9="25.98912" pt_clust_10="13000.00000"></scales>
<clustering>
<clus scale="   25.989">  1  9  2 -1</clus>
<clus scale="   85.193">  5  6 -1 -1</clus>
<clus scale="   88.991">  7  8 -1 -1</clus>
<clus scale="  240.336">  2  5  1 -1</clus>
<clus scale="  171.257">  7 10 -1 -1</clus>
<clus scale="   25.989">  1  5  2 -1</clus>
</clustering>
</event>
<event>
10    4  0.2759992E-005  0.4377710E+03  0.7546771E-02  0.1063478E+00
          2   -1    0    0  502    0 -0.00000000000E+00  0.00000000000E+00  0.56554185354E+03  0.56554185354E+03  0.00000000000E+00 0. -1.
         21   -1    0    0  503  502  0.00000000000E+00 -0.00000000000E+00 -0.46954449643E+03  0.46954449643E+03  0.00000000000E+00 0. -1.
         24    2    1    2    0    0 -0.15369130204E+03  0.32221036185E+02  0.38994106255E+03  0.42801848559E+03  0.80539308731E+02 0.  0.
         23    2    1    2    0    0  0.95522907638E+02  0.58871428972E+02  0.10435732221E+03  0.17811326054E+03  0.90793236803E+02 0.  0.
        -13    1    3    3    0    0 -0.73083175662E+02 -0.22826257858E+02  0.13778718000E+03  0.15763088398E+03  0.00000000000E+00 0.  1.
         14    1    3    3    0    0 -0.80608126377E+02  0.55047294044E+02  0.25215388255E+03  0.27038760161E+03  0.00000000000E+00 0. -1.
        -11    1    4    4    0    0  0.10091717872E+03  0.24819980357E+02  0.54087283177E+02  0.11715691438E+03  0.00000000000E+00 0. -1.
         11    1    4    4    0    0 -0.53942710777E+01  0.34051448615E+02  0.50270039038E+02  0.60956346168E+02  0.00000000000E+00 0.  1.
         21    1    1    2  503  501  0.39942950660E+02  0.19800436326E+02 -0.14830472395E+03  0.15486054285E+03  0.00000000000E+00 0. -1.
          1    1    1    2  501    0  0.18225443741E+02 -0.11089290148E+03 -0.24999630370E+03  0.27409406098E+03  0.00000000000E+00 0. -1.
<scales pt_clust_5="13000.00000" pt_clust_6="13000.00000" pt_clust_7="13000.00000" pt_clust_8="13000.00000" pt_clust_9="44.58135" pt_clust_10="13000.00000"></scales>
<clustering>
<clus scale="   44.581">  2  9  1 -1</clus>
<clus scale="   80.539">  5  6 -1 -1</clus>
<clus scale="   90.793">  7  8 -1 -1</clus>
<clus scale="  107.518">  7 10 -1 -1</clus>
<clus scale="  174.626">  1  5  2 -1</clus>
<clus scale="   44.581">  2  5  1 -1</clus>
</clustering>
</event>
<event>
10    4  0.2759992E-005  0.3046676E+03  0.7546771E-02  0.1087896E+00
         21   -1    0    0  501  502  0.00000000000E+00  0.00000000000E+00  0.87814963510E+03  0.87814963510E+03  0.00000000000E+00 0. -1.
          2   -1    0    0  503    0 -0.00000000000E+00 -0.00000000000E+00 -0.40555114170E+03  0.40555114170E+03  0.00000000000E+00 0. -1.
         24    2    1    2    0    0 -0.91573386646E+02  0.23193133953E+03 -0.30147309896E+03  0.40052783945E+03  0.85782803522E+02 0.  0.
         23    2    1    2    0    0  0.10467925241E+03 -0.18122536382E+03  0.39043067691E+03  0.45232322662E+03  0.91431993776E+02 0.  0.
        -13    1    3    3    0    0 -0.79420496469E+01  0.13677048698E+03 -0.15496554523E+03  0.20684187794E+03  0.00000000000E+00 0.  1.
         14    1    3    3    0    0 -0.83631336999E+02  0.95160852552E+02 -0.14650755372E+03  0.19368596151E+03  0.00000000000E+00 0. -1.
        -13    1    4    4    0    0  0.24092222066E+02 -0.23582720098E+02  0.14325979751E+02  0.36630773226E+02  0.00000000000E+00 0.  1.
         13    1    4    4    0    0  0.80587030344E+02 -0.15764264372E+03  0.37610469716E+03  0.41569245339E+03  0.00000000000E+00 0. -1.
         21    1    1    2  503  502  0.11667443343E+02  0.47672297388E+02  0.28553710879E+03  0.28972438225E+03  0.00000000000E+00 0. -1.
          1    1    1    2  501    0 -0.24773309107E+02 -0.98378273097E+02  0.98103806653E+02  0.14112532849E+03  0.00000000000E+00 0. -1.
<scales pt_clust_5="13000.00000" pt_clust_6="13000.00000" pt_clust_7="13000.00000" pt_clust_8="13000.00000" pt_clust_9="49.07929" pt_clust_10="13000.00000"></scales>
<clustering>
<clus scale="   49.079">  1  9  2 -1</clus>
<clus scale="   85.783">  5  6 -1 -1</clus>
<clus scale="   91.432">  7  8 -1 -1</clus>
<clus scale="   91.508">  7 10 -1 -1</clus>
<clus scale="  266.887">  2  5  1 -1</clus>
<clus scale="   49.079">  1  5  2 -1</clus>
</clustering>
</event>
<event>
10    4  0.2759992E-005  0.1419740E+03  0.7546771E-02  0.1235287E+00
         21   -1    0    0  501  502  0.00000000000E+00  0.00000000000E+00  0.11880937898E+03  0.11880937898E+03  0.00000000000E+00 0. -1.
          2   -1    0    0  503    0 -0.00000000000E+00 -0.00000000000E+00 -0.69170300347E+03  0.69170300347E+03  0.00000000000E+00 0. -1.
         24    2    1    2    0    0  0.42335346543E+01  0.24847261146E+02 -0.55520535258E+03  0.56151393525E+03  0.80060019654E+02 0.  0.
         23    2    1    2    0    0 -0.12379271102E+02 -0.22271876027E+02 -0.28347224864E+02  0.98740692378E+02  0.91087190971E+02 0.  0.
        -11    1    3    3    0    0 -0.14134336808E+02 -0.25132904156E+02 -0.14253841745E+03  0.14542572949E+03  0.00000000000E+00 0.  1.
         12    1    3    3    0    0  0.18367871462E+02  0.49980165302E+02 -0.41266693513E+03  0.41608820577E+03  0.00000000000E+00 0. -1.
        -13    1    4    4    0    0 -0.41348505138E+02 -0.31248557433E+02 -0.40794810265E+02  0.65957469352E+02  0.00000000000E+00 0.  1.
         13    1    4    4    0    0  0.28969234036E+02  0.89766814062E+01  0.12447585400E+02  0.32783223026E+02  0.00000000000E+00 0. -1.
         21    1    1    2  503  502  0.16098305646E+02  0.71915097237E+02  0.15047831300E+02  0.75215516232E+02  0.00000000000E+00 0. -1.
          1    1    1    2  501    0 -0.79525691982E+01 -0.74490482356E+02 -0.43888783446E+01  0.75042238584E+02  0.00000000000E+00 0. -1.
<scales pt_clust_5="13000.00000" pt_clust_6="13000.00000" pt_clust_7="13000.00000" pt_clust_8="13000.00000" pt_clust_9="73.69489" pt_clust_10="13000.00000"></scales>
<clustering>
<clus scale="   73.695">  1  9  2 -1</clus>
<clus scale="   80.060">  5  6 -1 -1</clus>
<clus scale="   84.934">  2  5  1 -1</clus>
<clus scale="   91.087">  7  8 -1 -1</clus>
<clus scale="   32.435">  7 10 -1 -1</clus>
<clus scale="   73.695">  1  5  2 -1</clus>
</clustering>
</event>
<event>
10    4  0.2759992E-005  0.1811171E+03  0.7546771E-02  0.1193660E+00
         21   -1    0    0  501  502  0.00000000000E+00  0.00000000000E+00  0.71136727830E+02  0.71136727830E+02  0.00000000000E+00 0. -1.
          2   -1    0    0  503    0 -0.00000000000E+00 -0.00000000000E+00 -0.10240193403E+04  0.10240193403E+04  0.00000000000E+00 0. -1.
         24    2    1    2    0    0 -0.44737744868E+02  0.50689085580E+01 -0.82443895590E+03  0.83033650074E+03  0.87931523432E+02 0.  0.
         23    2    1    2    0    0 -0.26932014097E+02  0.17267394325E+02 -0.11793165855E+03  0.15266803648E+03  0.91521347144E+02 0.  0.
        -13    1    3    3    0    0 -0.31718167791E+02 -0.24037595233E+02 -0.15142037592E+03  0.15656301733E+03  0.00000000000E+00 0.  1.
         14    1    3    3    0    0 -0.13019577077E+02  0.29106503791E+02 -0.67301857998E+03  0.67377348341E+03  0.00000000000E+00 0. -1.
        -11    1    4    4    0    0  0.40349338786E+01  0.47823246104E+02 -0.86758080705E+02  0.99147910351E+02  0.00000000000E+00 0.  1.
         11    1    4    4    0    0 -0.30966947976E+02 -0.30555851779E+02 -0.31173577846E+02  0.53520126126E+02  0.00000000000E+00 0. -1.
         21    1    1    2  503  502 -0.52006520195E+01 -0.23309393458E+02  0.18264083696E+02  0.30065783843E+02  0.00000000000E+00 0. -1.
          1    1    1    2  501    0  0.76870410984E+02  0.97309057531E+00 -0.28776081694E+02  0.82085747045E+02  0.00000000000E+00 0. -1.
<scales pt_clust_5="13000.00000" pt_clust_6="13000.00000" pt_clust_7="13000.00000" pt_clust_8="13000.00000" pt_clust_9="23.88252" pt_clust_10="13000.00000"></scales>
<clustering>
<clus scale="   23.883">  1  9  2 -1</clus>
<clus scale="   87.932">  5  6 -1 -1</clus>
<clus scale="   91.521">  7  8 -1 -1</clus>
<clus scale="   74.928">  7 10 -1 -1</clus>
<clus scale="   98.872">  2  5  1 -1</clus>
<clus scale="   23.883">  1  5  2 -1</clus>
</clustering>
</event>
<event>
10    4  0.2759992E-005  0.7901559E+03  0.7546771E-02  0.9665819E-01
          2   -1    0    0  502    0 -0.00000000000E+00  0.00000000000E+00  0.13384539627E+04  0.13384539627E+04  0.00000000000E+00 0. -1.
         21   -1    0    0  503  502  0.00000000000E+00 -0.00000000000E+00 -0.44132410227E+03  0.44132410227E+03  0.00000000000E+00 0. -1.
         24    2    1    2    0    0 -0.56902156930E+03  0.12123736563E+03  0.41041661566E+03  0.71647893598E+03  0.80101324250E+02 0.  0.
         23    2    1    2    0    0 -0.82967669381E+02 -0.17609093953E+02  0.27591762569E+02  0.12817676793E+03  0.92055766376E+02 0.  0.
        -13    1    3    3    0    0 -0.44984031260E+03  0.61691610460E+02  0.31820796201E+03  0.55445330618E+03  0.00000000000E+00 0.  1.
         14    1    3    3    0    0 -0.11918125669E+03  0.59545755170E+02  0.92208653645E+02  0.16202562980E+03  0.00000000000E+00 0. -1.
        -13    1    4    4    0    0 -0.89324962295E+02 -0.39125435566E+02  0.70747996396E+01  0.97774236828E+02  0.00000000000E+00 0. -1.
         13    1    4    4    0    0  0.63572929143E+01  0.21516341613E+02  0.20516962929E+02  0.30402531103E+02  0.00000000000E+00 0.  1.
         21    1    1    2  503  501  0.18603201200E+02 -0.10774767458E+02 -0.89497425203E+02  0.92043271490E+02  0.00000000000E+00 0. -1.
          1    1    1    2  501    0  0.63338603748E+03 -0.92853504218E+02  0.54861890741E+03  0.84307908958E+03  0.00000000000E+00 0. -1.
<scales pt_clust_5="13000.00000" pt_clust_6="13000.00000" pt_clust_7="13000.00000" pt_clust_8="13000.00000" pt_clust_9="21.49825" pt_clust_10="13000.00000"></scales>
<clustering>
<clus scale="   21.498">  2  9  1 -1</clus>
<clus scale="   80.101">  5  6 -1 -1</clus>
<clus scale="   92.056">  7  8 -1 -1</clus>
<clus scale="  578.451">  1  5  2 -1</clus>
<clus scale="  134.730">  7 10 -1 -1</clus>
<clus scale="   21.498">  2  5  1 -1</clus>
</clustering>
</event>
<event>
10    4  0.2759992E-005  0.4058884E+03  0.7546771E-02  0.1055996E+00
          2   -1    0    0  502    0 -0.00000000000E+00  0.00000000000E+00  0.21542718012E+04  0.21542718012E+04  0.00000000000E+00 0. -1.
         21   -1    0    0  503  502  0.00000000000E+00 -0.00000000000E+00 -0.83363184199E+02  0.83363184199E+02  0.00000000000E+00 0. -1.
         24    2    1    2    0    0  0.22107958472E+03 -0.51612003502E+02  0.65644632017E+03  0.69943069008E+03  0.82106864984E+02 0.  0.
         23    2    1    2    0    0  0.25310151861E+02 -0.26538277224E+02  0.21873146129E+03  0.23915479033E+03  0.89480040430E+02 0.  0.
        -11    1    3    3    0    0  0.57663359512E+02 -0.46496158835E+02  0.26633094672E+03  0.27644010020E+03  0.00000000000E+00 0.  1.
         12    1    3    3    0    0  0.16341622521E+03 -0.51158446666E+01  0.39011537345E+03  0.42299058988E+03  0.00000000000E+00 0. -1.
        -13    1    4    4    0    0  0.21350190518E+02  0.25383355051E+02  0.14590119057E+03  0.14962387095E+03  0.00000000000E+00 0. -1.
         13    1    4    4    0    0  0.39599613428E+01 -0.51921632276E+02  0.72830270724E+02  0.89530919384E+02  0.00000000000E+00 0.  1.
         21    1    1    2  503  501  0.81735006473E+02  0.84171367235E+01  0.32408470715E+02  0.88327619961E+02  0.00000000000E+00 0.  1.
          1    1    1    2  501    0 -0.32812474305E+03  0.69733144003E+02  0.11633223648E+04  0.12107218850E+04  0.00000000000E+00 0. -1.
<scales pt_clust_5="13000.00000" pt_clust_6="13000.00000" pt_clust_7="13000.00000" pt_clust_8="13000.00000" pt_clust_9="82.16727" pt_clust_10="13000.00000"></scales>
<clustering>
<clus scale="   82.107">  5  6 -1 -1</clus>
<clus scale="   82.167">  2  9  1 -1</clus>
<clus scale="   89.480">  7  8 -1 -1</clus>
<clus scale="  270.148">  1  5  2 -1</clus>
<clus scale="  103.542">  7 10 -1 -1</clus>
<clus scale="   82.167">  2  5  1 -1</clus>
</clustering>
</event>
<event>
10    4  0.2759992E-005  0.1559875E+03  0.7546771E-02  0.1223943E+00
         21   -1    0    0  501  502  0.00000000000E+00  0.00000000000E+00  0.34916214300E+03  0.34916214300E+03  0.00000000000E+00 0. -1.
         -3   -1    0    0    0  501 -0.00000000000E+00 -0.00000000000E+00 -0.44552515189E+03  0.44552515189E+03  0.00000000000E+00 0.  1.
         24    2    1    2    0    0 -0.27452402867E+01 -0.32967369259E+01 -0.26056887839E+03  0.27270302658E+03  0.80326804377E+02 0.  0.
         23    2    1    2    0    0  0.22886537553E+02 -0.47774944320E+01 -0.27509718370E+02  0.99647030484E+02  0.92876950991E+02 0.  0.
        -13    1    3    3    0    0  0.36633077510E+02 -0.10637353506E+02 -0.95343554520E+02  0.10269142635E+03  0.00000000000E+00 0.  1.
         14    1    3    3    0    0 -0.39378317797E+02  0.73406165802E+01 -0.16522532387E+03  0.17001160023E+03  0.00000000000E+00 0. -1.
        -11    1    4    4    0    0 -0.21157361036E+02  0.26904002115E+02  0.75508714607E+01  0.35049606498E+02  0.00000000000E+00 0. -1.
         11    1    4    4    0    0  0.44043898589E+02 -0.31681496547E+02 -0.35060589831E+02  0.64597423986E+02  0.00000000000E+00 0.  1.
         21    1    1    2  503  502 -0.49138058629E+02  0.21871091952E+00  0.30305658428E+03  0.30701447835E+03  0.00000000000E+00 0. -1.
         -4    1    1    2    0  503  0.28996761363E+02  0.78555204383E+01 -0.11134099641E+03  0.11532275948E+03  0.00000000000E+00 0.  1.
<scales pt_clust_5="13000.00000" pt_clust_6="13000.00000" pt_clust_7="13000.00000" pt_clust_8="13000.00000" pt_clust_9="49.13855" pt_clust_10="13000.00000"></scales>
<clustering>
<clus scale="   49.139">  1  9  2 -1</clus>
<clus scale="   80.327">  5  6 -1 -1</clus>
<clus scale="   80.953">  2  5  1 -1</clus>
<clus scale="   92.877">  7  8 -1 -1</clus>
<clus scale="   22.220">  7 10 -1 -1</clus>
<clus scale="   49.139">  1  5  2 -1</clus>
</clustering>
</event>
<event>
10    4  0.2759992E-005  0.6252378E+03  0.7546771E-02  0.1030257E+00
          2   -1    0    0  502    0 -0.00000000000E+00  0.00000000000E+00  0.21336882606E+04  0.21336882606E+04  0.00000000000E+00 0. -1.
         21   -1    0    0  503  502  0.00000000000E+00 -0.00000000000E+00 -0.13128588782E+03  0.13128588782E+03  0.00000000000E+00 0. -1.
         24    2    1    2    0    0 -0.13594548072E+03 -0.96692135179E+02  0.57357858324E+02  0.19480095145E+03  0.82625323242E+02 0.  0.
         23    2    1    2    0    0  0.71428688562E+02 -0.25983769272E+03  0.10786278678E+04  0.11158311708E+04  0.94991790575E+02 0.  0.
        -13    1    3    3    0    0 -0.65429803312E+02 -0.28576246616E+02  0.64876822684E+02  0.96471048267E+02  0.00000000000E+00 0.  1.
         14    1    3    3    0    0 -0.70515677406E+02 -0.68115888563E+02 -0.75189643607E+01  0.98329903182E+02  0.00000000000E+00 0. -1.
        -13    1    4    4    0    0  0.81574250017E+01 -0.30118847602E+02  0.42895218232E+02  0.53044210907E+02  0.00000000000E+00 0.  1.
         13    1    4    4    0    0  0.63271263560E+02 -0.22971884512E+03  0.10357326496E+04  0.10627869599E+04  0.00000000000E+00 0. -1.
         21    1    1    2  503  501  0.49953490648E+02  0.33768086782E+02  0.57621662943E+02  0.83401984108E+02  0.00000000000E+00 0. -1.
          1    1    1    2  501    0  0.14563301509E+02  0.32276174112E+03  0.80879498363E+03  0.87094004204E+03  0.00000000000E+00 0. -1.
<scales pt_clust_5="13000.00000" pt_clust_6="13000.00000" pt_clust_7="13000.00000" pt_clust_8="13000.00000" pt_clust_9="60.29623" pt_clust_10="13000.00000"></scales>
<clustering>
<clus scale="   60.296">  2  9  1 -1</clus>
<clus scale="   82.625">  5  6 -1 -1</clus>
<clus scale="   94.992">  7  8 -1 -1</clus>
<clus scale="  155.591">  1  5  2 -1</clus>
<clus scale="  297.359">  7 10 -1 -1</clus>
<clus scale="   60.296">  2  5  1 -1</clus>
</clustering>
</event>
<event>
10    4  0.2759992E-005  0.3743282E+03  0.7546771E-02  0.1063405E+00
          2   -1    0    0  503    0 -0.00000000000E+00  0.00000000000E+00  0.24725262587E+03  0.24725262587E+03  0.00000000000E+00 0. -1.
         21   -1    0    0  501  502  0.00000000000E+00 -0.00000000000E+00 -0.53255688603E+03  0.53255688603E+03  0.00000000000E+00 0. -1.
         24    2    1    2    0    0  0.15830829770E+03 -0.24269345091E+03 -0.10168894755E+03  0.31716206198E+03  0.79306388578E+02 0.  0.
         23    2    1    2    0    0 -0.16029476487E+03  0.95301746868E+02 -0.11091864627E+03  0.23582540994E+03  0.92378803208E+02 0.  0.
        -11    1    3    3    0    0  0.90310080118E+02 -0.11401157523E+03 -0.11409641551E+02  0.14589287089E+03  0.00000000000E+00 0.  1.
         12    1    3    3    0    0  0.67998217582E+02 -0.12868187568E+03 -0.90279306003E+02  0.17126919108E+03  0.00000000000E+00 0. -1.
        -11    1    4    4    0    0 -0.69355087330E+02  0.54610993784E+02 -0.10333857762E+03  0.13590934628E+03  0.00000000000E+00 0. -1.
         11    1    4    4    0    0 -0.90939677539E+02  0.40690753084E+02 -0.75800686524E+01  0.99916063665E+02  0.00000000000E+00 0.  1.
         21    1    1    2  503  502 -0.63179600940E+02  0.17954860973E+02 -0.44097316208E+02  0.79111391748E+02  0.00000000000E+00 0.  1.
          1    1    1    2  501    0  0.65166068109E+02  0.12943684306E+03 -0.28599350128E+02  0.14771064824E+03  0.00000000000E+00 0. -1.
<scales pt_clust_5="13000.00000" pt_clust_6="13000.00000" pt_clust_7="13000.00000" pt_clust_8="13000.00000" pt_clust_9="65.68134" pt_clust_10="13000.00000"></scales>
<clustering>
<clus scale="   65.681">  2  9  1 -1</clus>
<clus scale="   79.306">  5  6 -1 -1</clus>
<clus scale="   92.379">  7  8 -1 -1</clus>
<clus scale="  143.110">  7 10 -1 -1</clus>
<clus scale="  279.881">  1  5  2 -1</clus>
<clus scale="   65.681">  2  5  1 -1</clus>
</clustering>
</event>
<event>
10    4  0.2759992E-005  0.1074521E+03  0.7546771E-02  0.1279155E+00
          2   -1    0    0  502    0 -0.00000000000E+00  0.00000000000E+00  0.55271509906E+03  0.55271509906E+03  0.00000000000E+00 0. -1.
         21   -1    0    0  503  502  0.00000000000E+00 -0.00000000000E+00 -0.46201850898E+02  0.46201850898E+02  0.00000000000E+00 0. -1.
         24    2    1    2    0    0 -0.14375390792E+02 -0.18677319558E+02  0.14624366397E+02  0.84143922943E+02  0.79440754965E+02 0.  0.
         23    2    1    2    0    0 -0.38525433586E+01 -0.13809104278E+02  0.31485042617E+03  0.32567383697E+03  0.82019045213E+02 0.  0.
        -11    1    3    3    0    0 -0.14848245744E+02  0.29292791340E+02  0.15153448471E+02  0.36168564068E+02  0.00000000000E+00 0.  1.
         12    1    3    3    0    0  0.47285495232E+00 -0.47970110898E+02 -0.52908207334E+00  0.47975358876E+02  0.00000000000E+00 0. -1.
        -11    1    4    4    0    0 -0.12162972384E+02 -0.44857228553E+02  0.23584285968E+03  0.24037879131E+03  0.00000000000E+00 0. -1.
         11    1    4    4    0    0  0.83104290250E+01  0.31048124275E+02  0.79007566495E+02  0.85295045665E+02  0.00000000000E+00 0.  1.
         21    1    1    2  503  501 -0.60841801110E+01  0.33838659673E+02  0.56601381405E+02  0.66225286055E+02  0.00000000000E+00 0. -1.
          1    1    1    2  501    0  0.24312114262E+02 -0.13522358368E+01  0.12043707419E+03  0.12287390398E+03  0.00000000000E+00 0. -1.
<scales pt_clust_5="13000.00000" pt_clust_6="13000.00000" pt_clust_7="13000.00000" pt_clust_8="13000.00000" pt_clust_9="34.38129" pt_clust_10="13000.00000"></scales>
<clustering>
<clus scale="   34.381">  2  9  1 -1</clus>
<clus scale="   79.441">  5  6 -1 -1</clus>
<clus scale="   82.019">  7  8 -1 -1</clus>
<clus scale="   24.136">  7 10 -1 -1</clus>
<clus scale="   82.373">  1  5  2 -1</clus>
<clus scale="   34.381">  2  5  1 -1</clus>
</clustering>
</event>
<event>
10    4  0.2759992E-005  0.2752475E+03  0.7546771E-02  0.1133961E+00
          2   -1    0    0  503    0 -0.00000000000E+00  0.00000000000E+00  0.15855936090E+04  0.15855936090E+04  0.00000000000E+00 0. -1.
         21   -1    0    0  501  502  0.00000000000E+00 -0.00000000000E+00 -0.57635695847E+02  0.57635695847E+02  0.00000000000E+00 0.  1.
         24    2    1    2    0    0 -0.69890741607E+02  0.26464527571E+02  0.10702792182E+04  0.10760253312E+04  0.82145123470E+02 0.  0.
         23    2    1    2    0    0  0.13680852337E+03 -0.12622149770E+03  0.28809539063E+03  0.35491955774E+03  0.91216773777E+02 0.  0.
        -11    1    3    3    0    0 -0.35845877877E+02 -0.11696178193E+02  0.16293058274E+03  0.16723666565E+03  0.00000000000E+00 0.  1.
         12    1    3    3    0    0 -0.34044863730E+02  0.38160705764E+02  0.90734863550E+03  0.90878866550E+03  0.00000000000E+00 0. -1.
        -11    1    4    4    0    0 -0.87481871117E+01 -0.27930942602E+02  0.24498201571E+02  0.38168445247E+02  0.00000000000E+00 0. -1.
         11    1    4    4    0    0  0.14555671048E+03 -0.98290555096E+02  0.26359718906E+03  0.31675111249E+03  0.00000000000E+00 0.  1.
         21    1    1    2  503  502 -0.96891070043E+01  0.46623309937E+02  0.46770470305E+02  0.66746450966E+02  0.00000000000E+00 0.  1.
          1    1    1    2  501    0 -0.57228674759E+02  0.53133660190E+02  0.12281283394E+03  0.14553796495E+03  0.00000000000E+00 0. -1.
<scales pt_clust_5="13000.00000" pt_clust_6="13000.00000" pt_clust_7="13000.00000" pt_clust_8="13000.00000" pt_clust_9="47.61945" pt_clust_10="13000.00000"></scales>
<clustering>
<clus scale="   47.619">  2  9  1 -1</clus>
<clus scale="   82.145">  5  6 -1 -1</clus>
<clus scale="   91.217">  7  8 -1 -1</clus>
<clus scale="   87.597">  7 10 -1 -1</clus>
<clus scale="  112.123">  1  5  2 -1</clus>
<clus scale="   47.619">  2  5  1 -1</clus>
</clustering>
</event>
<event>
10    4  0.2759992E-005  0.1946325E+03  0.7546771E-02  0.1187958E+00
         21   -1    0    0  501  502  0.00000000000E+00  0.00000000000E+00  0.62522118140E+02  0.62522118140E+02  0.00000000000E+00 0. -1.
          2   -1    0    0  503    0 -0.00000000000E+00 -0.00000000000E+00 -0.43563969379E+03  0.43563969379E+03  0.00000000000E+00 0. -1.
         24    2    1    2    0    0 -0.30182379822E+02  0.65595553215E+00 -0.11259224984E+03  0.14190811534E+03  0.80928932688E+02 0.  0.
         23    2    1    2    0    0 -0.38794584588E+02 -0.71264347113E+01 -0.10875889499E+03  0.14648434851E+03  0.89851885090E+02 0.  0.
        -13    1    3    3    0    0 -0.43912404366E+01 -0.35394035665E+02 -0.77707367689E+02  0.85501203187E+02  0.00000000000E+00 0.  1.
         14    1    3    3    0    0 -0.25791139385E+02  0.36049991197E+02 -0.34884882153E+02  0.56406912156E+02  0.00000000000E+00 0. -1.
        -13    1    4    4    0    0  0.18916949891E+02 -0.29977844788E+02 -0.31869994931E+02  0.47667795714E+02  0.00000000000E+00 0. -1.
         13    1    4    4    0    0 -0.57711534479E+02  0.22851410077E+02 -0.76888900054E+02  0.98816552794E+02  0.00000000000E+00 0.  1.
         21    1    1    2  503  502 -0.33883513264E+02  0.18572220675E+02 -0.24780549609E+02  0.45903109816E+02  0.00000000000E+00 0.  1.
          1    1    1    2  501    0  0.10286047767E+03 -0.12101741496E+02 -0.12698588121E+03  0.16386623826E+03  0.00000000000E+00 0. -1.
<scales pt_clust_5="13000.00000" pt_clust_6="13000.00000" pt_clust_7="13000.00000" pt_clust_8="13000.00000" pt_clust_9="38.63962" pt_clust_10="13000.00000"></scales>
<clustering>
<clus scale="   38.640">  1  9  2 -1</clus>
<clus scale="   80.929">  5  6 -1 -1</clus>
<clus scale="   89.852">  7  8 -1 -1</clus>
<clus scale="   90.352">  2  5  1 -1</clus>
<clus scale="   73.692">  7 10 -1 -1</clus>
<clus scale="   38.640">  1  5  2 -1</clus>
</clustering>
</event>
<event>
10    4  0.2759992E-005  0.9621824E+03  0.7546771E-02  0.9571840E-01
         21   -1    0    0  503  502  0.00000000000E+00  0.00000000000E+00  0.25194681198E+03  0.25194681198E+03  0.00000000000E+00 0. -1.
          2   -1    0    0  502    0 -0.00000000000E+00 -0.00000000000E+00 -0.22877823039E+04  0.22877823039E+04  0.00000000000E+00 0. -1.
         24    2    1    2    0    0  0.16219003505E+03  0.40582743346E+03 -0.78563472467E+03  0.90286434295E+03  0.83310191205E+02 0.  0.
         23    2    1    2    0    0  0.99365006761E+02 -0.44417057677E+03 -0.18357476300E+03  0.49884505444E+03  0.89363241291E+02 0.  0.
        -11    1    3    3    0    0  0.10195580986E+03  0.14690056535E+03 -0.30114772600E+03  0.35023522972E+03  0.00000000000E+00 0.  1.
         12    1    3    3    0    0  0.60234225186E+02  0.25892686811E+03 -0.48448699866E+03  0.55262911323E+03  0.00000000000E+00 0. -1.
        -11    1    4    4    0    0  0.58520343015E+02 -0.38570632255E+03 -0.17295327900E+03  0.42673977378E+03  0.00000000000E+00 0.  1.
         11    1    4    4    0    0  0.40844663746E+02 -0.58464254215E+02 -0.10621483997E+02  0.72105280664E+02  0.00000000000E+00 0. -1.
         21    1    1    2  503  501 -0.76480851476E+02  0.14125952755E+02 -0.27854232740E+02  0.82611872424E+02  0.00000000000E+00 0. -1.
          1    1    1    2  501    0 -0.18507419033E+03  0.24217190551E+02 -0.10387717715E+04  0.10554078461E+04  0.00000000000E+00 0. -1.
<scales pt_clust_5="13000.00000" pt_clust_6="13000.00000" pt_clust_7="13000.00000" pt_clust_8="13000.00000" pt_clust_9="77.77444" pt_clust_10="13000.00000"></scales>
<clustering>
<clus scale="   77.774">  1  9  2 -1</clus>
<clus scale="   83.310">  5  6 -1 -1</clus>
<clus scale="   89.363">  7  8 -1 -1</clus>
<clus scale="  189.529">  7 10 -1 -1</clus>
<clus scale="  441.442">  2  5  1 -1</clus>
<clus scale="   77.774">  1  5  2 -1</clus>
</clustering>
</event>
<event>
10    4  0.2759992E-005  0.5130996E+03  0.7546771E-02  0.1039407E+00
          2   -1    0    0  503    0 -0.00000000000E+00  0.00000000000E+00  0.30082968494E+04  0.30082968494E+04  0.00000000000E+00 0. -1.
         21   -1    0    0  501  502  0.00000000000E+00 -0.00000000000E+00 -0.11324696672E+03  0.11324696672E+03  0.00000000000E+00 0.  1.
         24    2    1    2    0    0  0.24615798682E+01 -0.17882459021E+03  0.57139383968E+03  0.60392802549E+03  0.79081265188E+02 0.  0.
         23    2    1    2    0    0  0.33272625423E+02 -0.10152714175E+03  0.34125746794E+03  0.36965503026E+03  0.93666183112E+02 0.  0.
        -13    1    3    3    0    0 -0.43523914137E+01 -0.58074596873E+02  0.31629633691E+03  0.32161308253E+03  0.00000000000E+00 0.  1.
         14    1    3    3    0    0  0.68139712819E+01 -0.12074999334E+03  0.25509750277E+03  0.28231494295E+03  0.00000000000E+00 0. -1.
        -13    1    4    4    0    0  0.37422721808E+02 -0.21226440928E+01  0.14304465377E+03  0.14787406364E+03  0.00000000000E+00 0. -1.
         13    1    4    4    0    0 -0.41500963847E+01 -0.99404497653E+02  0.19821281417E+03  0.22178096662E+03  0.00000000000E+00 0.  1.
         21    1    1    2  503  502  0.14515098344E+03 -0.42270263315E+02  0.21758976032E+02  0.15273845682E+03  0.00000000000E+00 0. -1.
          1    1    1    2  501    0 -0.18088518873E+03  0.32262199527E+03  0.19606395991E+04  0.19952223036E+04  0.00000000000E+00 0. -1.
<scales pt_clust_5="13000.00000" pt_clust_6="13000.00000" pt_clust_7="13000.00000" pt_clust_8="13000.00000" pt_clust_9="151.18063" pt_clust_10="13000.00000"></scales>
<clustering>
<clus scale="   79.081">  5  6 -1 -1</clus>
<clus scale="   93.666">  7  8 -1 -1</clus>
<clus scale="  151.181">  2  9  1 -1</clus>
<clus scale="  215.134">  1  5  2 -1</clus>
<clus scale="  187.761">  7 10 -1 -1</clus>
<clus scale="  151.181">  2  5  1 -1</clus>
</clustering>
</event>
<event>
10    4  0.2759992E-005  0.8331688E+03  0.7546771E-02  0.9924888E-01
          2   -1    0    0  503    0 -0.00000000000E+00  0.00000000000E+00  0.22317698705E+04  0.22317698705E+04  0.00000000000E+00 0. -1.
         21   -1    0    0  501  502  0.00000000000E+00 -0.00000000000E+00 -0.17782891079E+03  0.17782891079E+03  0.00000000000E+00 0. -1.
         24    2    1    2    0    0  0.71302828713E+02  0.19723437275E+03  0.40436816447E+03  0.46367563087E+03  0.86579368465E+02 0.  0.
         23    2    1    2    0    0 -0.27626121708E+03  0.12485288346E+03  0.26361780002E+03  0.41213391491E+03  0.91932131241E+02 0.  0.
        -13    1    3    3    0    0  0.44746953366E+02  0.15719588616E+03  0.37033770822E+03  0.40479977099E+03  0.00000000000E+00 0.  1.
         14    1    3    3    0    0  0.26555875347E+02  0.40038486590E+02  0.34030456253E+02  0.58875859881E+02  0.00000000000E+00 0. -1.
        -13    1    4    4    0    0 -0.35624422942E+02  0.55390032940E+02  0.45925054560E+02  0.80288641136E+02  0.00000000000E+00 0.  1.
         13    1    4    4    0    0 -0.24063679414E+03  0.69462850522E+02  0.21769274546E+03  0.33184527377E+03  0.00000000000E+00 0. -1.
         21    1    1    2  503  502 -0.32830728984E+02 -0.68177961904E+02 -0.25690343097E+02  0.79912983823E+02  0.00000000000E+00 0. -1.
          1    1    1    2  501    0  0.23778911735E+03 -0.25390929431E+03  0.14116453383E+04  0.14538762517E+04  0.00000000000E+00 0. -1.
<scales pt_clust_5="13000.00000" pt_clust_6="13000.00000" pt_clust_7="13000.00000" pt_clust_8="13000.00000" pt_clust_9="75.67094" pt_clust_10="13000.00000"></scales>
<clustering>
<clus scale="   75.671">  2  9  1 -1</clus>
<clus scale="   86.579">  5  6 -1 -1</clus>
<clus scale="   91.932">  7  8 -1 -1</clus>
<clus scale="  210.510">  1  5  2 -1</clus>
<clus scale="  307.670">  7 10 -1 -1</clus>
<clus scale="   75.671">  2  5  1 -1</clus>
</clustering>
</event>
<event>
10    4  0.2759992E-005  0.4476346E+03  0.7546771E-02  0.1051056E+00
          2   -1    0    0  503    0 -0.00000000000E+00  0.00000000000E+00  0.26694579648E+04  0.26694579648E+04  0.00000000000E+00 0. -1.
         21   -1    0    0  501  502  0.00000000000E+00 -0.00000000000E+00 -0.16317253956E+03  0.16317253956E+03  0.00000000000E+00 0. -1.
         24    2    1    2    0    0 -0.16795625809E+03 -0.14100553612E+03  0.60506053561E+03  0.64893032160E+03  0.83189210195E+02 0.  0.
         23    2    1    2    0    0 -0.34701239988E+02  0.31266663520E+02  0.13666586381E+03  0.17129816596E+03  0.92107127982E+02 0.  0.
        -13    1    3    3    0    0 -0.10801121867E+03 -0.92478766032E+02  0.49150604997E+03  0.51166096459E+03  0.00000000000E+00 0.  1.
         14    1    3    3    0    0 -0.59945039418E+02 -0.48526770087E+02  0.11355448564E+03  0.13726935701E+03  0.00000000000E+00 0. -1.
        -11    1    4    4    0    0 -0.30900689447E+02 -0.28634961147E+02  0.44214466489E+02  0.61071537193E+02  0.00000000000E+00 0. -1.
         11    1    4    4    0    0 -0.38005505408E+01  0.59901624667E+02  0.92451397323E+02  0.11022662877E+03  0.00000000000E+00 0.  1.
         21    1    1    2  503  502 -0.15059492864E+02  0.29906966784E+02 -0.11439378598E+03  0.11919376351E+03  0.00000000000E+00 0. -1.
          1    1    1    2  501    0  0.21771699094E+03  0.79831905814E+02  0.18789528118E+04  0.18932082532E+04  0.00000000000E+00 0. -1.
<scales pt_clust_5="13000.00000" pt_clust_6="13000.00000" pt_clust_7="13000.00000" pt_clust_8="13000.00000" pt_clust_9="33.48455" pt_clust_10="13000.00000"></scales>
<clustering>
<clus scale="   33.485">  2  9  1 -1</clus>
<clus scale="   83.189">  5  6 -1 -1</clus>
<clus scale="   92.107">  7  8 -1 -1</clus>
<clus scale="  231.358">  7 10 -1 -1</clus>
<clus scale="  231.661">  1  5  2 -1</clus>
<clus scale="   33.485">  2  5  1 -1</clus>
</clustering>
</event>
<event>
10    4  0.2759992E-005  0.1085013E+04  0.7546771E-02  0.9478586E-01
         21   -1    0    0  503  502  0.00000000000E+00  0.00000000000E+00  0.37753264769E+03  0.37753264769E+03  0.00000000000E+00 0. -1.
          2   -1    0    0  502    0 -0.00000000000E+00 -0.00000000000E+00 -0.19138792734E+04  0.19138792734E+04  0.00000000000E+00 0. -1.
         24    2    1    2    0    0  0.39086753246E+03 -0.19539751879E+03 -0.66902884730E+03  0.80328561271E+03  0.81918000355E+02 0.  0.
         23    2    1    2    0    0  0.17127984836E+03 -0.30307217622E+03 -0.40526236870E+03  0.54213553268E+03  0.92107642752E+02 0.  0.
        -13    1    3    3    0    0  0.56966502532E+02 -0.33998535029E+02 -0.56052168226E+02  0.86850033723E+02  0.00000000000E+00 0.  1.
         14    1    3    3    0    0  0.33390102993E+03 -0.16139898376E+03 -0.61297667907E+03  0.71643557898E+03  0.00000000000E+00 0. -1.
        -13    1    4    4    0    0  0.97089770508E+02 -0.11706281630E+03 -0.23156456630E+03  0.27704200920E+03  0.00000000000E+00 0. -1.
         13    1    4    4    0    0  0.74190077854E+02 -0.18600935992E+03 -0.17369780240E+03  0.26509352347E+03  0.00000000000E+00 0.  1.
         21    1    1    2  503  501 -0.11483385482E+03 -0.24192852556E+02 -0.13310699407E+00  0.11735470185E+03  0.00000000000E+00 0.  1.
          1    1    1    2  501    0 -0.44731352600E+03  0.52266254757E+03 -0.46192230275E+03  0.82863607389E+03  0.00000000000E+00 0. -1.
<scales pt_clust_5="13000.00000" pt_clust_6="13000.00000" pt_clust_7="13000.00000" pt_clust_8="13000.00000" pt_clust_9="117.35463" pt_clust_10="13000.00000"></scales>
<clustering>
<clus scale="   81.918">  5  6 -1 -1</clus>
<clus scale="   92.108">  7  8 -1 -1</clus>
<clus scale="  117.355">  1  9  2 -1</clus>
<clus scale="  425.879">  2  5  1 -1</clus>
<clus scale="  486.355">  7 10 -1 -1</clus>
<clus scale="  117.355">  1  5  2 -1</clus>
</clustering>
</event>
<event>
10    4  0.2759992E-005  0.1498283E+03  0.7546771E-02  0.1228257E+00
          2   -1    0    0  503    0 -0.00000000000E+00  0.00000000000E+00  0.51706258719E+03  0.51706258719E+03  0.00000000000E+00 0. -1.
         21   -1    0    0  501  502  0.00000000000E+00 -0.00000000000E+00 -0.33236608883E+02  0.33236608883E+02  0.00000000000E+00 0.  1.
         24    2    1    2    0    0 -0.94657441975E+01  0.14275908918E+02  0.20613864870E+03  0.22189080754E+03  0.80305579481E+02 0.  0.
         23    2    1    2    0    0 -0.51283154626E+00 -0.55816874775E+02  0.12794906433E+03  0.16752646395E+03  0.92619471799E+02 0.  0.
        -11    1    3    3    0    0  0.25569389722E+02 -0.82541947392E+01  0.27449678831E+02  0.38411069882E+02  0.00000000000E+00 0.  1.
         12    1    3    3    0    0 -0.35035133919E+02  0.22530103657E+02  0.17868896987E+03  0.18347973766E+03  0.00000000000E+00 0. -1.
        -11    1    4    4    0    0  0.37997088864E+02 -0.45992485659E+01  0.75773496796E+02  0.84891428697E+02  0.00000000000E+00 0. -1.
         11    1    4    4    0    0 -0.38509920410E+02 -0.51217626209E+02  0.52175567531E+02  0.82635035256E+02  0.00000000000E+00 0.  1.
         21    1    1    2  503  502 -0.10009712341E+02  0.19418138464E+02  0.27828374477E+02  0.35379045615E+02  0.00000000000E+00 0. -1.
          1    1    1    2  501    0  0.19988288084E+02  0.22122827392E+02  0.12190989080E+03  0.12550287896E+03  0.00000000000E+00 0. -1.
<scales pt_clust_5="13000.00000" pt_clust_6="13000.00000" pt_clust_7="13000.00000" pt_clust_8="13000.00000" pt_clust_9="21.84625" pt_clust_10="13000.00000"></scales>
<clustering>
<clus scale="   21.846">  2  9  1 -1</clus>
<clus scale="   80.306">  5  6 -1 -1</clus>
<clus scale="   83.519">  1  5  2 -1</clus>
<clus scale="   92.619">  7  8 -1 -1</clus>
<clus scale="   35.058">  7 10 -1 -1</clus>
<clus scale="   21.846">  2  5  1 -1</clus>
</clustering>
</event>
<event>
10    4  0.2759992E-005  0.4341838E+03  0.7546771E-02  0.1065851E+00
          2   -1    0    0  503    0 -0.00000000000E+00  0.00000000000E+00  0.35442552319E+03  0.35442552319E+03  0.00000000000E+00 0. -1.
         21   -1    0    0  501  502  0.00000000000E+00 -0.00000000000E+00 -0.10120498232E+04  0.10120498232E+04  0.00000000000E+00 0.  1.
         24    2    1    2    0    0  0.14130410641E+03 -0.44271355172E+02  0.31081663171E+02  0.17044395232E+03  0.78474631056E+02 0.  0.
         23    2    1    2    0    0  0.55187736347E+01 -0.27390914440E+03 -0.13836287851E+02  0.28663492511E+03  0.83135198207E+02 0.  0.
        -11    1    3    3    0    0  0.43246889392E+02  0.63769064633E+01 -0.20895437957E+02  0.48451808073E+02  0.00000000000E+00 0.  1.
         12    1    3    3    0    0  0.98057217021E+02 -0.50648261635E+02  0.51977101127E+02  0.12199214425E+03  0.00000000000E+00 0. -1.
        -11    1    4    4    0    0  0.19848344164E+02 -0.16134562240E+03 -0.45534503769E+02  0.16881871243E+03  0.00000000000E+00 0. -1.
         11    1    4    4    0    0 -0.14329570529E+02 -0.11256352200E+03  0.31698215918E+02  0.11781621268E+03  0.00000000000E+00 0.  1.
         21    1    1    2  503  502 -0.12876146507E+03  0.42331316575E+03 -0.66961484684E+03  0.80259428997E+03  0.00000000000E+00 0.  1.
          1    1    1    2  501    0 -0.18061414979E+02 -0.10513266618E+03 -0.52548284708E+01  0.10680217896E+03  0.00000000000E+00 0. -1.
<scales pt_clust_5="13000.00000" pt_clust_6="13000.00000" pt_clust_7="13000.00000" pt_clust_8="13000.00000" pt_clust_9="421.80240" pt_clust_10="13000.00000"></scales>
<clustering>
<clus scale="   78.475">  5  6 -1 -1</clus>
<clus scale="   83.135">  7  8 -1 -1</clus>
<clus scale="  106.673">  7 10 -1 -1</clus>
<clus scale="  167.586">  1  5  2 -1</clus>
<clus scale="  421.802">  2  9  1 -1</clus>
<clus scale="  421.802">  2  5  1 -1</clus>
</clustering>
</event>
<event>
10    4  0.2759992E-005  0.2911456E+03  0.7546771E-02  0.1115885E+00
          2   -1    0    0  503    0 -0.00000000000E+00  0.00000000000E+00  0.87474405646E+03  0.87474405646E+03  0.00000000000E+00 0. -1.
         21   -1    0    0  501  502  0.00000000000E+00 -0.00000000000E+00 -0.10456040722E+03  0.10456040722E+03  0.00000000000E+00 0. -1.
         24    2    1    2    0    0 -0.11517235069E+03 -0.63780110065E+02  0.30441022226E+02  0.15878504105E+03  0.83387412853E+02 0.  0.
         23    2    1    2    0    0  0.20622145110E+02 -0.34051114477E+01  0.65339895635E+02  0.11680698078E+03  0.94539415830E+02 0.  0.
        -13    1    3    3    0    0 -0.12557901627E+02 -0.32155830649E+02 -0.20273728036E+02  0.40034015368E+02  0.00000000000E+00 0.  1.
         14    1    3    3    0    0 -0.10261444907E+03 -0.31624279416E+02  0.50714750263E+02  0.11875102568E+03  0.00000000000E+00 0. -1.
        -11    1    4    4    0    0 -0.15456397347E+02 -0.38258065933E+02  0.10689640690E+02  0.42624502882E+02  0.00000000000E+00 0.  1.
         11    1    4    4    0    0  0.36078542456E+02  0.34852954486E+02  0.54650254945E+02  0.74182477902E+02  0.00000000000E+00 0. -1.
         21    1    1    2  503  502 -0.67599605073E+01  0.55011124403E+02  0.63241853289E+02  0.84091931132E+02  0.00000000000E+00 0. -1.
          1    1    1    2  501    0  0.10131016609E+03  0.12174097110E+02  0.61116087809E+03  0.61962051071E+03  0.00000000000E+00 0. -1.
<scales pt_clust_5="13000.00000" pt_clust_6="13000.00000" pt_clust_7="13000.00000" pt_clust_8="13000.00000" pt_clust_9="55.42491" pt_clust_10="13000.00000"></scales>
<clustering>
<clus scale="   55.425">  2  9  1 -1</clus>
<clus scale="   83.387">  5  6 -1 -1</clus>
<clus scale="   94.539">  7  8 -1 -1</clus>
<clus scale="  102.063">  7 10 -1 -1</clus>
<clus scale="  148.295">  1  5  2 -1</clus>
<clus scale="   55.425">  2  5  1 -1</clus>
</clustering>
</event>
<event>
10    4  0.2759992E-005  0.2274339E+03  0.7546771E-02  0.1169702E+00
         21   -1    0    0  501  502  0.00000000000E+00  0.00000000000E+00  0.10599208176E+03  0.10599208176E+03  0.00000000000E+00 0.  1.
          2   -1    0    0  503    0 -0.00000000000E+00 -0.00000000000E+00 -0.12987433058E+04  0.12987433058E+04  0.00000000000E+00 0. -1.
         24    2    1    2    0    0  0.57689919992E+01  0.35740049977E+02 -0.42151757859E+03  0.43057383325E+03  0.80038268247E+02 0.  0.
         23    2    1    2    0    0  0.59715267183E+02 -0.40829051312E+02 -0.27561755650E+03  0.29927170409E+03  0.91463603966E+02 0.  0.
        -11    1    3    3    0    0  0.30879261756E+02 -0.89974201126E+01 -0.10161667577E+03  0.10658532342E+03  0.00000000000E+00 0.  1.
         12    1    3    3    0    0 -0.25110269756E+02  0.44737470090E+02 -0.31990090282E+03  0.32398850983E+03  0.00000000000E+00 0. -1.
        -13    1    4    4    0    0  0.63302488099E+02  0.14768479633E+00 -0.95913308258E+02  0.11491992652E+03  0.00000000000E+00 0.  1.
         13    1    4    4    0    0 -0.35872209159E+01 -0.40976736109E+02 -0.17970424824E+03  0.18435177757E+03  0.00000000000E+00 0. -1.
         21    1    1    2  503  502  0.84312978190E+01 -0.29230064316E+02  0.84120996171E+02  0.89452923036E+02  0.00000000000E+00 0.  1.
          1    1    1    2  501    0 -0.73915557001E+02  0.34319065652E+02 -0.57973708513E+03  0.58543692718E+03  0.00000000000E+00 0. -1.
<scales pt_clust_5="13000.00000" pt_clust_6="13000.00000" pt_clust_7="13000.00000" pt_clust_8="13000.00000" pt_clust_9="30.42176" pt_clust_10="13000.00000"></scales>
<clustering>
<clus scale="   30.422">  1  9  2 -1</clus>
<clus scale="   80.038">  5  6 -1 -1</clus>
<clus scale="   85.431">  2  5  1 -1</clus>
<clus scale="   91.464">  7  8 -1 -1</clus>
<clus scale="   82.940">  7 10 -1 -1</clus>
<clus scale="   30.422">  1  5  2 -1</clus>
</clustering>
</event>
<event>
10    4  0.2759992E-005  0.6713346E+03  0.7546771E-02  0.1021020E+00
          2   -1    0    0  503    0 -0.00000000000E+00  0.00000000000E+00  0.77751046782E+03  0.77751046782E+03  0.00000000000E+00 0. -1.
         21   -1    0    0  501  502  0.00000000000E+00 -0.00000000000E+00 -0.35962296056E+03  0.35962296056E+03  0.00000000000E+00 0. -1.
         24    2    1    2    0    0 -0.12347416162E+03 -0.88949327209E+02  0.31715738787E+03  0.36007211421E+03  0.76845737364E+02 0.  0.
         23    2    1    2    0    0 -0.17124548911E+02 -0.26546004709E+03  0.23208376983E+03  0.36513153005E+03  0.93251655407E+02 0.  0.
        -13    1    3    3    0    0 -0.10384132742E+03 -0.71253510048E+02  0.17573470604E+03  0.21620076522E+03  0.00000000000E+00 0.  1.
         14    1    3    3    0    0 -0.19632834195E+02 -0.17695817161E+02  0.14142268183E+03  0.14387134898E+03  0.00000000000E+00 0. -1.
        -13    1    4    4    0    0 -0.15887343246E+02 -0.63526104135E+02  0.12237140459E+02  0.66616223164E+02  0.00000000000E+00 0.  1.
         13    1    4    4    0    0 -0.12372056654E+01 -0.20193394296E+03  0.21984662937E+03  0.29851530688E+03  0.00000000000E+00 0. -1.
         21    1    1    2  503  502  0.40195697069E+02  0.64434374491E+02 -0.60233871626E+02  0.96930913386E+02  0.00000000000E+00 0. -1.
          1    1    1    2  501    0  0.10040301346E+03  0.28997499981E+03 -0.71119778825E+02  0.31499887074E+03  0.00000000000E+00 0. -1.
<scales pt_clust_5="13000.00000" pt_clust_6="13000.00000" pt_clust_7="13000.00000" pt_clust_8="13000.00000" pt_clust_9="75.94394" pt_clust_10="13000.00000"></scales>
<clustering>
<clus scale="   75.944">  2  9  1 -1</clus>
<clus scale="   76.846">  5  6 -1 -1</clus>
<clus scale="   93.252">  7  8 -1 -1</clus>
<clus scale="  165.722">  1  5  2 -1</clus>
<clus scale="  311.913">  7 10 -1 -1</clus>
<clus scale="   75.944">  2  5  1 -1</clus>
</clustering>
</event>
<event>
10    4  0.2759992E-005  0.3709951E+03  0.7546771E-02  0.1067573E+00
         21   -1    0    0  501  502  0.00000000000E+00  0.00000000000E+00  0.36128609572E+03  0.36128609572E+03  0.00000000000E+00 0.  1.
          2   -1    0    0  503    0 -0.00000000000E+00 -0.00000000000E+00 -0.13168684006E+04  0.13168684006E+04  0.00000000000E+00 0. -1.
         24    2    1    2    0    0  0.23133042573E+03 -0.85875258156E+02 -0.61378436411E+03  0.66651990949E+03  0.81420011611E+02 0.  0.
         23    2    1    2    0    0 -0.13215040235E+03  0.13408034626E+02 -0.53560154464E+03  0.55905909496E+03  0.89635667064E+02 0.  0.
        -11    1    3    3    0    0  0.12089513682E+03 -0.29229206660E+01 -0.31258310429E+03  0.33516022237E+03  0.00000000000E+00 0.  1.
         12    1    3    3    0    0  0.11043528891E+03 -0.82952337490E+02 -0.30120125982E+03  0.33135968712E+03  0.00000000000E+00 0. -1.
        -13    1    4    4    0    0 -0.62978644270E+02 -0.19027223862E+02 -0.38068751064E+03  0.38633059113E+03  0.00000000000E+00 0. -1.
         13    1    4    4    0    0 -0.69171758076E+02  0.32435258488E+02 -0.15491403399E+03  0.17272850383E+03  0.00000000000E+00 0.  1.
         21    1    1    2  503  502 -0.33989177824E+02 -0.51561517732E+02  0.28089061811E+03  0.28759936311E+03  0.00000000000E+00 0.  1.
          1    1    1    2  501    0 -0.65190845557E+02  0.12402874126E+03 -0.87087014216E+02  0.16497612872E+03  0.00000000000E+00 0. -1.
<scales pt_clust_5="13000.00000" pt_clust_6="13000.00000" pt_clust_7="13000.00000" pt_clust_8="13000.00000" pt_clust_9="61.75641" pt_clust_10="13000.00000"></scales>
<clustering>
<clus scale="   61.756">  1  9  2 -1</clus>
<clus scale="   81.420">  5  6 -1 -1</clus>
<clus scale="   89.636">  7  8 -1 -1</clus>
<clus scale="  127.993">  7 10 -1 -1</clus>
<clus scale="  256.151">  2  5  1 -1</clus>
<clus scale="   61.756">  1  5  2 -1</clus>
</clustering>
</event>
<event>
10    4  0.2759992E-005  0.3905495E+03  0.7546771E-02  0.1077997E+00
          2   -1    0    0  502    0 -0.00000000000E+00  0.00000000000E+00  0.69360286084E+03  0.69360286084E+03  0.00000000000E+00 0. -1.
         21   -1    0    0  503  502  0.00000000000E+00 -0.00000000000E+00 -0.19545019511E+03  0.19545019511E+03  0.00000000000E+00 0. -1.
         24    2    1    2    0    0  0.13029916234E+03  0.10185595892E+03  0.22865056009E+03  0.29349189477E+03  0.80646795305E+02 0.  0.
         23    2    1    2    0    0  0.66023856211E+02 -0.18368812571E+02  0.28921488665E+03  0.31137124643E+03  0.92791376633E+02 0.  0.
        -11    1    3    3    0    0  0.93584563837E+01  0.52571085929E+02  0.67459870256E+02  0.86035654682E+02  0.00000000000E+00 0.  1.
         12    1    3    3    0    0  0.12094070595E+03  0.49284872992E+02  0.16119068983E+03  0.20745624009E+03  0.00000000000E+00 0. -1.
        -11    1    4    4    0    0  0.45661548684E+02  0.34768189200E+02  0.16625483138E+03  0.17588198590E+03  0.00000000000E+00 0.  1.
         11    1    4    4    0    0  0.20362307526E+02 -0.53137001771E+02  0.12296005528E+03  0.13548926053E+03  0.00000000000E+00 0. -1.
         21    1    1    2  503  501 -0.26057980207E+02 -0.10428916020E+03 -0.32173431784E+02  0.11220684908E+03  0.00000000000E+00 0. -1.
          1    1    1    2  501    0 -0.17026503834E+03  0.20802013846E+02  0.12460650763E+02  0.17198306567E+03  0.00000000000E+00 0. -1.
<scales pt_clust_5="13000.00000" pt_clust_6="13000.00000" pt_clust_7="13000.00000" pt_clust_8="13000.00000" pt_clust_9="107.49534" pt_clust_10="13000.00000"></scales>
<clustering>
<clus scale="   80.647">  5  6 -1 -1</clus>
<clus scale="   92.791">  7  8 -1 -1</clus>
<clus scale="  107.495">  2  9  1 -1</clus>
<clus scale="  165.172">  1  5  2 -1</clus>
<clus scale="  150.200">  7 10 -1 -1</clus>
<clus scale="  107.495">  2  5  1 -1</clus>
</clustering>
</event>
<event>
10    4  0.2759992E-005  0.5904330E+03  0.7546771E-02  0.1029555E+00
         21   -1    0    0  503  502  0.00000000000E+00  0.00000000000E+00  0.11810038728E+03  0.11810038728E+03  0.00000000000E+00 0. -1.
          2   -1    0    0  502    0 -0.00000000000E+00 -0.00000000000E+00 -0.16174540427E+04  0.16174540427E+04  0.00000000000E+00 0. -1.
         24    2    1    2    0    0 -0.74446131854E+02 -0.15105348565E+03 -0.67198966431E+03  0.69750331183E+03  0.81125698686E+02 0.  0.
         23    2    1    2    0    0 -0.11454534638E+03 -0.10898508340E+03 -0.75736872610E+02  0.19597185630E+03  0.87581446690E+02 0.  0.
        -11    1    3    3    0    0 -0.45129027060E+01 -0.66782173455E+02 -0.15164650427E+03  0.16576153727E+03  0.00000000000E+00 0.  1.
         12    1    3    3    0    0 -0.69933229147E+02 -0.84271312195E+02 -0.52034316004E+03  0.53174177455E+03  0.00000000000E+00 0. -1.
        -11    1    4    4    0    0 -0.45795846285E+02 -0.23162295074E+02 -0.68741879891E+02  0.85785765142E+02  0.00000000000E+00 0.  1.
         11    1    4    4    0    0 -0.68749500098E+02 -0.85822788330E+02 -0.69949927197E+01  0.11018609115E+03  0.00000000000E+00 0. -1.
         21    1    1    2  503  501  0.37217915158E+01 -0.19924985857E+02 -0.15836946021E+01  0.20331376788E+02  0.00000000000E+00 0. -1.
          1    1    1    2  501    0  0.18526968672E+03  0.27996355491E+03 -0.75004342385E+03  0.82174788503E+03  0.00000000000E+00 0. -1.
<scales pt_clust_5="13000.00000" pt_clust_6="13000.00000" pt_clust_7="13000.00000" pt_clust_8="13000.00000" pt_clust_9="20.26960" pt_clust_10="13000.00000"></scales>
<clustering>
<clus scale="   20.270">  1  9  2 -1</clus>
<clus scale="   81.126">  5  6 -1 -1</clus>
<clus scale="   87.581">  7  8 -1 -1</clus>
<clus scale="  188.647">  2  5  1 -1</clus>
<clus scale="  191.713">  7 10 -1 -1</clus>
<clus scale="   20.270">  1  5  2 -1</clus>
</clustering>
</event>
<event>
10    4  0.2759992E-005  0.5331162E+03  0.7546771E-02  0.1031124E+00
         21   -1    0    0  503  502  0.00000000000E+00  0.00000000000E+00  0.40183556674E+03  0.40183556674E+03  0.00000000000E+00 0.  1.
          2   -1    0    0  502    0 -0.00000000000E+00 -0.00000000000E+00 -0.18950561398E+04  0.18950561398E+04  0.00000000000E+00 0. -1.
         24    2    1    2    0    0  0.20643215673E+03 -0.70300686557E+02  0.10958369180E+02  0.23251990267E+03  0.79931204279E+02 0.  0.
         23    2    1    2    0    0 -0.13130916425E+03 -0.18125731816E+03 -0.83981063465E+03  0.87394362403E+03  0.91647388988E+02 0.  0.
        -13    1    3    3    0    0  0.13632295693E+03 -0.65605560888E+02  0.40003210956E+02  0.15648736400E+03  0.00000000000E+00 0.  1.
         14    1    3    3    0    0  0.70109199802E+02 -0.46951256690E+01 -0.29044841776E+02  0.76032538664E+02  0.00000000000E+00 0. -1.
        -11    1    4    4    0    0 -0.99355980879E+02 -0.17107294264E+03 -0.78619185367E+03  0.81070043384E+03  0.00000000000E+00 0.  1.
         11    1    4    4    0    0 -0.31953183374E+02 -0.10184375519E+02 -0.53618780975E+02  0.63243190192E+02  0.00000000000E+00 0. -1.
         21    1    1    2  503  501  0.74751084153E+01 -0.28991857263E+02  0.23901612485E+03  0.24088402390E+03  0.00000000000E+00 0.  1.
          1    1    1    2  501    0 -0.82598100894E+02  0.28054986198E+03 -0.90338443243E+03  0.94954415595E+03  0.00000000000E+00 0. -1.
<scales pt_clust_5="13000.00000" pt_clust_6="13000.00000" pt_clust_7="13000.00000" pt_clust_8="13000.00000" pt_clust_9="29.94002" pt_clust_10="13000.00000"></scales>
<clustering>
<clus scale="   29.940">  1  9  2 -1</clus>
<clus scale="   79.931">  5  6 -1 -1</clus>
<clus scale="   91.647">  7  8 -1 -1</clus>
<clus scale="  244.619">  2  5  1 -1</clus>
<clus scale="  231.097">  7 10 -1 -1</clus>
<clus scale="   29.940">  1  5  2 -1</clus>
</clustering>
</event>
<event>
10    4  0.2759992E-005  0.4702320E+03  0.7546771E-02  0.1032507E+00
          2   -1    0    0  503    0 -0.00000000000E+00  0.00000000000E+00  0.92821738232E+03  0.92821738232E+03  0.00000000000E+00 0. -1.
         21   -1    0    0  501  502  0.00000000000E+00 -0.00000000000E+00 -0.26723444287E+03  0.26723444287E+03  0.00000000000E+00 0. -1.
         24    2    1    2    0    0 -0.23007208528E+02 -0.32276203758E+03  0.21196408644E+03  0.39509732015E+03  0.80426698958E+02 0.  0.
         23    2    1    2    0    0  0.11935911529E+03  0.13096725364E+03  0.11868516260E+03  0.23697510060E+03  0.10330542364E+03 0.  0.
        -11    1    3    3    0    0  0.29640307612E+02 -0.13947614562E+03  0.85070527039E+02  0.16603956638E+03  0.00000000000E+00 0.  1.
         12    1    3    3    0    0 -0.52647516139E+02 -0.18328589195E+03  0.12689355940E+03  0.22905775377E+03  0.00000000000E+00 0. -1.
        -13    1    4    4    0    0  0.53665725209E+02  0.26868162871E+02  0.93852080218E+02  0.11140072351E+03  0.00000000000E+00 0. -1.
         13    1    4    4    0    0  0.65693390084E+02  0.10409909077E+03  0.24833082378E+02  0.12557437708E+03  0.00000000000E+00 0.  1.
         21    1    1    2  503  502  0.16420492180E+02 -0.18987286134E+02 -0.82551102726E+02  0.86283452408E+02  0.00000000000E+00 0. -1.
          1    1    1    2  501    0 -0.11277239894E+03  0.21078207007E+03  0.41288479315E+03  0.47709595203E+03  0.00000000000E+00 0. -1.
<scales pt_clust_5="13000.00000" pt_clust_6="13000.00000" pt_clust_7="13000.00000" pt_clust_8="13000.00000" pt_clust_9="25.10278" pt_clust_10="13000.00000"></scales>
<clustering>
<clus scale="   25.103">  2  9  1 -1</clus>
<clus scale="   80.427">  5  6 -1 -1</clus>
<clus scale="  103.305">  7  8 -1 -1</clus>
<clus scale="  234.755">  7 10 -1 -1</clus>
<clus scale="  342.187">  1  5  2 -1</clus>
<clus scale="   25.103">  2  5  1 -1</clus>
</clustering>
</event>
<event>
10    4  0.2759992E-005  0.1397282E+03  0.7546771E-02  0.1239754E+00
          2   -1    0    0  502    0 -0.00000000000E+00  0.00000000000E+00  0.58537087554E+03  0.58537087554E+03  0.00000000000E+00 0. -1.
         21   -1    0    0  503  502  0.00000000000E+00 -0.00000000000E+00 -0.29865529114E+03  0.29865529114E+03  0.00000000000E+00 0.  1.
         24    2    1    2    0    0  0.19396610046E+02 -0.27706577932E+02  0.17496485823E+03  0.19569401958E+03  0.80867575357E+02 0.  0.
         23    2    1    2    0    0  0.59707605896E+02 -0.33273257022E+01  0.28730269237E+03  0.30743827019E+03  0.91648151293E+02 0.  0.
        -11    1    3    3    0    0  0.15161771178E+02  0.18711308908E+02  0.13442041205E+02  0.27580443398E+02  0.00000000000E+00 0.  1.
         12    1    3    3    0    0  0.42348388678E+01 -0.46417886840E+02  0.16152281702E+03  0.16811357618E+03  0.00000000000E+00 0. -1.
        -11    1    4    4    0    0 -0.15841467648E+02  0.14855350468E+02  0.21694961548E+02  0.30696985053E+02  0.00000000000E+00 0. -1.
         11    1    4    4    0    0  0.75549073544E+02 -0.18182676171E+02  0.26560773082E+03  0.27674128514E+03  0.00000000000E+00 0.  1.
         21    1    1    2  503  501 -0.47718604816E+02  0.43071861197E+02 -0.27161555587E+03  0.27911872145E+03  0.00000000000E+00 0.  1.
          1    1    1    2  501    0 -0.31385611125E+02 -0.12037957562E+02  0.96063589677E+02  0.10177515546E+03  0.00000000000E+00 0. -1.
<scales pt_clust_5="13000.00000" pt_clust_6="13000.00000" pt_clust_7="13000.00000" pt_clust_8="13000.00000" pt_clust_9="64.28258" pt_clust_10="13000.00000"></scales>
<clustering>
<clus scale="   64.283">  2  9  1 -1</clus>
<clus scale="   80.868">  5  6 -1 -1</clus>
<clus scale="   81.338">  1  5  2 -1</clus>
<clus scale="   91.648">  7  8 -1 -1</clus>
<clus scale="   39.020">  7 10 -1 -1</clus>
<clus scale="   64.283">  2  5  1 -1</clus>
</clustering>
</event>
<event>
10    4  0.2759992E-005  0.4264547E+03  0.7546771E-02  0.1089545E+00
          2   -1    0    0  503    0 -0.00000000000E+00  0.00000000000E+00  0.11033820561E+04  0.11033820561E+04  0.00000000000E+00 0. -1.
         21   -1    0    0  501  502  0.00000000000E+00 -0.00000000000E+00 -0.11341866985E+03  0.11341866985E+03  0.00000000000E+00 0.  1.
         24    2    1    2    0    0  0.27750676209E+02  0.48165031758E+02  0.12197670404E+03  0.15347988698E+03  0.74751515474E+02 0.  0.
         23    2    1    2    0    0  0.12397179752E+03  0.49347656308E+02  0.28390220102E+03  0.32632154331E+03  0.89894894875E+02 0.  0.
        -11    1    3    3    0    0  0.20139108410E+02  0.12957008862E+02  0.11412800376E+03  0.11661333118E+03  0.00000000000E+00 0.  1.
         12    1    3    3    0    0  0.76115677997E+01  0.35208022896E+02  0.78487002747E+01  0.36866555801E+02  0.00000000000E+00 0. -1.
        -13    1    4    4    0    0  0.45223327749E+02  0.66286217330E+02  0.13604509555E+03  0.15794707976E+03  0.00000000000E+00 0.  1.
         13    1    4    4    0    0  0.78748469770E+02 -0.16938561022E+02  0.14785710547E+03  0.16837446356E+03  0.00000000000E+00 0. -1.
         21    1    1    2  503  502 -0.20037468051E+02  0.15162855090E+03  0.12147727339E+03  0.19531883044E+03  0.00000000000E+00 0.  1.
          1    1    1    2  501    0 -0.13168500568E+03 -0.24914123896E+03  0.46260720779E+03  0.54168046519E+03  0.00000000000E+00 0. -1.
<scales pt_clust_5="13000.00000" pt_clust_6="13000.00000" pt_clust_7="13000.00000" pt_clust_8="13000.00000" pt_clust_9="160.27898" pt_clust_10="13000.00000"></scales>
<clustering>
<clus scale="   74.752">  5  6 -1 -1</clus>
<clus scale="   89.895">  7  8 -1 -1</clus>
<clus scale="   93.155">  1  5  2 -1</clus>
<clus scale="  160.279">  2  9  1 -1</clus>
<clus scale="  186.476">  7 10 -1 -1</clus>
<clus scale="  160.279">  2  5  1 -1</clus>
</clustering>
</event>
<event>
10    4  0.2759992E-005  0.3865835E+03  0.7546771E-02  0.1081573E+00
         21   -1    0    0  503  502  0.00000000000E+00  0.00000000000E+00  0.39500592139E+03  0.39500592139E+03  0.00000000000E+00 0. -1.
          2   -1    0    0  502    0 -0.00000000000E+00 -0.00000000000E+00 -0.60647824046E+03  0.60647824046E+03  0.00000000000E+00 0. -1.
         24    2    1    2    0    0  0.22634824816E+03 -0.87522635974E+02 -0.10038631720E+02  0.25623917187E+03  0.81633313186E+02 0.  0.
         23    2    1    2    0    0  0.41321852902E+02 -0.14781637838E+03 -0.79263061939E+02  0.19540729514E+03  0.91346596878E+02 0.  0.
        -13    1    3    3    0    0  0.25539249931E+02 -0.41722894551E+01 -0.27940504634E+02  0.38083238905E+02  0.00000000000E+00 0.  1.
         14    1    3    3    0    0  0.20080899823E+03 -0.83350346518E+02  0.17901872914E+02  0.21815593297E+03  0.00000000000E+00 0. -1.
        -13    1    4    4    0    0  0.40378806229E+02 -0.22036823746E+02  0.13296632000E+01  0.46019969551E+02  0.00000000000E+00 0.  1.
         13    1    4    4    0    0  0.94304667297E+00 -0.12577955464E+03 -0.80592725139E+02  0.14938732559E+03  0.00000000000E+00 0. -1.
         21    1    1    2  503  501 -0.15989608595E+03  0.11381333998E+03  0.14024147190E+03  0.24122169285E+03  0.00000000000E+00 0. -1.
          1    1    1    2  501    0 -0.10777401512E+03  0.12152567437E+03 -0.26241209732E+03  0.30861600199E+03  0.00000000000E+00 0. -1.
<scales pt_clust_5="13000.00000" pt_clust_6="13000.00000" pt_clust_7="13000.00000" pt_clust_8="13000.00000" pt_clust_9="196.26572" pt_clust_10="13000.00000"></scales>
<clustering>
<clus scale="   81.633">  5  6 -1 -1</clus>
<clus scale="   91.347">  7  8 -1 -1</clus>
<clus scale="  162.431">  7 10 -1 -1</clus>
<clus scale="  196.266">  1  9  2 -1</clus>
<clus scale="  154.662">  2  5  1 -1</clus>
<clus scale="  196.266">  1  5  2 -1</clus>
</clustering>
</event>
<event>
10    4  0.2759992E-005  0.2941427E+03  0.7546771E-02  0.1123125E+00
          2   -1    0    0  502    0 -0.00000000000E+00  0.00000000000E+00  0.63303722747E+03  0.63303722747E+03  0.00000000000E+00 0. -1.
         21   -1    0    0  503  502  0.00000000000E+00 -0.00000000000E+00 -0.11658830130E+03  0.11658830130E+03  0.00000000000E+00 0. -1.
         24    2    1    2    0    0 -0.96982721370E+02 -0.46168742988E+02  0.38541258596E+02  0.14042928697E+03  0.81839812745E+02 0.  0.
         23    2    1    2    0    0 -0.91560906329E+02 -0.14068434675E+02  0.24268635337E+03  0.27561620657E+03  0.92121152805E+02 0.  0.
        -11    1    3    3    0    0 -0.44841281986E+02  0.62747135775E+01  0.47868865695E+02  0.65890370340E+02  0.00000000000E+00 0.  1.
         12    1    3    3    0    0 -0.52141439384E+02 -0.52443456565E+02 -0.93276070991E+01  0.74538916626E+02  0.00000000000E+00 0. -1.
        -13    1    4    4    0    0 -0.45785643691E+02  0.27892058381E+02  0.50517746804E+02  0.73663660180E+02  0.00000000000E+00 0.  1.
         13    1    4    4    0    0 -0.45775262638E+02 -0.41960493055E+02  0.19216860656E+03  0.20195254640E+03  0.00000000000E+00 0. -1.
         21    1    1    2  503  501  0.44806695928E+02 -0.71361277408E+01 -0.50003989283E+01  0.45646120411E+02  0.00000000000E+00 0. -1.
          1    1    1    2  501    0  0.14373693177E+03  0.67373305403E+02  0.24022171314E+03  0.28793391481E+03  0.00000000000E+00 0. -1.
<scales pt_clust_5="13000.00000" pt_clust_6="13000.00000" pt_clust_7="13000.00000" pt_clust_8="13000.00000" pt_clust_9="45.37140" pt_clust_10="13000.00000"></scales>
<clustering>
<clus scale="   45.371">  2  9  1 -1</clus>
<clus scale="   81.840">  5  6 -1 -1</clus>
<clus scale="   92.121">  7  8 -1 -1</clus>
<clus scale="  119.971">  1  5  2 -1</clus>
<clus scale="  121.764">  7 10 -1 -1</clus>
<clus scale="   45.371">  2  5  1 -1</clus>
</clustering>
</event>
<event>
10    4  0.2759992E-005  0.2601872E+03  0.7546771E-02  0.1148333E+00
          2   -1    0    0  503    0 -0.00000000000E+00  0.00000000000E+00  0.11780802315E+04  0.11780802315E+04  0.00000000000E+00 0. -1.
         21   -1    0    0  501  502  0.00000000000E+00 -0.00000000000E+00 -0.39307600924E+02  0.39307600924E+02  0.00000000000E+00 0. -1.
         24    2    1    2    0    0 -0.11248951369E+02 -0.45978006886E+02  0.35220668916E+03  0.36512815661E+03  0.83836166649E+02 0.  0.
         23    2    1    2    0    0 -0.71542207683E+02 -0.66339710160E+02  0.34418209896E+03  0.36946430001E+03  0.92321758638E+02 0.  0.
        -13    1    3    3    0    0  0.27850078641E+02 -0.15760987597E+02  0.53331596035E+02  0.62195616775E+02  0.00000000000E+00 0.  1.
         14    1    3    3    0    0 -0.39099030010E+02 -0.30217019289E+02  0.29887509312E+03  0.30293253983E+03  0.00000000000E+00 0. -1.
        -13    1    4    4    0    0 -0.45639947646E+02 -0.73347855519E+02  0.32549766766E+03  0.33676645376E+03  0.00000000000E+00 0.  1.
         13    1    4    4    0    0 -0.25902260037E+02  0.70081453582E+01  0.18684431299E+02  0.32697846250E+02  0.00000000000E+00 0. -1.
         21    1    1    2  503  502  0.66302981270E+01  0.19888913272E+02 -0.33688159503E+01  0.21233903205E+02  0.00000000000E+00 0. -1.
          1    1    1    2  501    0  0.76160860925E+02  0.92428803774E+02  0.44575265846E+03  0.46156147265E+03  0.00000000000E+00 0. -1.
<scales pt_clust_5="13000.00000" pt_clust_6="13000.00000" pt_clust_7="13000.00000" pt_clust_8="13000.00000" pt_clust_9="20.96496" pt_clust_10="13000.00000"></scales>
<clustering>
<clus scale="   20.965">  2  9  1 -1</clus>
<clus scale="   83.836">  5  6 -1 -1</clus>
<clus scale="   92.322">  7  8 -1 -1</clus>
<clus scale="   93.920">  1  5  2 -1</clus>
<clus scale="  103.082">  7 10 -1 -1</clus>
<clus scale="   20.965">  2  5  1 -1</clus>
</clustering>
</event>
<event>
10    4  0.2759992E-005  0.5673748E+03  0.7546771E-02  0.1063336E+00
         21   -1    0    0  501  502  0.00000000000E+00  0.00000000000E+00  0.14401775598E+03  0.14401775598E+03  0.00000000000E+00 0. -1.
          4   -1    0    0  503    0 -0.00000000000E+00 -0.00000000000E+00 -0.93968300213E+03  0.93968300213E+03  0.00000000000E+00 0. -1.
         24    2    1    2    0    0  0.89806082739E+01  0.76329796236E+01 -0.19896784882E+03  0.21469667955E+03  0.79796902466E+02 0.  0.
         23    2    1    2    0    0 -0.22773614584E+03  0.10136978398E+03 -0.15974895559E+03  0.31023014464E+03  0.92646794903E+02 0.  0.
        -13    1    3    3    0    0 -0.19267454340E+02 -0.26579263183E+02 -0.55049033912E+02  0.64094369197E+02  0.00000000000E+00 0.  1.
         14    1    3    3    0    0  0.28248062614E+02  0.34212242807E+02 -0.14391881491E+03  0.15060231035E+03  0.00000000000E+00 0. -1.
        -13    1    4    4    0    0 -0.75919347766E+02  0.45615569980E+02 -0.10957699068E+03  0.14089586394E+03  0.00000000000E+00 0.  1.
         13    1    4    4    0    0 -0.15181679808E+03  0.55754214000E+02 -0.50171964909E+02  0.16933428070E+03  0.00000000000E+00 0. -1.
         21    1    1    2  503  502 -0.20926259392E+02  0.12712005818E+01  0.21373230395E+02  0.29938925508E+02  0.00000000000E+00 0.  1.
          3    1    1    2  501    0  0.23968179696E+03 -0.11027396419E+03 -0.45832167213E+03  0.52883500841E+03  0.00000000000E+00 0. -1.
<scales pt_clust_5="13000.00000" pt_clust_6="13000.00000" pt_clust_7="13000.00000" pt_clust_8="13000.00000" pt_clust_9="20.96483" pt_clust_10="13000.00000"></scales>
<clustering>
<clus scale="   20.965">  1  9  2 -1</clus>
<clus scale="   79.797">  5  6 -1 -1</clus>
<clus scale="   80.528">  2  5  1 -1</clus>
<clus scale="   92.647">  7  8 -1 -1</clus>
<clus scale="  260.418">  7 10 -1 -1</clus>
<clus scale="   20.965">  1  5  2 -1</clus>
</clustering>
</event>
<event>
10    4  0.2759992E-005  0.1620427E+03  0.7546771E-02  0.1203554E+00
         21   -1    0    0  501  502  0.00000000000E+00  0.00000000000E+00  0.39865252758E+02  0.39865252758E+02  0.00000000000E+00 0.  1.
          2   -1    0    0  503    0 -0.00000000000E+00 -0.00000000000E+00 -0.71511788846E+03  0.71511788846E+03  0.00000000000E+00 0. -1.
         24    2    1    2    0    0 -0.72888312094E+02 -0.47251810682E+02 -0.22341086517E+03  0.25301270541E+03  0.80978853835E+02 0.  0.
         23    2    1    2    0    0  0.64694812104E+02 -0.29860314852E+02 -0.25095564561E+03  0.27362594296E+03  0.82555214721E+02 0.  0.
        -11    1    3    3    0    0 -0.85860250312E+02 -0.25014370249E+02 -0.14377637469E+03  0.16932025048E+03  0.00000000000E+00 0.  1.
         12    1    3    3    0    0  0.12971938218E+02 -0.22237440434E+02 -0.79634490480E+02  0.83692454930E+02  0.00000000000E+00 0. -1.
        -11    1    4    4    0    0  0.65216941152E+02  0.88705995727E+01 -0.19303337192E+03  0.20394562909E+03  0.00000000000E+00 0.  1.
         11    1    4    4    0    0 -0.52212904749E+00 -0.38730914425E+02 -0.57922273699E+02  0.69680313872E+02  0.00000000000E+00 0. -1.
         21    1    1    2  503  502  0.54536585324E+01  0.32842936569E+02 -0.13743885833E+02  0.36017985391E+02  0.00000000000E+00 0. -1.
          1    1    1    2  501    0  0.27398414577E+01  0.44269188966E+02 -0.18714223909E+03  0.19232650747E+03  0.00000000000E+00 0. -1.
<scales pt_clust_5="13000.00000" pt_clust_6="13000.00000" pt_clust_7="13000.00000" pt_clust_8="13000.00000" pt_clust_9="33.29265" pt_clust_10="13000.00000"></scales>
<clustering>
<clus scale="   33.293">  1  9  2 -1</clus>
<clus scale="   80.979">  5  6 -1 -1</clus>
<clus scale="   82.555">  7  8 -1 -1</clus>
<clus scale="   47.343">  7 10 -1 -1</clus>
<clus scale="  111.304">  2  5  1 -1</clus>
<clus scale="   33.293">  1  5  2 -1</clus>
</clustering>
</event>
<event>
10    4  0.2759992E-005  0.3659686E+03  0.7546771E-02  0.1108301E+00
         21   -1    0    0  503  502  0.00000000000E+00  0.00000000000E+00  0.60865537778E+02  0.60865537778E+02  0.00000000000E+00 0. -1.
          2   -1    0    0  502    0 -0.00000000000E+00 -0.00000000000E+00 -0.11190805887E+04  0.11190805887E+04  0.00000000000E+00 0. -1.
         24    2    1    2    0    0  0.40995098104E+02 -0.26648080595E+02 -0.13065513339E+03  0.16206886699E+03  0.82491426826E+02 0.  0.
         23    2    1    2    0    0  0.12834618835E+03 -0.97013233927E+02 -0.36299840405E+03  0.40704648098E+03  0.89636402817E+02 0.  0.
        -13    1    3    3    0    0  0.60853110147E+02 -0.35026937192E+02 -0.11731373840E+03  0.13672051990E+03  0.00000000000E+00 0.  1.
         14    1    3    3    0    0 -0.19858012043E+02  0.83788565966E+01 -0.13341394982E+02  0.25348347090E+02  0.00000000000E+00 0. -1.
        -13    1    4    4    0    0  0.56376776057E+02 -0.34457285401E+01 -0.62747574833E+02  0.84424357096E+02  0.00000000000E+00 0.  1.
         13    1    4    4    0    0  0.71969412295E+02 -0.93567505387E+02 -0.30025082922E+03  0.32262212388E+03  0.00000000000E+00 0. -1.
         21    1    1    2  503  501 -0.35044877296E+02  0.16015432291E+02 -0.28807797482E+02  0.48109528079E+02  0.00000000000E+00 0. -1.
          1    1    1    2  501    0 -0.13429640916E+03  0.10764588223E+03 -0.53575371597E+03  0.56272125040E+03  0.00000000000E+00 0. -1.
<scales pt_clust_5="13000.00000" pt_clust_6="13000.00000" pt_clust_7="13000.00000" pt_clust_8="13000.00000" pt_clust_9="38.53099" pt_clust_10="13000.00000"></scales>
<clustering>
<clus scale="   38.531">  1  9  2 -1</clus>
<clus scale="   82.491">  5  6 -1 -1</clus>
<clus scale="   89.636">  7  8 -1 -1</clus>
<clus scale="   90.511">  2  5  1 -1</clus>
<clus scale="  158.170">  7 10 -1 -1</clus>
<clus scale="   38.531">  1  5  2 -1</clus>
</clustering>
</event>
<event>
10    4  0.2759992E-005  0.5504411E+03  0.7546771E-02  0.1010969E+00
          2   -1    0    0  503    0 -0.00000000000E+00  0.00000000000E+00  0.72264443826E+03  0.72264443826E+03  0.00000000000E+00 0. -1.
         21   -1    0    0  501  502  0.00000000000E+00 -0.00000000000E+00 -0.58792443885E+03  0.58792443885E+03  0.00000000000E+00 0. -1.
         24    2    1    2    0    0 -0.13866985126E+03  0.40484349352E+03  0.27110024303E+03  0.51355522933E+03  0.84356682621E+02 0.  0.
         23    2    1    2    0    0 -0.30327053976E+02  0.39051170478E+02  0.53646895061E+02  0.11626705826E+03  0.90527981139E+02 0.  0.
        -11    1    3    3    0    0 -0.26052212567E+02  0.10749371111E+03  0.30239652890E+02  0.11466495679E+03  0.00000000000E+00 0.  1.
         12    1    3    3    0    0 -0.11261763869E+03  0.29734978241E+03  0.24086059014E+03  0.39889027254E+03  0.00000000000E+00 0. -1.
        -11    1    4    4    0    0 -0.41791106977E+02 -0.16251144500E+02  0.34691231622E+02  0.56692837920E+02  0.00000000000E+00 0. -1.
         11    1    4    4    0    0  0.11464053001E+02  0.55302314979E+02  0.18955663439E+02  0.59574220344E+02  0.00000000000E+00 0.  1.
         21    1    1    2  503  502  0.23498629257E+03 -0.36907486180E+02 -0.10377692637E+03  0.25951949961E+03  0.00000000000E+00 0. -1.
          1    1    1    2  501    0 -0.65989387331E+02 -0.40698717782E+03 -0.86250212315E+02  0.42122708991E+03  0.00000000000E+00 0. -1.
<scales pt_clust_5="13000.00000" pt_clust_6="13000.00000" pt_clust_7="13000.00000" pt_clust_8="13000.00000" pt_clust_9="237.86702" pt_clust_10="13000.00000"></scales>
<clustering>
<clus scale="   84.357">  5  6 -1 -1</clus>
<clus scale="   90.528">  7  8 -1 -1</clus>
<clus scale="  237.867">  2  9  1 -1</clus>
<clus scale="  408.556">  1  5  2 -1</clus>
<clus scale="  173.368">  7 10 -1 -1</clus>
<clus scale="  237.867">  2  5  1 -1</clus>
</clustering>
</event>
<event>
10    4  0.2759992E-005  0.3219694E+03  0.7546771E-02  0.1113784E+00
         21   -1    0    0  503  502  0.00000000000E+00  0.00000000000E+00  0.12445092800E+03  0.12445092800E+03  0.00000000000E+00 0.  1.
          2   -1    0    0  502    0 -0.00000000000E+00 -0.00000000000E+00 -0.11690288605E+04  0.11690288605E+04  0.00000000000E+00 0. -1.
         24    2    1    2    0    0 -0.35379441212E+02 -0.27474392636E+02  0.52491995585E+02  0.10667348003E+03  0.81346632566E+02 0.  0.
         23    2    1    2    0    0 -0.67888751732E+02  0.15169296639E+03 -0.64927913875E+03  0.67633137508E+03  0.90780450696E+02 0.  0.
        -11    1    3    3    0    0 -0.38767615966E+02 -0.17234796371E+02  0.72466882313E+02  0.83972705600E+02  0.00000000000E+00 0.  1.
         12    1    3    3    0    0  0.33881747540E+01 -0.10239596265E+02 -0.19974886729E+02  0.22700774428E+02  0.00000000000E+00 0. -1.
        -13    1    4    4    0    0 -0.43521256521E+02  0.14920855627E+03 -0.61411012884E+03  0.63347339595E+03  0.00000000000E+00 0.  1.
         13    1    4    4    0    0 -0.24367495211E+02  0.24844101248E+01 -0.35169009912E+02  0.42857979125E+02  0.00000000000E+00 0. -1.
         21    1    1    2  503  501 -0.12611647693E+02 -0.53615483657E+02 -0.15253009376E+02  0.57151798224E+02  0.00000000000E+00 0. -1.
          1    1    1    2  501    0  0.11587984064E+03 -0.70603090098E+02 -0.43253777994E+03  0.45332313517E+03  0.00000000000E+00 0. -1.
<scales pt_clust_5="13000.00000" pt_clust_6="13000.00000" pt_clust_7="13000.00000" pt_clust_8="13000.00000" pt_clust_9="55.07880" pt_clust_10="13000.00000"></scales>
<clustering>
<clus scale="   55.079">  1  9  2 -1</clus>
<clus scale="   81.347">  5  6 -1 -1</clus>
<clus scale="   90.780">  7  8 -1 -1</clus>
<clus scale="  115.624">  2  5  1 -1</clus>
<clus scale="  141.948">  7 10 -1 -1</clus>
<clus scale="   55.079">  1  5  2 -1</clus>
</clustering>
</event>
<event>
10    4  0.2759992E-005  0.3048540E+03  0.7546771E-02  0.1125702E+00
         21   -1    0    0  503  502  0.00000000000E+00  0.00000000000E+00  0.36677188546E+03  0.36677188546E+03  0.00000000000E+00 0. -1.
          4   -1    0    0  502    0 -0.00000000000E+00 -0.00000000000E+00 -0.34317807625E+03  0.34317807625E+03  0.00000000000E+00 0. -1.
         24    2    1    2    0    0  0.61185824355E+02 -0.31652173468E+01 -0.24102270853E+03  0.26138360286E+03  0.80471846729E+02 0.  0.
         23    2    1    2    0    0 -0.14152092014E+02 -0.47210432316E+02 -0.55749051602E+02  0.11885672643E+03  0.92681487019E+02 0.  0.
        -11    1    3    3    0    0 -0.14809959240E+02  0.16301910004E+02 -0.41291753468E+02  0.46798462228E+02  0.00000000000E+00 0.  1.
         12    1    3    3    0    0  0.75995783595E+02 -0.19467127351E+02 -0.19973095506E+03  0.21458514064E+03  0.00000000000E+00 0. -1.
        -13    1    4    4    0    0  0.34305568735E+02 -0.42090275173E+02 -0.17958445127E+02  0.57192386396E+02  0.00000000000E+00 0. -1.
         13    1    4    4    0    0 -0.48457660749E+02 -0.51201571426E+01 -0.37790606475E+02  0.61664340036E+02  0.00000000000E+00 0.  1.
         21    1    1    2  503  501 -0.10595006399E+01  0.25535806207E+02  0.96641875308E+02  0.99964253628E+02  0.00000000000E+00 0. -1.
          3    1    1    2  501    0 -0.45974231701E+02  0.24839843456E+02  0.22372369403E+03  0.22974537879E+03  0.00000000000E+00 0. -1.
<scales pt_clust_5="13000.00000" pt_clust_6="13000.00000" pt_clust_7="13000.00000" pt_clust_8="13000.00000" pt_clust_9="25.55778" pt_clust_10="13000.00000"></scales>
<clustering>
<clus scale="   25.558">  1  9  2 -1</clus>
<clus scale="   80.472">  5  6 -1 -1</clus>
<clus scale="   92.681">  7  8 -1 -1</clus>
<clus scale="   65.956">  7 10 -1 -1</clus>
<clus scale="  101.091">  2  5  1 -1</clus>
<clus scale="   25.558">  1  5  2 -1</clus>
</clustering>
</event>
<event>
10    4  0.2759992E-005  0.7427441E+03  0.7546771E-02  0.9954881E-01
          2   -1    0    0  503    0 -0.00000000000E+00  0.00000000000E+00  0.11600096640E+04  0.11600096640E+04  0.00000000000E+00 0. -1.
         21   -1    0    0  501  502  0.00000000000E+00 -0.00000000000E+00 -0.10882563379E+04  0.10882563379E+04  0.00000000000E+00 0. -1.
         24    2    1    2    0    0 -0.22442648261E+03 -0.12466491570E+03  0.28505124087E+03  0.39263746335E+03  0.83674251695E+02 0.  0.
         23    2    1    2    0    0 -0.17381612663E+03 -0.13630703152E+03  0.25882566991E+03  0.35254899356E+03  0.92241057729E+02 0.  0.
        -11    1    3    3    0    0 -0.33364645649E+02 -0.13262071884E+02  0.57314008287E+01  0.36358370225E+02  0.00000000000E+00 0.  1.
         12    1    3    3    0    0 -0.19106183696E+03 -0.11140284381E+03  0.27931984005E+03  0.35627909312E+03  0.00000000000E+00 0. -1.
        -11    1    4    4    0    0 -0.13367245248E+03 -0.11192378918E+03  0.13620247040E+03  0.22123826992E+03  0.00000000000E+00 0. -1.
         11    1    4    4    0    0 -0.40143674156E+02 -0.24383242344E+02  0.12262319952E+03  0.13131072364E+03  0.00000000000E+00 0.  1.
         21    1    1    2  503  502  0.61487621657E+03  0.47799628311E+03 -0.75586274180E+03  0.10853025812E+04  0.00000000000E+00 0. -1.
          1    1    1    2  501    0 -0.21663360733E+03 -0.21702433589E+03  0.28373915716E+03  0.41777696382E+03  0.00000000000E+00 0. -1.
<scales pt_clust_5="13000.00000" pt_clust_6="13000.00000" pt_clust_7="13000.00000" pt_clust_8="13000.00000" pt_clust_9="727.96797" pt_clust_10="13000.00000"></scales>
<clustering>
<clus scale="   83.674">  5  6 -1 -1</clus>
<clus scale="   92.241">  7  8 -1 -1</clus>
<clus scale="  270.018">  1  5  2 -1</clus>
<clus scale="  413.162">  7 10 -1 -1</clus>
<clus scale="  727.968">  2  9  1 -1</clus>
<clus scale="  727.968">  2  5  1 -1</clus>
</clustering>
</event>
<event>
10    4  0.2759992E-005  0.4932461E+03  0.7546771E-02  0.1070334E+00
         21   -1    0    0  503  502  0.00000000000E+00  0.00000000000E+00  0.13282692274E+03  0.13282692274E+03  0.00000000000E+00 0.  1.
          2   -1    0    0  502    0 -0.00000000000E+00 -0.00000000000E+00 -0.98851684364E+03  0.98851684364E+03  0.00000000000E+00 0. -1.
         24    2    1    2    0    0  0.60872541102E+02 -0.53549292097E+02 -0.36787178475E+03  0.38184078916E+03  0.62447940776E+02 0.  0.
         23    2    1    2    0    0  0.21443538492E+03  0.13890900397E+02 -0.23139235819E+03  0.33329411169E+03  0.10661636852E+03 0.  0.
        -13    1    3    3    0    0  0.29175239817E+02  0.32955682599E+01 -0.55787903149E+02  0.63042410537E+02  0.00000000000E+00 0.  1.
         14    1    3    3    0    0  0.31697301285E+02 -0.56844860357E+02 -0.31208388160E+03  0.31879837862E+03  0.00000000000E+00 0. -1.
        -13    1    4    4    0    0  0.25434176933E+02 -0.12206345490E+02 -0.94098104681E+02  0.98236172213E+02  0.00000000000E+00 0. -1.
         13    1    4    4    0    0  0.18900120799E+03  0.26097245887E+02 -0.13729425351E+03  0.23505793948E+03  0.00000000000E+00 0.  1.
         21    1    1    2  503  501 -0.27756364688E+02  0.68145124596E+01  0.19084677787E+02  0.34366819565E+02  0.00000000000E+00 0.  1.
          1    1    1    2  501    0 -0.24755156134E+03  0.32843879240E+02 -0.27551045574E+03  0.37184204596E+03  0.00000000000E+00 0. -1.
<scales pt_clust_5="13000.00000" pt_clust_6="13000.00000" pt_clust_7="13000.00000" pt_clust_8="13000.00000" pt_clust_9="28.58065" pt_clust_10="13000.00000"></scales>
<clustering>
<clus scale="   28.581">  1  9  2 -1</clus>
<clus scale="   62.448">  5  6 -1 -1</clus>
<clus scale="  101.024">  2  5  1 -1</clus>
<clus scale="  106.616">  7  8 -1 -1</clus>
<clus scale="  225.941">  7 10 -1 -1</clus>
<clus scale="   28.581">  1  5  2 -1</clus>
</clustering>
</event>
<event>
10    4  0.2759992E-005  0.1232486E+03  0.7546771E-02  0.1260182E+00
         21   -1    0    0  503  502  0.00000000000E+00  0.00000000000E+00  0.42564516360E+03  0.42564516360E+03  0.00000000000E+00 0. -1.
          4   -1    0    0  502    0 -0.00000000000E+00 -0.00000000000E+00 -0.68184849756E+02  0.68184849756E+02  0.00000000000E+00 0. -1.
         24    2    1    2    0    0  0.67161931959E+01 -0.20865874887E+02 -0.54003782466E+01  0.80107044580E+02  0.76860149104E+02 0.  0.
         23    2    1    2    0    0  0.12817789435E+02 -0.21216542068E+02  0.88159903417E+02  0.12679617359E+03  0.87696429142E+02 0.  0.
        -13    1    3    3    0    0  0.27452869616E+02  0.18224808198E+02  0.79302398588E+01  0.33892364748E+02  0.00000000000E+00 0.  1.
         14    1    3    3    0    0 -0.20736676420E+02 -0.39090683085E+02 -0.13330618105E+02  0.46214679833E+02  0.00000000000E+00 0. -1.
        -11    1    4    4    0    0 -0.26114444722E+02  0.17224144049E+02  0.13106784824E+02  0.33917888640E+02  0.00000000000E+00 0.  1.
         11    1    4    4    0    0  0.38932234157E+02 -0.38440686117E+02  0.75053118593E+02  0.92878284954E+02  0.00000000000E+00 0. -1.
         21    1    1    2  503  501  0.92190699773E+01  0.29514955947E+02  0.23136914275E+03  0.23342622837E+03  0.00000000000E+00 0. -1.
          3    1    1    2  501    0 -0.28753052608E+02  0.12567461009E+02  0.43331645927E+02  0.53500566812E+02  0.00000000000E+00 0. -1.
<scales pt_clust_5="13000.00000" pt_clust_6="13000.00000" pt_clust_7="13000.00000" pt_clust_8="13000.00000" pt_clust_9="30.92125" pt_clust_10="13000.00000"></scales>
<clustering>
<clus scale="   30.921">  1  9  2 -1</clus>
<clus scale="   76.860">  5  6 -1 -1</clus>
<clus scale="   78.801">  2  5  1 -1</clus>
<clus scale="   87.696">  7  8 -1 -1</clus>
<clus scale="   29.450">  7 10 -1 -1</clus>
<clus scale="   30.921">  1  5  2 -1</clus>
</clustering>
</event>
<event>
10    4  0.2759992E-005  0.3844410E+03  0.7546771E-02  0.1107182E+00
          4   -1    0    0  502    0 -0.00000000000E+00  0.00000000000E+00  0.54966247834E+03  0.54966247834E+03  0.00000000000E+00 0. -1.
         21   -1    0    0  503  502  0.00000000000E+00 -0.00000000000E+00 -0.16958068372E+03  0.16958068372E+03  0.00000000000E+00 0. -1.
         24    2    1    2    0    0  0.25723685799E+02  0.21523485216E+02  0.16584454535E+03  0.18475889046E+03  0.74205565509E+02 0.  0.
         23    2    1    2    0    0  0.56521744887E+02  0.14977922635E+03  0.25648674704E+03  0.31677583472E+03  0.94514304538E+02 0.  0.
        -11    1    3    3    0    0  0.36890245946E+02 -0.16761244199E+02  0.68890050497E+02  0.79922891655E+02  0.00000000000E+00 0.  1.
         12    1    3    3    0    0 -0.11166560147E+02  0.38284729415E+02  0.96954494854E+02  0.10483599880E+03  0.00000000000E+00 0. -1.
        -11    1    4    4    0    0  0.36602263638E+02  0.24079704071E+01  0.60572676076E+02  0.70813650604E+02  0.00000000000E+00 0.  1.
         11    1    4    4    0    0  0.19919481249E+02  0.14737125595E+03  0.19591407096E+03  0.24596218411E+03  0.00000000000E+00 0. -1.
         21    1    1    2  503  501 -0.93673870097E+01 -0.39479466002E+02 -0.52941493900E+02  0.66702158522E+02  0.00000000000E+00 0. -1.
          3    1    1    2  501    0 -0.72878043677E+02 -0.13182324557E+03  0.10691996130E+02  0.15100627836E+03  0.00000000000E+00 0. -1.
<scales pt_clust_5="13000.00000" pt_clust_6="13000.00000" pt_clust_7="13000.00000" pt_clust_8="13000.00000" pt_clust_9="40.57556" pt_clust_10="13000.00000"></scales>
<clustering>
<clus scale="   40.576">  2  9  1 -1</clus>
<clus scale="   74.206">  5  6 -1 -1</clus>
<clus scale="   80.347">  1  5  2 -1</clus>
<clus scale="   94.514">  7  8 -1 -1</clus>
<clus scale="  167.384">  7 10 -1 -1</clus>
<clus scale="   40.576">  2  5  1 -1</clus>
</clustering>
</event>
<event>
10    4  0.2759992E-005  0.5074753E+03  0.7546771E-02  0.1036796E+00
          2   -1    0    0  503    0 -0.00000000000E+00  0.00000000000E+00  0.79472071563E+03  0.79472071563E+03  0.00000000000E+00 0. -1.
         21   -1    0    0  501  502  0.00000000000E+00 -0.00000000000E+00 -0.28316853879E+03  0.28316853879E+03  0.00000000000E+00 0. -1.
         24    2    1    2    0    0  0.74416677690E+02  0.20720019247E+03 -0.23647006523E+02  0.23533469466E+03  0.79708694107E+02 0.  0.
         23    2    1    2    0    0 -0.18031597490E+03 -0.51625138692E+01  0.51536356807E+03  0.55384939523E+03  0.92784928438E+02 0.  0.
        -13    1    3    3    0    0  0.30693401105E+02  0.68082602383E+02  0.29257357152E+02  0.80207970715E+02  0.00000000000E+00 0.  1.
         14    1    3    3    0    0  0.43723276585E+02  0.13911759009E+03 -0.52904363675E+02  0.15512672395E+03  0.00000000000E+00 0. -1.
        -11    1    4    4    0    0 -0.80879609761E+02  0.38803430501E+02  0.29132264126E+03  0.30482142117E+03  0.00000000000E+00 0.  1.
         11    1    4    4    0    0 -0.99436365138E+02 -0.43965944370E+02  0.22404092681E+03  0.24902797405E+03  0.00000000000E+00 0. -1.
         21    1    1    2  503  502  0.33274237761E+02 -0.19069195747E+01 -0.53921355330E+02  0.63390250051E+02  0.00000000000E+00 0.  1.
          1    1    1    2  501    0  0.72625059449E+02 -0.20013075903E+03  0.73756970623E+02  0.22531491447E+03  0.00000000000E+00 0. -1.
<scales pt_clust_5="13000.00000" pt_clust_6="13000.00000" pt_clust_7="13000.00000" pt_clust_8="13000.00000" pt_clust_9="33.32883" pt_clust_10="13000.00000"></scales>
<clustering>
<clus scale="   33.329">  2  9  1 -1</clus>
<clus scale="   79.709">  5  6 -1 -1</clus>
<clus scale="   92.785">  7  8 -1 -1</clus>
<clus scale="  217.583">  7 10 -1 -1</clus>
<clus scale="  239.986">  1  5  2 -1</clus>
<clus scale="   33.329">  2  5  1 -1</clus>
</clustering>
</event>
<event>
10    4  0.2759992E-005  0.2559848E+03  0.7546771E-02  0.1154964E+00
         21   -1    0    0  503  502  0.00000000000E+00  0.00000000000E+00  0.74353740300E+02  0.74353740300E+02  0.00000000000E+00 0. -1.
          2   -1    0    0  502    0 -0.00000000000E+00 -0.00000000000E+00 -0.73135560561E+03  0.73135560561E+03  0.00000000000E+00 0. -1.
         24    2    1    2    0    0 -0.36934392473E+02 -0.21125868737E+00  0.91343118727E+00  0.88646077639E+02  0.80579766361E+02 0.  0.
         23    2    1    2    0    0  0.38121289530E+02 -0.75967937799E+02 -0.16777806960E+03  0.20871867671E+03  0.90496657846E+02 0.  0.
        -13    1    3    3    0    0 -0.18574849714E+02  0.29893224254E+02 -0.26439830038E+02  0.44019251591E+02  0.00000000000E+00 0.  1.
         14    1    3    3    0    0 -0.18359542759E+02 -0.30104482941E+02  0.27353261225E+02  0.44626826048E+02  0.00000000000E+00 0. -1.
        -11    1    4    4    0    0 -0.27969374702E+02 -0.16541640764E+02 -0.27080405695E+02  0.42299647434E+02  0.00000000000E+00 0.  1.
         11    1    4    4    0    0  0.66090664232E+02 -0.59426297034E+02 -0.14069766390E+03  0.16641902928E+03  0.00000000000E+00 0. -1.
         21    1    1    2  503  501  0.20586547969E+02 -0.11292120325E+02 -0.24014169500E+02  0.33585685575E+02  0.00000000000E+00 0. -1.
          1    1    1    2  501    0 -0.21773445027E+02  0.87471316811E+02 -0.46612305740E+03  0.47475890599E+03  0.00000000000E+00 0. -1.
<scales pt_clust_5="13000.00000" pt_clust_6="13000.00000" pt_clust_7="13000.00000" pt_clust_8="13000.00000" pt_clust_9="23.48016" pt_clust_10="13000.00000"></scales>
<clustering>
<clus scale="   23.480">  1  9  2 -1</clus>
<clus scale="   80.580">  5  6 -1 -1</clus>
<clus scale="   84.320">  2  5  1 -1</clus>
<clus scale="   90.497">  7  8 -1 -1</clus>
<clus scale="   89.532">  7 10 -1 -1</clus>
<clus scale="   23.480">  1  5  2 -1</clus>
</clustering>
</event>
<event>
10    4  0.2759992E-005  0.8345286E+03  0.7546771E-02  0.1001544E+00
         -1   -1    0    0    0  501 -0.00000000000E+00  0.00000000000E+00  0.53919950764E+03  0.53919950764E+03  0.00000000000E+00 0.  1.
         21   -1    0    0  501  502  0.00000000000E+00 -0.00000000000E+00 -0.14094892758E+04  0.14094892758E+04  0.00000000000E+00 0.  1.
         24    2    1    2    0    0  0.13450383845E+03  0.78998053496E+01 -0.20271344203E+03  0.25652255506E+03  0.80977726509E+02 0.  0.
         23    2    1    2    0    0  0.31394794229E+03  0.28957721852E+03 -0.33992583827E+02  0.43795185653E+03  0.90708637533E+02 0.  0.
        -11    1    3    3    0    0  0.13063477861E+03  0.23982100068E+02 -0.14567449247E+03  0.19713356960E+03  0.00000000000E+00 0.  1.
         12    1    3    3    0    0  0.38690598485E+01 -0.16082294718E+02 -0.57038949556E+02  0.59388985460E+02  0.00000000000E+00 0. -1.
        -13    1    4    4    0    0  0.51232816448E+02  0.10094291085E+03 -0.99733060456E+01  0.11363863589E+03  0.00000000000E+00 0. -1.
         13    1    4    4    0    0  0.26271512584E+03  0.18863430767E+03 -0.24019277781E+02  0.32431322064E+03  0.00000000000E+00 0.  1.
         21    1    1    2  503  502 -0.80374693482E+02 -0.36953355804E+03 -0.76778242988E+03  0.85586506034E+03  0.00000000000E+00 0.  1.
         -2    1    1    2    0  503 -0.36807708726E+03  0.72056534170E+02  0.13419868753E+03  0.39834931156E+03  0.00000000000E+00 0.  1.
<scales pt_clust_5="13000.00000" pt_clust_6="13000.00000" pt_clust_7="13000.00000" pt_clust_8="13000.00000" pt_clust_9="375.21809" pt_clust_10="13000.00000"></scales>
<clustering>
<clus scale="   80.978">  5  6 -1 -1</clus>
<clus scale="   90.709">  7  8 -1 -1</clus>
<clus scale="  157.198">  1  5  2 -1</clus>
<clus scale="  307.740">  7 10 -1 -1</clus>
<clus scale="  375.218">  2  9  1 -1</clus>
<clus scale="  375.218">  2  5  1 -1</clus>
</clustering>
</event>
<event>
10    4  0.2759992E-005  0.2834514E+03  0.7546771E-02  0.1108173E+00
          2   -1    0    0  502    0 -0.00000000000E+00  0.00000000000E+00  0.82639546778E+03  0.82639546778E+03  0.00000000000E+00 0. -1.
         21   -1    0    0  503  502  0.00000000000E+00 -0.00000000000E+00 -0.10490358020E+03  0.10490358020E+03  0.00000000000E+00 0.  1.
         24    2    1    2    0    0  0.14246285510E+03 -0.82215437480E+02  0.58305615035E+02  0.19200576190E+03  0.80072620883E+02 0.  0.
         23    2    1    2    0    0 -0.34763566881E+02 -0.94887656300E+01  0.11144010847E+03  0.14825929805E+03  0.90903132100E+02 0.  0.
        -13    1    3    3    0    0  0.50568120004E+02  0.62909066716E+01 -0.17602158448E+01  0.50988318538E+02  0.00000000000E+00 0.  1.
         14    1    3    3    0    0  0.91894735100E+02 -0.88506344151E+02  0.60065830879E+02  0.14101744337E+03  0.00000000000E+00 0. -1.
        -13    1    4    4    0    0 -0.37498562303E+02 -0.35536866204E+02  0.23970486190E+02  0.56952570114E+02  0.00000000000E+00 0.  1.
         13    1    4    4    0    0  0.27349954229E+01  0.26048100574E+02  0.87469622285E+02  0.91306727934E+02  0.00000000000E+00 0. -1.
         21    1    1    2  503  501  0.18355003162E+02 -0.81665366450E+01  0.44210518949E+01  0.20570468194E+02  0.00000000000E+00 0.  1.
          1    1    1    2  501    0 -0.12605429139E+03  0.99870739755E+02  0.54732511218E+03  0.57046351983E+03  0.00000000000E+00 0. -1.
<scales pt_clust_5="13000.00000" pt_clust_6="13000.00000" pt_clust_7="13000.00000" pt_clust_8="13000.00000" pt_clust_9="20.08976" pt_clust_10="13000.00000"></scales>
<clustering>
<clus scale="   20.090">  2  9  1 -1</clus>
<clus scale="   80.073">  5  6 -1 -1</clus>
<clus scale="   90.903">  7  8 -1 -1</clus>
<clus scale="  158.499">  7 10 -1 -1</clus>
<clus scale="  195.440">  1  5  2 -1</clus>
<clus scale="   20.090">  2  5  1 -1</clus>
</clustering>
</event>
<event>
10    4  0.2759992E-005  0.3665635E+03  0.7546771E-02  0.1100146E+00
          2   -1    0    0  502    0 -0.00000000000E+00  0.00000000000E+00  0.85388774557E+03  0.85388774557E+03  0.00000000000E+00 0. -1.
         21   -1    0    0  503  502  0.00000000000E+00 -0.00000000000E+00 -0.78757859556E+02  0.78757859556E+02  0.00000000000E+00 0. -1.
         24    2    1    2    0    0 -0.60474610728E+02  0.48840476540E+02  0.12358864813E+03  0.16684388484E+03  0.80747490804E+02 0.  0.
         23    2    1    2    0    0  0.15131591194E+03  0.21884677198E+02  0.12922184828E+03  0.21910897068E+03  0.89078676785E+02 0.  0.
        -13    1    3    3    0    0  0.10595451699E+02  0.27528977009E+02  0.99554437050E+01  0.31132282783E+02  0.00000000000E+00 0.  1.
         14    1    3    3    0    0 -0.71070062428E+02  0.21311499531E+02  0.11363320442E+03  0.13571160206E+03  0.00000000000E+00 0. -1.
        -11    1    4    4    0    0  0.12092637500E+03  0.53470667236E+02  0.87186112069E+02  0.15837840308E+03  0.00000000000E+00 0.  1.
         11    1    4    4    0    0  0.30389536944E+02 -0.31585990038E+02  0.42035736211E+02  0.60730567601E+02  0.00000000000E+00 0. -1.
         21    1    1    2  503  501 -0.12112868927E+02 -0.24598136848E+02  0.15041118500E+02  0.31273394055E+02  0.00000000000E+00 0.  1.
          1    1    1    2  501    0 -0.78728432287E+02 -0.46127016891E+02  0.50727827110E+03  0.51541935554E+03  0.00000000000E+00 0. -1.
<scales pt_clust_5="13000.00000" pt_clust_6="13000.00000" pt_clust_7="13000.00000" pt_clust_8="13000.00000" pt_clust_9="27.41879" pt_clust_10="13000.00000"></scales>
<clustering>
<clus scale="   27.419">  2  9  1 -1</clus>
<clus scale="   80.747">  5  6 -1 -1</clus>
<clus scale="   89.079">  7  8 -1 -1</clus>
<clus scale="   92.569">  7 10 -1 -1</clus>
<clus scale="  111.113">  1  5  2 -1</clus>
<clus scale="   27.419">  2  5  1 -1</clus>
</clustering>
</event>
<event>
10    4  0.2759992E-005  0.2086943E+03  0.7546771E-02  0.1175149E+00
          2   -1    0    0  503    0 -0.00000000000E+00  0.00000000000E+00  0.19988165612E+04  0.19988165612E+04  0.00000000000E+00 0. -1.
         21   -1    0    0  501  502  0.00000000000E+00 -0.00000000000E+00 -0.11665828856E+03  0.11665828856E+03  0.00000000000E+00 0. -1.
         24    2    1    2    0    0  0.51382391095E+02 -0.22987274766E+02  0.16320204190E+04  0.16349757245E+04  0.80538230625E+02 0.  0.
         23    2    1    2    0    0  0.21099140936E+02  0.17974558587E+01  0.22257615033E+03  0.24070005398E+03  0.89151380757E+02 0.  0.
        -11    1    3    3    0    0  0.11056366090E+02  0.17051869052E+02  0.10795464300E+03  0.10985087353E+03  0.00000000000E+00 0.  1.
         12    1    3    3    0    0  0.40326025006E+02 -0.40039143817E+02  0.15240657760E+04  0.15251248509E+04  0.00000000000E+00 0. -1.
        -13    1    4    4    0    0  0.52414555554E+02  0.14001874733E+02  0.16861402597E+03  0.17712715174E+03  0.00000000000E+00 0. -1.
         13    1    4    4    0    0 -0.31315414618E+02 -0.12204418874E+02  0.53962124367E+02  0.63572902239E+02  0.00000000000E+00 0.  1.
         21    1    1    2  503  502  0.91584448632E+01  0.91120443417E+02 -0.52686023702E+02  0.10565334549E+03  0.00000000000E+00 0. -1.
          1    1    1    2  501    0 -0.81639976894E+02 -0.69930624510E+02  0.80247727025E+02  0.13414572585E+03  0.00000000000E+00 0. -1.
<scales pt_clust_5="13000.00000" pt_clust_6="13000.00000" pt_clust_7="13000.00000" pt_clust_8="13000.00000" pt_clust_9="91.57954" pt_clust_10="13000.00000"></scales>
<clustering>
<clus scale="   80.538">  5  6 -1 -1</clus>
<clus scale="   89.151">  7  8 -1 -1</clus>
<clus scale="   91.580">  2  9  1 -1</clus>
<clus scale="   75.187">  7 10 -1 -1</clus>
<clus scale="   97.673">  1  5  2 -1</clus>
<clus scale="   91.580">  2  5  1 -1</clus>
</clustering>
</event>
<event>
10    4  0.2759992E-005  0.3861403E+03  0.7546771E-02  0.1074876E+00
         21   -1    0    0  501  502  0.00000000000E+00  0.00000000000E+00  0.82687091948E+02  0.82687091948E+02  0.00000000000E+00 0. -1.
          2   -1    0    0  503    0 -0.00000000000E+00 -0.00000000000E+00 -0.27180136997E+04  0.27180136997E+04  0.00000000000E+00 0. -1.
         24    2    1    2    0    0  0.27045587593E+02 -0.16569376384E+03 -0.66719245285E+03  0.69263133846E+03  0.80040706519E+02 0.  0.
         23    2    1    2    0    0  0.21000895636E+02 -0.44046256359E+02 -0.87104152632E+02  0.13512167952E+03  0.91047375333E+02 0.  0.
        -13    1    3    3    0    0  0.45640286447E+02 -0.94327227585E+02 -0.29134908475E+03  0.30962065628E+03  0.00000000000E+00 0.  1.
         14    1    3    3    0    0 -0.18594698854E+02 -0.71366536250E+02 -0.37584336810E+03  0.38301068218E+03  0.00000000000E+00 0. -1.
        -13    1    4    4    0    0 -0.11052716852E+02 -0.62949950717E+02 -0.67890525530E+02  0.93241526703E+02  0.00000000000E+00 0.  1.
         13    1    4    4    0    0  0.32053612488E+02  0.18903694359E+02 -0.19213627103E+02  0.41880152822E+02  0.00000000000E+00 0. -1.
         21    1    1    2  503  502 -0.14420321087E+03  0.37604012184E+03 -0.12416230084E+04  0.13053077929E+04  0.00000000000E+00 0. -1.
          1    1    1    2  501    0  0.96156727639E+02 -0.16630010164E+03 -0.63940699384E+03  0.66763998071E+03  0.00000000000E+00 0. -1.
<scales pt_clust_5="13000.00000" pt_clust_6="13000.00000" pt_clust_7="13000.00000" pt_clust_8="13000.00000" pt_clust_9="300.77914" pt_clust_10="13000.00000"></scales>
<clustering>
<clus scale="   80.041">  5  6 -1 -1</clus>
<clus scale="   91.047">  7  8 -1 -1</clus>
<clus scale="  185.990">  2  5  1 -1</clus>
<clus scale="  243.185">  7 10 -1 -1</clus>
<clus scale="  300.779">  1  9  2 -1</clus>
<clus scale="  300.779">  1  5  2 -1</clus>
</clustering>
</event>
<event>
10    4  0.2759992E-005  0.3038906E+03  0.7546771E-02  0.1115955E+00
          4   -1    0    0  503    0 -0.00000000000E+00  0.00000000000E+00  0.82320948685E+03  0.82320948685E+03  0.00000000000E+00 0. -1.
         21   -1    0    0  501  502  0.00000000000E+00 -0.00000000000E+00 -0.13928878126E+03  0.13928878126E+03  0.00000000000E+00 0.  1.
         24    2    1    2    0    0 -0.40373557661E+02 -0.87740094630E+02  0.35277797593E+03  0.37477703222E+03  0.81713984190E+02 0.  0.
         23    2    1    2    0    0 -0.10106962998E+03  0.54952214040E+02  0.15967562994E+03  0.21618463751E+03  0.89468848025E+02 0.  0.
        -11    1    3    3    0    0 -0.35866773883E+02 -0.47605435773E+02  0.31103467711E+03  0.31669429005E+03  0.00000000000E+00 0.  1.
         12    1    3    3    0    0 -0.45067837776E+01 -0.40134658858E+02  0.41743298824E+02  0.58082742173E+02  0.00000000000E+00 0. -1.
        -13    1    4    4    0    0 -0.33610956412E+02  0.65011135859E+02  0.10867482352E+03  0.13102046192E+03  0.00000000000E+00 0. -1.
         13    1    4    4    0    0 -0.67458673565E+02 -0.10058921820E+02  0.51000806429E+02  0.85164175589E+02  0.00000000000E+00 0.  1.
         21    1    1    2  503  502 -0.12541270154E+02 -0.24873716642E+02 -0.72309974965E+02  0.77490113666E+02  0.00000000000E+00 0.  1.
          3    1    1    2  501    0  0.15398445779E+03  0.57661597233E+02  0.24377707467E+03  0.29404648472E+03  0.00000000000E+00 0. -1.
<scales pt_clust_5="13000.00000" pt_clust_6="13000.00000" pt_clust_7="13000.00000" pt_clust_8="13000.00000" pt_clust_9="27.85651" pt_clust_10="13000.00000"></scales>
<clustering>
<clus scale="   27.857">  2  9  1 -1</clus>
<clus scale="   81.714">  5  6 -1 -1</clus>
<clus scale="   89.469">  7  8 -1 -1</clus>
<clus scale="  130.180">  1  5  2 -1</clus>
<clus scale="  125.250">  7 10 -1 -1</clus>
<clus scale="   27.857">  2  5  1 -1</clus>
</clustering>
</event>
<event>
10    4  0.2759992E-005  0.3469054E+03  0.7546771E-02  0.1070577E+00
          2   -1    0    0  502    0 -0.00000000000E+00  0.00000000000E+00  0.21436190997E+04  0.21436190997E+04  0.00000000000E+00 0. -1.
         21   -1    0    0  503  502  0.00000000000E+00 -0.00000000000E+00 -0.81953927992E+02  0.81953927992E+02  0.00000000000E+00 0. -1.
         24    2    1    2    0    0 -0.26196437757E+03  0.14263388085E+03  0.47740907754E+03  0.56868785781E+03  0.80726038072E+02 0.  0.
         23    2    1    2    0    0  0.77967698628E+02 -0.46679465716E+01  0.35010187805E+03  0.36979198179E+03  0.89855623242E+02 0.  0.
        -13    1    3    3    0    0 -0.20526687755E+02  0.14079285342E+02  0.93986557602E+01  0.26606501386E+02  0.00000000000E+00 0.  1.
         14    1    3    3    0    0 -0.24143768982E+03  0.12855459551E+03  0.46801042177E+03  0.54208135642E+03  0.00000000000E+00 0. -1.
        -13    1    4    4    0    0  0.72220464773E+00  0.33055847449E+02  0.93612144430E+02  0.99279626384E+02  0.00000000000E+00 0.  1.
         13    1    4    4    0    0  0.77245493980E+02 -0.37723794020E+02  0.25648973362E+03  0.27051235540E+03  0.00000000000E+00 0. -1.
         21    1    1    2  503  501  0.29489901684E+02 -0.82125482109E+01 -0.55213255046E+01  0.31106032932E+02  0.00000000000E+00 0. -1.
          1    1    1    2  501    0  0.15450677726E+03 -0.12975338607E+03  0.12396755416E+04  0.12559871551E+04  0.00000000000E+00 0. -1.
<scales pt_clust_5="13000.00000" pt_clust_6="13000.00000" pt_clust_7="13000.00000" pt_clust_8="13000.00000" pt_clust_9="30.61209" pt_clust_10="13000.00000"></scales>
<clustering>
<clus scale="   30.612">  2  9  1 -1</clus>
<clus scale="   80.726">  5  6 -1 -1</clus>
<clus scale="   89.856">  7  8 -1 -1</clus>
<clus scale="  205.340">  7 10 -1 -1</clus>
<clus scale="  288.458">  1  5  2 -1</clus>
<clus scale="   30.612">  2  5  1 -1</clus>
</clustering>
</event>
<event>
10    4  0.2759992E-005  0.2257055E+03  0.7546771E-02  0.1172585E+00
         21   -1    0    0  503  502  0.00000000000E+00  0.00000000000E+00  0.19554331318E+03  0.19554331318E+03  0.00000000000E+00 0. -1.
         -1   -1    0    0    0  501 -0.00000000000E+00 -0.00000000000E+00 -0.49293392199E+03  0.49293392199E+03  0.00000000000E+00 0.  1.
         24    2    1    2    0    0  0.68654993209E+01  0.16941924587E+02 -0.23576156690E+02  0.85170798222E+02  0.79775095210E+02 0.  0.
         23    2    1    2    0    0  0.72433919752E+02  0.45769579341E+01 -0.13377345722E+03  0.17457386388E+03  0.85516517816E+02 0.  0.
        -13    1    3    3    0    0 -0.33144591149E+02 -0.87365415001E+01 -0.88486052428E+01  0.35400408113E+02  0.00000000000E+00 0.  1.
         14    1    3    3    0    0  0.40010090470E+02  0.25678466087E+02 -0.14727551447E+02  0.49770390109E+02  0.00000000000E+00 0. -1.
        -13    1    4    4    0    0 -0.17534987653E+00 -0.31191406938E+02 -0.35401162096E+02  0.47182379043E+02  0.00000000000E+00 0.  1.
         13    1    4    4    0    0  0.72609269628E+02  0.35768364872E+02 -0.98372295119E+02  0.12739148484E+03  0.00000000000E+00 0. -1.
         21    1    1    2  503  501 -0.54871606220E+02 -0.11024269272E+03  0.10823609195E+03  0.16394937044E+03  0.00000000000E+00 0. -1.
         -2    1    1    2    0  502 -0.24427812853E+02  0.88723810196E+02 -0.24827708686E+03  0.26478320263E+03  0.00000000000E+00 0.  1.
<scales pt_clust_5="13000.00000" pt_clust_6="13000.00000" pt_clust_7="13000.00000" pt_clust_8="13000.00000" pt_clust_9="121.98592" pt_clust_10="13000.00000"></scales>
<clustering>
<clus scale="   79.775">  5  6 -1 -1</clus>
<clus scale="   81.843">  2  5  1 -1</clus>
<clus scale="   85.517">  7  8 -1 -1</clus>
<clus scale="  100.724">  7 10 -1 -1</clus>
<clus scale="  121.986">  1  9  2 -1</clus>
<clus scale="  121.986">  1  5  2 -1</clus>
</clustering>
</event>
<event>
10    4  0.2759992E-005  0.1963424E+03  0.7546771E-02  0.1187920E+00
          2   -1    0    0  502    0 -0.00000000000E+00  0.00000000000E+00  0.17670322373E+03  0.17670322373E+03  0.00000000000E+00 0. -1.
         21   -1    0    0  503  502  0.00000000000E+00 -0.00000000000E+00 -0.66315020910E+03  0.66315020910E+03  0.00000000000E+00 0. -1.
         24    2    1    2    0    0 -0.30122970695E+02  0.10992547004E+02  0.14118937429E+03  0.16640368710E+03  0.82021449728E+02 0.  0.
         23    2    1    2    0    0  0.16143088331E+02 -0.10163235451E+03 -0.35831019949E+03  0.38399314374E+03  0.92058680183E+02 0.  0.
        -13    1    3    3    0    0  0.36649870698E+00 -0.31568102562E+02  0.30214098028E+02  0.43698640028E+02  0.00000000000E+00 0.  1.
         14    1    3    3    0    0 -0.30489469402E+02  0.42560649566E+02  0.11097527626E+03  0.12270504707E+03  0.00000000000E+00 0. -1.
        -13    1    4    4    0    0 -0.21561861583E+02 -0.57076701799E+02 -0.85676651411E+02  0.10518152100E+03  0.00000000000E+00 0. -1.
         13    1    4    4    0    0  0.37704949913E+02 -0.44555652713E+02 -0.27263354808E+03  0.27881162274E+03  0.00000000000E+00 0.  1.
         21    1    1    2  503  501  0.10461281416E+02  0.33295071787E+02 -0.17926433431E+03  0.18262995858E+03  0.00000000000E+00 0.  1.
          1    1    1    2  501    0  0.35186009481E+01  0.57344735722E+02 -0.90061825851E+02  0.10682664341E+03  0.00000000000E+00 0. -1.
<scales pt_clust_5="13000.00000" pt_clust_6="13000.00000" pt_clust_7="13000.00000" pt_clust_8="13000.00000" pt_clust_9="34.89986" pt_clust_10="13000.00000"></scales>
<clustering>
<clus scale="   34.900">  2  9  1 -1</clus>
<clus scale="   82.021">  5  6 -1 -1</clus>
<clus scale="   88.087">  1  5  2 -1</clus>
<clus scale="   92.059">  7  8 -1 -1</clus>
<clus scale="   70.498">  7 10 -1 -1</clus>
<clus scale="   34.900">  2  5  1 -1</clus>
</clustering>
</event>
<event>
10    4  0.2759992E-005  0.6899680E+03  0.7546771E-02  0.1038838E+00
         21   -1    0    0  503  502  0.00000000000E+00  0.00000000000E+00  0.72601932549E+03  0.72601932549E+03  0.00000000000E+00 0.  1.
          2   -1    0    0  502    0 -0.00000000000E+00 -0.00000000000E+00 -0.10040282539E+04  0.10040282539E+04  0.00000000000E+00 0. -1.
         24    2    1    2    0    0  0.32097463867E+02 -0.30695745618E+02 -0.47552408251E+03  0.48395790316E+03  0.78228019244E+02 0.  0.
         23    2    1    2    0    0  0.81039963235E+02 -0.10040998113E+03  0.13399021256E+03  0.20714115206E+03  0.91128699452E+02 0.  0.
        -11    1    3    3    0    0  0.43582380134E+02 -0.36576063000E+02 -0.19484173421E+03  0.20297914581E+03  0.00000000000E+00 0.  1.
         12    1    3    3    0    0 -0.11484916267E+02  0.58803173820E+01 -0.28068234830E+03  0.28097875735E+03  0.00000000000E+00 0. -1.
        -11    1    4    4    0    0  0.39211631923E+02 -0.68974677727E+01  0.17341731886E+01  0.39851405200E+02  0.00000000000E+00 0.  1.
         11    1    4    4    0    0  0.41828331311E+02 -0.93512513356E+02  0.13225603937E+03  0.16728974686E+03  0.00000000000E+00 0. -1.
         21    1    1    2  503  501 -0.21597636917E+03 -0.23710535280E+03  0.41168404311E+03  0.52187018665E+03  0.00000000000E+00 0.  1.
          1    1    1    2  501    0  0.10283894207E+03  0.36821107955E+03 -0.34815910153E+03  0.51707833748E+03  0.00000000000E+00 0. -1.
<scales pt_clust_5="13000.00000" pt_clust_6="13000.00000" pt_clust_7="13000.00000" pt_clust_8="13000.00000" pt_clust_9="320.87256" pt_clust_10="13000.00000"></scales>
<clustering>
<clus scale="   78.228">  5  6 -1 -1</clus>
<clus scale="   89.956">  2  5  1 -1</clus>
<clus scale="   91.129">  7  8 -1 -1</clus>
<clus scale="  320.873">  1  9  2 -1</clus>
<clus scale="  275.434">  7 10 -1 -1</clus>
<clus scale="  320.873">  1  5  2 -1</clus>
</clustering>
</event>
<event>
10    4  0.2759992E-005  0.1391694E+03  0.7546771E-02  0.1229909E+00
          2   -1    0    0  503    0 -0.00000000000E+00  0.00000000000E+00  0.49843354123E+03  0.49843354123E+03  0.00000000000E+00 0. -1.
         21   -1    0    0  501  502  0.00000000000E+00 -0.00000000000E+00 -0.91683812210E+02  0.91683812210E+02  0.00000000000E+00 0.  1.
         24    2    1    2    0    0 -0.47086643012E+02  0.40760504361E+02  0.38814865701E+03  0.40122710105E+03  0.80282227264E+02 0.  0.
         23    2    1    2    0    0  0.34046777863E+02 -0.18818634585E+02  0.10351649840E+02  0.10204745992E+03  0.93772081832E+02 0.  0.
        -13    1    3    3    0    0 -0.12157042248E+00  0.48670732695E+02  0.13197105614E+03  0.14065992556E+03  0.00000000000E+00 0.  1.
         14    1    3    3    0    0 -0.46965072590E+02 -0.79102283343E+01  0.25617760086E+03  0.26056717548E+03  0.00000000000E+00 0. -1.
        -13    1    4    4    0    0  0.72506205952E+01 -0.42233353323E+02 -0.26848922602E+02  0.50567699936E+02  0.00000000000E+00 0.  1.
         13    1    4    4    0    0  0.26796157268E+02  0.23414718738E+02  0.37200572443E+02  0.51479759984E+02  0.00000000000E+00 0. -1.
         21    1    1    2  503  502 -0.11532145391E+02 -0.34616938608E+02 -0.24525185364E+02  0.43963706998E+02  0.00000000000E+00 0.  1.
          1    1    1    2  501    0  0.24572010540E+02  0.12675068833E+02  0.32774607541E+02  0.42879085478E+02  0.00000000000E+00 0. -1.
<scales pt_clust_5="13000.00000" pt_clust_6="13000.00000" pt_clust_7="13000.00000" pt_clust_8="13000.00000" pt_clust_9="36.48730" pt_clust_10="13000.00000"></scales>
<clustering>
<clus scale="   36.487">  2  9  1 -1</clus>
<clus scale="   80.282">  5  6 -1 -1</clus>
<clus scale="   93.772">  7  8 -1 -1</clus>
<clus scale="   25.450">  7 10 -1 -1</clus>
<clus scale="  100.715">  1  5  2 -1</clus>
<clus scale="   36.487">  2  5  1 -1</clus>
</clustering>
</event>
<event>
10    4  0.2759992E-005  0.3242064E+03  0.7546771E-02  0.1115433E+00
         21   -1    0    0  503  502  0.00000000000E+00  0.00000000000E+00  0.10800776045E+03  0.10800776045E+03  0.00000000000E+00 0. -1.
          2   -1    0    0  502    0 -0.00000000000E+00 -0.00000000000E+00 -0.65912164807E+03  0.65912164807E+03  0.00000000000E+00 0. -1.
         24    2    1    2    0    0 -0.76639155718E+02  0.44496860339E+02 -0.56813013061E+02  0.13288979342E+03  0.81107632026E+02 0.  0.
         23    2    1    2    0    0 -0.25872011242E+02  0.11783538880E+03 -0.35444168375E+03  0.38508374440E+03  0.90033567065E+02 0.  0.
        -13    1    3    3    0    0 -0.20251477570E+02  0.31488630688E+02 -0.64434334896E+02  0.74521404441E+02  0.00000000000E+00 0.  1.
         14    1    3    3    0    0 -0.56387678148E+02  0.13008229652E+02  0.76213218343E+01  0.58368388979E+02  0.00000000000E+00 0. -1.
        -11    1    4    4    0    0 -0.21345457901E+02 -0.63239916804E+01 -0.27825588352E+02  0.35635443184E+02  0.00000000000E+00 0.  1.
         11    1    4    4    0    0 -0.45265533404E+01  0.12415938048E+03 -0.32661609540E+03  0.34944830121E+03  0.00000000000E+00 0. -1.
         21    1    1    2  503  501  0.22843169077E+02 -0.36122911702E+02  0.26149933249E+01  0.42819543592E+02  0.00000000000E+00 0.  1.
          1    1    1    2  501    0  0.79667997883E+02 -0.12620933743E+03 -0.14247418413E+03  0.20633632711E+03  0.00000000000E+00 0. -1.
<scales pt_clust_5="13000.00000" pt_clust_6="13000.00000" pt_clust_7="13000.00000" pt_clust_8="13000.00000" pt_clust_9="42.73962" pt_clust_10="13000.00000"></scales>
<clustering>
<clus scale="   42.740">  1  9  2 -1</clus>
<clus scale="   81.108">  5  6 -1 -1</clus>
<clus scale="   90.034">  7  8 -1 -1</clus>
<clus scale="  108.628">  2  5  1 -1</clus>
<clus scale="  143.058">  7 10 -1 -1</clus>
<clus scale="   42.740">  1  5  2 -1</clus>
</clustering>
</event>
<event>
10    4  0.2759992E-005  0.2639852E+03  0.7546771E-02  0.1125768E+00
         21   -1    0    0  503  502  0.00000000000E+00  0.00000000000E+00  0.46815366397E+02  0.46815366397E+02  0.00000000000E+00 0. -1.
          2   -1    0    0  502    0 -0.00000000000E+00 -0.00000000000E+00 -0.17347263416E+04  0.17347263416E+04  0.00000000000E+00 0. -1.
         24    2    1    2    0    0 -0.71653650761E+02  0.76615374284E+02 -0.33989642869E+03  0.36472409968E+03  0.80560073302E+02 0.  0.
         23    2    1    2    0    0 -0.40033352131E+02 -0.59666071863E+02 -0.46511861757E+03  0.47922433160E+03  0.90321216646E+02 0.  0.
        -13    1    3    3    0    0 -0.50945700546E+02  0.25250335858E+02 -0.26802539224E+03  0.27399024572E+03  0.00000000000E+00 0.  1.
         14    1    3    3    0    0 -0.20707950215E+02  0.51365038426E+02 -0.71871036449E+02  0.90733853962E+02  0.00000000000E+00 0. -1.
        -11    1    4    4    0    0 -0.63146426636E+02 -0.18291603693E+02 -0.31559321834E+03  0.32236800931E+03  0.00000000000E+00 0.  1.
         11    1    4    4    0    0  0.23113074505E+02 -0.41374468170E+02 -0.14952539923E+03  0.15685632230E+03  0.00000000000E+00 0. -1.
         21    1    1    2  503  501 -0.40704017212E+02  0.46553236779E+02 -0.29754003949E+02  0.68624497250E+02  0.00000000000E+00 0. -1.
          1    1    1    2  501    0  0.15239102010E+03 -0.63502539200E+02 -0.85314192503E+03  0.86896877950E+03  0.00000000000E+00 0. -1.
<scales pt_clust_5="13000.00000" pt_clust_6="13000.00000" pt_clust_7="13000.00000" pt_clust_8="13000.00000" pt_clust_9="61.83867" pt_clust_10="13000.00000"></scales>
<clustering>
<clus scale="   61.839">  1  9  2 -1</clus>
<clus scale="   80.560">  5  6 -1 -1</clus>
<clus scale="   90.321">  7  8 -1 -1</clus>
<clus scale="  149.267">  7 10 -1 -1</clus>
<clus scale="  155.432">  2  5  1 -1</clus>
<clus scale="   61.839">  1  5  2 -1</clus>
</clustering>
</event>
<event>
10    4  0.2759992E-005  0.4075388E+03  0.7546771E-02  0.1092847E+00
         21   -1    0    0  503  502  0.00000000000E+00  0.00000000000E+00  0.30410612089E+03  0.30410612089E+03  0.00000000000E+00 0. -1.
          2   -1    0    0  502    0 -0.00000000000E+00 -0.00000000000E+00 -0.12161434081E+04  0.12161434081E+04  0.00000000000E+00 0. -1.
         24    2    1    2    0    0  0.53866446997E+02  0.24652600405E+02 -0.63016712106E+03  0.63789434191E+03  0.79304767575E+02 0.  0.
         23    2    1    2    0    0  0.16674714932E+03 -0.35566594904E+02 -0.33209813803E+03  0.38434575298E+03  0.91448838562E+02 0.  0.
        -11    1    3    3    0    0  0.93980754050E+01  0.27113094734E+02 -0.65953599613E+02  0.71925802249E+02  0.00000000000E+00 0.  1.
         12    1    3    3    0    0  0.44468371592E+02 -0.24604943288E+01 -0.56421352144E+03  0.56596853966E+03  0.00000000000E+00 0. -1.
        -13    1    4    4    0    0  0.10385149117E+03  0.72359700657E+01 -0.11918399286E+03  0.15824764022E+03  0.00000000000E+00 0. -1.
         13    1    4    4    0    0  0.62895658149E+02 -0.42802564969E+02 -0.21291414517E+03  0.22609811276E+03  0.00000000000E+00 0.  1.
         21    1    1    2  503  501 -0.26781175026E+02 -0.31785338786E+02  0.22787827862E+03  0.23163775375E+03  0.00000000000E+00 0. -1.
          1    1    1    2  501    0 -0.19383242129E+03  0.42699333285E+02 -0.17765030674E+03  0.26637168035E+03  0.00000000000E+00 0. -1.
<scales pt_clust_5="13000.00000" pt_clust_6="13000.00000" pt_clust_7="13000.00000" pt_clust_8="13000.00000" pt_clust_9="41.56368" pt_clust_10="13000.00000"></scales>
<clustering>
<clus scale="   41.564">  1  9  2 -1</clus>
<clus scale="   79.305">  5  6 -1 -1</clus>
<clus scale="   91.449">  7  8 -1 -1</clus>
<clus scale="   97.836">  2  5  1 -1</clus>
<clus scale="  190.353">  7 10 -1 -1</clus>
<clus scale="   41.564">  1  5  2 -1</clus>
</clustering>
</event>
<event>
10    4  0.2759992E-005  0.3235944E+03  0.7546771E-02  0.1113772E+00
          2   -1    0    0  502    0 -0.00000000000E+00  0.00000000000E+00  0.25889905368E+03  0.25889905368E+03  0.00000000000E+00 0. -1.
         21   -1    0    0  503  502  0.00000000000E+00 -0.00000000000E+00 -0.29154438102E+03  0.29154438102E+03  0.00000000000E+00 0.  1.
         24    2    1    2    0    0  0.11071533723E+02 -0.85801926643E+02  0.59710076282E+02  0.13220328683E+03  0.80173975600E+02 0.  0.
         23    2    1    2    0    0  0.43967225650E+02 -0.73185504898E+02  0.91722104515E+02  0.15530517934E+03  0.91747039272E+02 0.  0.
        -13    1    3    3    0    0  0.16880671446E+02 -0.70984989494E+02  0.78770971576E+02  0.10737174565E+03  0.00000000000E+00 0.  1.
         14    1    3    3    0    0 -0.58091377233E+01 -0.14816937149E+02 -0.19060895294E+02  0.24831541172E+02  0.00000000000E+00 0. -1.
        -13    1    4    4    0    0  0.44146102012E+02 -0.29535155972E+02 -0.67150604622E+00  0.53119249632E+02  0.00000000000E+00 0.  1.
         13    1    4    4    0    0 -0.17887636186E+00 -0.43650348926E+02  0.92393610561E+02  0.10218592971E+03  0.00000000000E+00 0. -1.
         21    1    1    2  503  501 -0.16739063558E+02  0.28216601364E+02 -0.94072076689E+02  0.99628953894E+02  0.00000000000E+00 0. -1.
          1    1    1    2  501    0 -0.38299695815E+02  0.13077083018E+03 -0.90005431447E+02  0.16330601463E+03  0.00000000000E+00 0. -1.
<scales pt_clust_5="13000.00000" pt_clust_6="13000.00000" pt_clust_7="13000.00000" pt_clust_8="13000.00000" pt_clust_9="32.80812" pt_clust_10="13000.00000"></scales>
<clustering>
<clus scale="   32.808">  2  9  1 -1</clus>
<clus scale="   80.174">  5  6 -1 -1</clus>
<clus scale="   91.747">  7  8 -1 -1</clus>
<clus scale="  113.927">  1  5  2 -1</clus>
<clus scale="  133.376">  7 10 -1 -1</clus>
<clus scale="   32.808">  2  5  1 -1</clus>
</clustering>
</event>
<event>
10    4  0.2759992E-005  0.4864287E+03  0.7546771E-02  0.1057560E+00
         21   -1    0    0  503  502  0.00000000000E+00  0.00000000000E+00  0.37973608640E+03  0.37973608640E+03  0.00000000000E+00 0. -1.
          2   -1    0    0  502    0 -0.00000000000E+00 -0.00000000000E+00 -0.69863499624E+03  0.69863499624E+03  0.00000000000E+00 0. -1.
         24    2    1    2    0    0 -0.77305799874E+02  0.10316165042E+03 -0.31193072558E+03  0.34691077253E+03  0.80173522591E+02 0.  0.
         23    2    1    2    0    0 -0.51667065669E+02 -0.19943765035E+03 -0.23438817411E+03  0.32514202203E+03  0.91294338691E+02 0.  0.
        -13    1    3    3    0    0 -0.37212104147E+02  0.27897293649E+01 -0.42209843467E+02  0.56339987314E+02  0.00000000000E+00 0.  1.
         14    1    3    3    0    0 -0.40093695727E+02  0.10037192106E+03 -0.26972088212E+03  0.29057078522E+03  0.00000000000E+00 0. -1.
        -11    1    4    4    0    0 -0.29755784344E+02 -0.11871458850E+02 -0.60387234771E+02  0.68359025450E+02  0.00000000000E+00 0.  1.
         11    1    4    4    0    0 -0.21911281324E+02 -0.18756619150E+03 -0.17400093934E+03  0.25678299658E+03  0.00000000000E+00 0. -1.
         21    1    1    2  503  501 -0.18060578417E+02 -0.38325835702E+02  0.20078522722E+03  0.20520663158E+03  0.00000000000E+00 0. -1.
          1    1    1    2  501    0  0.14703344396E+03  0.13460183563E+03  0.26634762639E+02  0.20111165650E+03  0.00000000000E+00 0. -1.
<scales pt_clust_5="13000.00000" pt_clust_6="13000.00000" pt_clust_7="13000.00000" pt_clust_8="13000.00000" pt_clust_9="42.36808" pt_clust_10="13000.00000"></scales>
<clustering>
<clus scale="   42.368">  1  9  2 -1</clus>
<clus scale="   80.174">  5  6 -1 -1</clus>
<clus scale="   91.294">  7  8 -1 -1</clus>
<clus scale="  150.192">  2  5  1 -1</clus>
<clus scale="  176.211">  7 10 -1 -1</clus>
<clus scale="   42.368">  1  5  2 -1</clus>
</clustering>
</event>
<event>
10    4  0.2759992E-005  0.2741981E+03  0.7546771E-02  0.1128364E+00
         21   -1    0    0  501  502  0.00000000000E+00  0.00000000000E+00  0.21880829878E+03  0.21880829878E+03  0.00000000000E+00 0. -1.
          2   -1    0    0  503    0 -0.00000000000E+00 -0.00000000000E+00 -0.32343952329E+03  0.32343952329E+03  0.00000000000E+00 0. -1.
         24    2    1    2    0    0 -0.88360996312E+02  0.13391037418E+02 -0.50410550960E+02  0.13005538146E+03  0.79913659947E+02 0.  0.
         23    2    1    2    0    0 -0.31154167185E+02 -0.17644240286E+01  0.23669547526E+02  0.94987194061E+02  0.86536837418E+02 0.  0.
        -11    1    3    3    0    0 -0.31549751306E+02  0.43157238227E+02 -0.35606641594E+02  0.64232133270E+02  0.00000000000E+00 0.  1.
         12    1    3    3    0    0 -0.56811245006E+02 -0.29766200809E+02 -0.14803909367E+02  0.65823248190E+02  0.00000000000E+00 0. -1.
        -11    1    4    4    0    0 -0.51688167951E+02 -0.18453105131E+01 -0.12667286693E+02  0.53249713888E+02  0.00000000000E+00 0. -1.
         11    1    4    4    0    0  0.20534000766E+02  0.80886484537E-01  0.36336834219E+02  0.41737480172E+02  0.00000000000E+00 0.  1.
         21    1    1    2  503  502 -0.53727121621E+02 -0.80440393989E+02  0.30682751430E+02  0.10148247050E+03  0.00000000000E+00 0. -1.
          1    1    1    2  501    0  0.17324228512E+03  0.68813780600E+02 -0.10857297251E+03  0.21572277606E+03  0.00000000000E+00 0. -1.
<scales pt_clust_5="13000.00000" pt_clust_6="13000.00000" pt_clust_7="13000.00000" pt_clust_8="13000.00000" pt_clust_9="96.73293" pt_clust_10="13000.00000"></scales>
<clustering>
<clus scale="   79.914">  5  6 -1 -1</clus>
<clus scale="   86.537">  7  8 -1 -1</clus>
<clus scale="   96.733">  1  9  2 -1</clus>
<clus scale="  130.090">  2  5  1 -1</clus>
<clus scale="   96.608">  7 10 -1 -1</clus>
<clus scale="   96.733">  1  5  2 -1</clus>
</clustering>
</event>
<event>
10    4  0.2759992E-005  0.4749043E+03  0.7546771E-02  0.1075331E+00
         21   -1    0    0  503  502  0.00000000000E+00  0.00000000000E+00  0.10465551293E+03  0.10465551293E+03  0.00000000000E+00 0. -1.
          2   -1    0    0  502    0 -0.00000000000E+00 -0.00000000000E+00 -0.10254265394E+04  0.10254265394E+04  0.00000000000E+00 0. -1.
         24    2    1    2    0    0 -0.63950291300E+02 -0.25553375310E+02 -0.79373103651E+02  0.13202505045E+03  0.79924399372E+02 0.  0.
         23    2    1    2    0    0 -0.18501618210E+03  0.10356295502E+03 -0.52594854216E+03  0.57416556859E+03  0.89933074349E+02 0.  0.
        -11    1    3    3    0    0 -0.43562940512E+02 -0.57410114724E+01 -0.91201243592E+02  0.10123416336E+03  0.00000000000E+00 0.  1.
         12    1    3    3    0    0 -0.20387350788E+02 -0.19812363838E+02  0.11828139941E+02  0.30790887084E+02  0.00000000000E+00 0. -1.
        -13    1    4    4    0    0 -0.33094766997E+02  0.60427531225E+02 -0.11694082803E+03  0.13572732737E+03  0.00000000000E+00 0.  1.
         13    1    4    4    0    0 -0.15192141511E+03  0.43135423798E+02 -0.40900771412E+03  0.43843824122E+03  0.00000000000E+00 0. -1.
         21    1    1    2  503  501  0.35829180982E+02  0.89181875586E+01 -0.47661268829E+01  0.37228755615E+02  0.00000000000E+00 0. -1.
          1    1    1    2  501    0  0.21313729242E+03 -0.86927767272E+02 -0.31068325380E+03  0.38666267772E+03  0.00000000000E+00 0. -1.
<scales pt_clust_5="13000.00000" pt_clust_6="13000.00000" pt_clust_7="13000.00000" pt_clust_8="13000.00000" pt_clust_9="36.92241" pt_clust_10="13000.00000"></scales>
<clustering>
<clus scale="   36.922">  1  9  2 -1</clus>
<clus scale="   79.924">  5  6 -1 -1</clus>
<clus scale="   89.933">  7  8 -1 -1</clus>
<clus scale="   98.749">  2  5  1 -1</clus>
<clus scale="  225.627">  7 10 -1 -1</clus>
<clus scale="   36.922">  1  5  2 -1</clus>
</clustering>
</event>
<event>
10    4  0.2759992E-005  0.1216003E+03  0.7546771E-02  0.1258820E+00
          4   -1    0    0  502    0 -0.00000000000E+00  0.00000000000E+00  0.14740611326E+03  0.14740611326E+03  0.00000000000E+00 0. -1.
         21   -1    0    0  503  502  0.00000000000E+00 -0.00000000000E+00 -0.17594657132E+03  0.17594657132E+03  0.00000000000E+00 0.  1.
         24    2    1    2    0    0 -0.46463231455E+01 -0.10641209926E+02  0.56234013553E+02  0.99653362808E+02  0.81447558412E+02 0.  0.
         23    2    1    2    0    0 -0.23499164093E+02  0.33519935499E+02  0.40146863574E+01  0.10002733983E+03  0.91178693880E+02 0.  0.
        -13    1    3    3    0    0 -0.99136714790E+01 -0.33782382461E+02  0.65349473701E+02  0.74229939781E+02  0.00000000000E+00 0.  1.
         14    1    3    3    0    0  0.52673483334E+01  0.23141172535E+02 -0.91154601474E+01  0.25423423028E+02  0.00000000000E+00 0. -1.
        -11    1    4    4    0    0  0.30521946603E+02  0.63396297585E+01 -0.17610208779E+02  0.35803625279E+02  0.00000000000E+00 0. -1.
         11    1    4    4    0    0 -0.54021110695E+02  0.27180305741E+02  0.21624895136E+02  0.64223714550E+02  0.00000000000E+00 0.  1.
         21    1    1    2  503  501  0.25632779981E+02 -0.51271410799E+02 -0.63761961792E+02  0.85740216622E+02  0.00000000000E+00 0.  1.
          3    1    1    2  501    0  0.25127072578E+01  0.28392685226E+02 -0.25027196179E+02  0.37931765326E+02  0.00000000000E+00 0. -1.
<scales pt_clust_5="13000.00000" pt_clust_6="13000.00000" pt_clust_7="13000.00000" pt_clust_8="13000.00000" pt_clust_9="57.32187" pt_clust_10="13000.00000"></scales>
<clustering>
<clus scale="   57.322">  2  9  1 -1</clus>
<clus scale="   81.448">  5  6 -1 -1</clus>
<clus scale="   84.278">  1  5  2 -1</clus>
<clus scale="   91.179">  7  8 -1 -1</clus>
<clus scale="   14.379">  7 10 -1 -1</clus>
<clus scale="   57.322">  2  5  1 -1</clus>
</clustering>
</event>
<event>
10    4  0.2759992E-005  0.2030053E+03  0.7546771E-02  0.1163260E+00
         21   -1    0    0  503  502  0.00000000000E+00  0.00000000000E+00  0.43543283379E+03  0.43543283379E+03  0.00000000000E+00 0. -1.
          2   -1    0    0  502    0 -0.00000000000E+00 -0.00000000000E+00 -0.22562373761E+03  0.22562373761E+03  0.00000000000E+00 0. -1.
         24    2    1    2    0    0  0.86661630162E+02  0.34845995271E+02 -0.36343457753E+02  0.14098379724E+03  0.99151916942E+02 0.  0.
         23    2    1    2    0    0 -0.74076186660E+02 -0.69187111753E+02 -0.38438966062E+02  0.13996313689E+03  0.88532410532E+02 0.  0.
        -13    1    3    3    0    0  0.63773506849E+02  0.49909474170E+02 -0.63118094181E+02  0.10267380192E+03  0.00000000000E+00 0.  1.
         14    1    3    3    0    0  0.22888123313E+02 -0.15063478899E+02  0.26774636428E+02  0.38309995317E+02  0.00000000000E+00 0. -1.
        -11    1    4    4    0    0 -0.51106256849E+02  0.63943331666E+01  0.13313046918E+01  0.51521930845E+02  0.00000000000E+00 0.  1.
         11    1    4    4    0    0 -0.22969929811E+02 -0.75581444920E+02 -0.39770270754E+02  0.88441206050E+02  0.00000000000E+00 0. -1.
         21    1    1    2  503  501  0.21667649865E+02 -0.30853396159E+02  0.30207420104E+03  0.30441787404E+03  0.00000000000E+00 0. -1.
          1    1    1    2  501    0 -0.34253093368E+02  0.65194512641E+02 -0.17482681045E+02  0.75691763226E+02  0.00000000000E+00 0. -1.
<scales pt_clust_5="13000.00000" pt_clust_6="13000.00000" pt_clust_7="13000.00000" pt_clust_8="13000.00000" pt_clust_9="37.70171" pt_clust_10="13000.00000"></scales>
<clustering>
<clus scale="   37.702">  1  9  2 -1</clus>
<clus scale="   88.532">  7  8 -1 -1</clus>
<clus scale="   65.421">  7 10 -1 -1</clus>
<clus scale="   99.152">  5  6 -1 -1</clus>
<clus scale="  139.333">  2  5  1 -1</clus>
<clus scale="   37.702">  1  5  2 -1</clus>
</clustering>
</event>
<event>
10    4  0.2759992E-005  0.9311900E+03  0.7546771E-02  0.9778429E-01
          2   -1    0    0  502    0 -0.00000000000E+00  0.00000000000E+00  0.17572712331E+04  0.17572712331E+04  0.00000000000E+00 0. -1.
         21   -1    0    0  503  502  0.00000000000E+00 -0.00000000000E+00 -0.26240351096E+03  0.26240351096E+03  0.00000000000E+00 0. -1.
         24    2    1    2    0    0 -0.17234165005E+03 -0.14356105401E+03  0.36036941561E+03  0.43218387551E+03  0.81273402671E+02 0.  0.
         23    2    1    2    0    0 -0.36562931771E+03  0.10258016804E+03  0.40134045493E+03  0.56090637631E+03  0.96614250422E+02 0.  0.
        -11    1    3    3    0    0 -0.81829464009E+02 -0.28982577027E+02  0.90880256182E+02  0.12567924218E+03  0.00000000000E+00 0.  1.
         12    1    3    3    0    0 -0.90512186037E+02 -0.11457847698E+03  0.26948915942E+03  0.30650463333E+03  0.00000000000E+00 0. -1.
        -13    1    4    4    0    0 -0.13741646535E+03  0.11507191900E+02  0.20159482129E+03  0.24424613075E+03  0.00000000000E+00 0.  1.
         13    1    4    4    0    0 -0.22821285236E+03  0.91072976139E+02  0.19974563364E+03  0.31666024557E+03  0.00000000000E+00 0. -1.
         21    1    1    2  503  501  0.90058433951E+01 -0.47373297294E+02 -0.55080259563E+02  0.73206348804E+02  0.00000000000E+00 0. -1.
          1    1    1    2  501    0  0.52896512436E+03  0.88354183263E+02  0.78823811122E+03  0.95337814348E+03  0.00000000000E+00 0. -1.
<scales pt_clust_5="13000.00000" pt_clust_6="13000.00000" pt_clust_7="13000.00000" pt_clust_8="13000.00000" pt_clust_9="48.22172" pt_clust_10="13000.00000"></scales>
<clustering>
<clus scale="   48.222">  2  9  1 -1</clus>
<clus scale="   81.273">  5  6 -1 -1</clus>
<clus scale="   96.614">  7  8 -1 -1</clus>
<clus scale="  242.682">  1  5  2 -1</clus>
<clus scale="  422.521">  7 10 -1 -1</clus>
<clus scale="   48.222">  2  5  1 -1</clus>
</clustering>
</event>
<event>
10    4  0.2759992E-005  0.2493149E+03  0.7546771E-02  0.1152171E+00
          2   -1    0    0  502    0 -0.00000000000E+00  0.00000000000E+00  0.13894223380E+04  0.13894223380E+04  0.00000000000E+00 0. -1.
         21   -1    0    0  503  502  0.00000000000E+00 -0.00000000000E+00 -0.34590535921E+02  0.34590535921E+02  0.00000000000E+00 0.  1.
         24    2    1    2    0    0  0.49507819493E+01  0.26613963968E+02  0.26112179970E+03  0.27814177448E+03  0.91899070264E+02 0.  0.
         23    2    1    2    0    0 -0.88192461532E+02 -0.35293696749E+02  0.66611832659E+03  0.67959610167E+03  0.95465601591E+02 0.  0.
        -13    1    3    3    0    0 -0.41738628080E+02 -0.57929667733E+00  0.11040753411E+03  0.11803504669E+03  0.00000000000E+00 0.  1.
         14    1    3    3    0    0  0.46689410029E+02  0.27193260645E+02  0.15071426559E+03  0.16010672779E+03  0.00000000000E+00 0. -1.
        -13    1    4    4    0    0 -0.35415462311E+02  0.31998491497E+02  0.28790422853E+03  0.29183386239E+03  0.00000000000E+00 0.  1.
         13    1    4    4    0    0 -0.52776999221E+02 -0.67292188246E+02  0.37821409806E+03  0.38776223928E+03  0.00000000000E+00 0. -1.
         21    1    1    2  503  501 -0.30978371206E+02  0.14110879372E+02  0.13391219780E+02  0.36580065150E+02  0.00000000000E+00 0.  1.
          1    1    1    2  501    0  0.11422005079E+03 -0.54311465904E+01  0.41420045600E+03  0.42969493261E+03  0.00000000000E+00 0. -1.
<scales pt_clust_5="13000.00000" pt_clust_6="13000.00000" pt_clust_7="13000.00000" pt_clust_8="13000.00000" pt_clust_9="34.04080" pt_clust_10="13000.00000"></scales>
<clustering>
<clus scale="   34.041">  2  9  1 -1</clus>
<clus scale="   91.899">  5  6 -1 -1</clus>
<clus scale="   95.466">  7  8 -1 -1</clus>
<clus scale="   97.475">  1  5  2 -1</clus>
<clus scale="  102.114">  7 10 -1 -1</clus>
<clus scale="   34.041">  2  5  1 -1</clus>
</clustering>
</event>
<event>
10    4  0.2759992E-005  0.3976280E+03  0.7546771E-02  0.1102313E+00
          2   -1    0    0  503    0 -0.00000000000E+00  0.00000000000E+00  0.19023330779E+04  0.19023330779E+04  0.00000000000E+00 0. -1.
         21   -1    0    0  501  502  0.00000000000E+00 -0.00000000000E+00 -0.59737442198E+02  0.59737442198E+02  0.00000000000E+00 0.  1.
         24    2    1    2    0    0 -0.31582638444E+01 -0.22865522857E+02  0.31038023363E+03  0.32110724894E+03  0.79001070438E+02 0.  0.
         23    2    1    2    0    0 -0.16040250418E+02  0.10763210948E+03  0.31415001308E+03  0.34417423261E+03  0.89015229329E+02 0.  0.
        -13    1    3    3    0    0 -0.12542379505E+00  0.29660201653E+02  0.11612365057E+03  0.11985176475E+03  0.00000000000E+00 0.  1.
         14    1    3    3    0    0 -0.30328400493E+01 -0.52525724510E+02  0.19425658306E+03  0.20125548419E+03  0.00000000000E+00 0. -1.
        -11    1    4    4    0    0  0.24489411089E+02  0.68808110690E+02  0.10696093174E+03  0.12951806156E+03  0.00000000000E+00 0. -1.
         11    1    4    4    0    0 -0.40529661506E+02  0.38823998790E+02  0.20718908134E+03  0.21465617105E+03  0.00000000000E+00 0.  1.
         21    1    1    2  503  502 -0.12699161611E+03  0.10475638813E+03  0.24825312581E+03  0.29787646078E+03  0.00000000000E+00 0.  1.
          1    1    1    2  501    0  0.14619013037E+03 -0.18952297475E+03  0.96981226322E+03  0.99891257779E+03  0.00000000000E+00 0. -1.
<scales pt_clust_5="13000.00000" pt_clust_6="13000.00000" pt_clust_7="13000.00000" pt_clust_8="13000.00000" pt_clust_9="162.57338" pt_clust_10="13000.00000"></scales>
<clustering>
<clus scale="   79.001">  5  6 -1 -1</clus>
<clus scale="   82.304">  1  5  2 -1</clus>
<clus scale="   89.015">  7  8 -1 -1</clus>
<clus scale="  162.573">  2  9  1 -1</clus>
<clus scale="  170.457">  7 10 -1 -1</clus>
<clus scale="  162.573">  2  5  1 -1</clus>
</clustering>
</event>
<event>
10    4  0.2759992E-005  0.2909116E+03  0.7546771E-02  0.1120766E+00
         21   -1    0    0  501  502  0.00000000000E+00  0.00000000000E+00  0.32313779288E+03  0.32313779288E+03  0.00000000000E+00 0.  1.
          4   -1    0    0  503    0 -0.00000000000E+00 -0.00000000000E+00 -0.15794216678E+03  0.15794216678E+03  0.00000000000E+00 0. -1.
         24    2    1    2    0    0  0.42733909920E+02  0.93864371880E+02  0.70013652914E+02  0.14845265173E+03  0.80619915938E+02 0.  0.
         23    2    1    2    0    0  0.47569002104E+02  0.53855602575E+02  0.26014755959E+02  0.11582888407E+03  0.87042098823E+02 0.  0.
        -13    1    3    3    0    0 -0.37522892455E+01  0.66167570055E+02  0.89700891827E+01  0.66878169095E+02  0.00000000000E+00 0.  1.
         14    1    3    3    0    0  0.46486199166E+02  0.27696801825E+02  0.61043563732E+02  0.81574482636E+02  0.00000000000E+00 0. -1.
        -13    1    4    4    0    0  0.46753769058E+02  0.32027053843E+02  0.55375058247E+02  0.79234109920E+02  0.00000000000E+00 0.  1.
         13    1    4    4    0    0  0.81523304658E+00  0.21828548732E+02 -0.29360302288E+02  0.36594774150E+02  0.00000000000E+00 0. -1.
         21    1    1    2  503  502  0.23897258938E+02 -0.97885245717E+01  0.14248556450E+02  0.29494330963E+02  0.00000000000E+00 0.  1.
          3    1    1    2  501    0 -0.11420017096E+03 -0.13793144988E+03  0.54918660769E+02  0.18730409290E+03  0.00000000000E+00 0. -1.
<scales pt_clust_5="13000.00000" pt_clust_6="13000.00000" pt_clust_7="13000.00000" pt_clust_8="13000.00000" pt_clust_9="25.82429" pt_clust_10="13000.00000"></scales>
<clustering>
<clus scale="   25.824">  1  9  2 -1</clus>
<clus scale="   80.620">  5  6 -1 -1</clus>
<clus scale="   87.042">  7  8 -1 -1</clus>
<clus scale="  131.523">  2  5  1 -1</clus>
<clus scale="  117.444">  7 10 -1 -1</clus>
<clus scale="   25.824">  1  5  2 -1</clus>
</clustering>
</event>
<event>
10    4  0.2759992E-005  0.3456002E+03  0.7546771E-02  0.1094674E+00
          2   -1    0    0  503    0 -0.00000000000E+00  0.00000000000E+00  0.90070914820E+03  0.90070914820E+03  0.00000000000E+00 0. -1.
         21   -1    0    0  501  502  0.00000000000E+00 -0.00000000000E+00 -0.55353789475E+03  0.55353789475E+03  0.00000000000E+00 0. -1.
         24    2    1    2    0    0 -0.34442967789E+02  0.12536687904E+03  0.38297249110E+03  0.41237268547E+03  0.80499257089E+02 0.  0.
         23    2    1    2    0    0  0.62730275395E+02 -0.43025610419E+02  0.97353291195E+02  0.15262669209E+03  0.89615585861E+02 0.  0.
        -11    1    3    3    0    0 -0.51406562634E+02  0.12178049251E+03  0.30360002793E+03  0.33112852489E+03  0.00000000000E+00 0.  1.
         12    1    3    3    0    0  0.16963594845E+02  0.35863865307E+01  0.79372463170E+02  0.81244160579E+02  0.00000000000E+00 0. -1.
        -11    1    4    4    0    0  0.27663340639E+02 -0.75275088765E+01 -0.13028431843E+02  0.31490694522E+02  0.00000000000E+00 0.  1.
         11    1    4    4    0    0  0.35066934756E+02 -0.35498101542E+02  0.11038172304E+03  0.12113599757E+03  0.00000000000E+00 0. -1.
         21    1    1    2  503  502  0.10817225222E+02 -0.22435220309E+03 -0.47038019389E+03  0.52125660686E+03  0.00000000000E+00 0. -1.
          1    1    1    2  501    0 -0.39104532828E+02  0.14201093447E+03  0.33722566505E+03  0.36799105854E+03  0.00000000000E+00 0. -1.
<scales pt_clust_5="13000.00000" pt_clust_6="13000.00000" pt_clust_7="13000.00000" pt_clust_8="13000.00000" pt_clust_9="218.20130" pt_clust_10="13000.00000"></scales>
<clustering>
<clus scale="   80.499">  5  6 -1 -1</clus>
<clus scale="   89.616">  7  8 -1 -1</clus>
<clus scale="  147.297">  7 10 -1 -1</clus>
<clus scale="  152.916">  1  5  2 -1</clus>
<clus scale="  218.201">  2  9  1 -1</clus>
<clus scale="  218.201">  2  5  1 -1</clus>
</clustering>
</event>
<event>
10    4  0.2759992E-005  0.2409259E+03  0.7546771E-02  0.1144190E+00
          2   -1    0    0  503    0 -0.00000000000E+00  0.00000000000E+00  0.84559130171E+03  0.84559130171E+03  0.00000000000E+00 0. -1.
         21   -1    0    0  501  502  0.00000000000E+00 -0.00000000000E+00 -0.96369694096E+02  0.96369694096E+02  0.00000000000E+00 0.  1.
         24    2    1    2    0    0  0.94759117351E+01 -0.12090208898E+03  0.88935658561E+02  0.17081271034E+03  0.80995818574E+02 0.  0.
         23    2    1    2    0    0 -0.33299800867E+02 -0.25384458894E+02  0.13029492514E+03  0.16375357257E+03  0.89917837606E+02 0.  0.
        -13    1    3    3    0    0  0.34225328495E+02 -0.99418663326E+02  0.41241401537E+02  0.11294377773E+03  0.00000000000E+00 0.  1.
         14    1    3    3    0    0 -0.24749416760E+02 -0.21483425657E+02  0.47694257024E+02  0.57868932606E+02  0.00000000000E+00 0. -1.
        -13    1    4    4    0    0 -0.54573129729E+02 -0.10574256209E+01  0.39493295330E+02  0.67372583544E+02  0.00000000000E+00 0. -1.
         13    1    4    4    0    0  0.21273328862E+02 -0.24327033273E+02  0.90801629811E+02  0.96380989023E+02  0.00000000000E+00 0.  1.
         21    1    1    2  503  502  0.67466107057E+02  0.51465379804E+02  0.20466763876E+02  0.87288311608E+02  0.00000000000E+00 0.  1.
          1    1    1    2  501    0 -0.43642217925E+02  0.94821168073E+02  0.50952426004E+03  0.52010640129E+03  0.00000000000E+00 0. -1.
<scales pt_clust_5="13000.00000" pt_clust_6="13000.00000" pt_clust_7="13000.00000" pt_clust_8="13000.00000" pt_clust_9="84.85494" pt_clust_10="13000.00000"></scales>
<clustering>
<clus scale="   80.996">  5  6 -1 -1</clus>
<clus scale="   84.855">  2  9  1 -1</clus>
<clus scale="   89.918">  7  8 -1 -1</clus>
<clus scale="  106.169">  7 10 -1 -1</clus>
<clus scale="  130.581">  1  5  2 -1</clus>
<clus scale="   84.855">  2  5  1 -1</clus>
</clustering>
</event>
<event>
10    4  0.2759992E-005  0.2943499E+03  0.7546771E-02  0.1115574E+00
          2   -1    0    0  503    0 -0.00000000000E+00  0.00000000000E+00  0.89698852668E+03  0.89698852668E+03  0.00000000000E+00 0. -1.
         21   -1    0    0  501  502  0.00000000000E+00 -0.00000000000E+00 -0.11335511927E+03  0.11335511927E+03  0.00000000000E+00 0. -1.
         24    2    1    2    0    0 -0.13723314267E+02 -0.13731241810E+03  0.36513879828E+03  0.39844509885E+03  0.79932004049E+02 0.  0.
         23    2    1    2    0    0 -0.44998609124E+01 -0.74002136989E+02  0.10219311241E+03  0.15562378053E+03  0.90987712444E+02 0.  0.
        -13    1    3    3    0    0  0.31954907287E+02 -0.35738175732E+02  0.10180838468E+03  0.11253124231E+03  0.00000000000E+00 0.  1.
         14    1    3    3    0    0 -0.45678221554E+02 -0.10157424237E+03  0.26333041360E+03  0.28591385654E+03  0.00000000000E+00 0. -1.
        -13    1    4    4    0    0 -0.44342577683E+02 -0.50471022169E+02  0.79501148971E+02  0.10408660318E+03  0.00000000000E+00 0.  1.
         13    1    4    4    0    0  0.39842716771E+02 -0.23531114820E+02  0.22691963438E+02  0.51537177349E+02  0.00000000000E+00 0. -1.
         21    1    1    2  503  502 -0.83946669639E+02  0.85421399888E+02  0.24191068190E+02  0.12218455992E+03  0.00000000000E+00 0. -1.
          1    1    1    2  501    0  0.10216984482E+03  0.12589315520E+03  0.29211042854E+03  0.33409020665E+03  0.00000000000E+00 0. -1.
<scales pt_clust_5="13000.00000" pt_clust_6="13000.00000" pt_clust_7="13000.00000" pt_clust_8="13000.00000" pt_clust_9="119.76585" pt_clust_10="13000.00000"></scales>
<clustering>
<clus scale="   79.932">  5  6 -1 -1</clus>
<clus scale="   90.988">  7  8 -1 -1</clus>
<clus scale="  119.766">  2  9  1 -1</clus>
<clus scale="  144.633">  1  5  2 -1</clus>
<clus scale="   91.545">  7 10 -1 -1</clus>
<clus scale="  119.766">  2  5  1 -1</clus>
</clustering>
</event>
<event>
10    4  0.2759992E-005  0.3337381E+03  0.7546771E-02  0.1099122E+00
         -1   -1    0    0    0  501 -0.00000000000E+00  0.00000000000E+00  0.29355934868E+03  0.29355934868E+03  0.00000000000E+00 0.  1.
         21   -1    0    0  501  502  0.00000000000E+00 -0.00000000000E+00 -0.34694405594E+03  0.34694405594E+03  0.00000000000E+00 0.  1.
         24    2    1    2    0    0 -0.18376490172E+02  0.11708844173E+03  0.46051747873E+02  0.15063633053E+03  0.80765970638E+02 0.  0.
         23    2    1    2    0    0  0.34224746883E+02  0.53942419801E+01 -0.96905913325E+02  0.13763899514E+03  0.91396421159E+02 0.  0.
        -13    1    3    3    0    0 -0.41546473569E+02  0.38629435894E+02 -0.53002009930E-01  0.56730464415E+02  0.00000000000E+00 0.  1.
         14    1    3    3    0    0  0.23169983397E+02  0.78459005840E+02  0.46104749883E+02  0.93905866110E+02  0.00000000000E+00 0. -1.
        -13    1    4    4    0    0 -0.23602833633E+02  0.60003894059E+01 -0.69499352980E+02  0.73642776246E+02  0.00000000000E+00 0. -1.
         13    1    4    4    0    0  0.57827580516E+02 -0.60614742586E+00 -0.27406560344E+02  0.63996218896E+02  0.00000000000E+00 0.  1.
         21    1    1    2  503  502 -0.28575657928E+00  0.37140326682E+02 -0.13761498740E+03  0.14253901319E+03  0.00000000000E+00 0.  1.
         -2    1    1    2    0  503 -0.15562500132E+02 -0.15962301040E+03  0.13508444560E+03  0.20968906576E+03  0.00000000000E+00 0.  1.
<scales pt_clust_5="13000.00000" pt_clust_6="13000.00000" pt_clust_7="13000.00000" pt_clust_8="13000.00000" pt_clust_9="37.14143" pt_clust_10="13000.00000"></scales>
<clustering>
<clus scale="   37.141">  2  9  1 -1</clus>
<clus scale="   80.766">  5  6 -1 -1</clus>
<clus scale="   91.396">  7  8 -1 -1</clus>
<clus scale="  151.195">  1  5  2 -1</clus>
<clus scale="   53.591">  7 10 -1 -1</clus>
<clus scale="   37.141">  2  5  1 -1</clus>
</clustering>
</event>
<event>
10    4  0.2759992E-005  0.2889730E+03  0.7546771E-02  0.1138891E+00
         21   -1    0    0  501  502  0.00000000000E+00  0.00000000000E+00  0.15596240148E+03  0.15596240148E+03  0.00000000000E+00 0.  1.
         -1   -1    0    0    0  501 -0.00000000000E+00 -0.00000000000E+00 -0.48151736272E+03  0.48151736272E+03  0.00000000000E+00 0.  1.
         24    2    1    2    0    0  0.12278465902E+02 -0.36143340098E+02 -0.18493852163E+03  0.20365346453E+03  0.76258606545E+02 0.  0.
         23    2    1    2    0    0 -0.11176644963E+03 -0.26042685588E+02 -0.20985579038E+03  0.25621239634E+03  0.91844316909E+02 0.  0.
        -11    1    3    3    0    0  0.17702483639E+02 -0.53518136490E+02 -0.84484772876E+02  0.10156399809E+03  0.00000000000E+00 0.  1.
         12    1    3    3    0    0 -0.54240177374E+01  0.17374796392E+02 -0.10045374876E+03  0.10208946644E+03  0.00000000000E+00 0. -1.
        -13    1    4    4    0    0 -0.47872473935E+02 -0.47405691541E+02 -0.53740774681E+02  0.86180880794E+02  0.00000000000E+00 0. -1.
         13    1    4    4    0    0 -0.63893975694E+02  0.21363005953E+02 -0.15611501570E+03  0.17003151555E+03  0.00000000000E+00 0.  1.
         21    1    1    2  503  502  0.21802696702E+02 -0.63162820126E+01  0.70466869762E+02  0.74032646420E+02  0.00000000000E+00 0.  1.
         -2    1    1    2    0  503  0.77685287025E+02  0.68502307698E+02 -0.12275189867E+01  0.10358125691E+03  0.00000000000E+00 0.  1.
<scales pt_clust_5="13000.00000" pt_clust_6="13000.00000" pt_clust_7="13000.00000" pt_clust_8="13000.00000" pt_clust_9="22.69919" pt_clust_10="13000.00000"></scales>
<clustering>
<clus scale="   22.699">  1  9  2 -1</clus>
<clus scale="   76.259">  5  6 -1 -1</clus>
<clus scale="   85.964">  2  5  1 -1</clus>
<clus scale="   91.844">  7  8 -1 -1</clus>
<clus scale="  109.897">  7 10 -1 -1</clus>
<clus scale="   22.699">  1  5  2 -1</clus>
</clustering>
</event>
<event>
10    4  0.2759992E-005  0.1587985E+03  0.7546771E-02  0.1218335E+00
          2   -1    0    0  503    0 -0.00000000000E+00  0.00000000000E+00  0.41790338096E+03  0.41790338096E+03  0.00000000000E+00 0. -1.
         21   -1    0    0  501  502  0.00000000000E+00 -0.00000000000E+00 -0.90885538142E+02  0.90885538142E+02  0.00000000000E+00 0. -1.
         24    2    1    2    0    0 -0.27956352407E+01  0.35089508827E+02  0.97740184823E+02  0.13205516006E+03  0.81525041334E+02 0.  0.
         23    2    1    2    0    0  0.32973687040E+02 -0.81900158724E+00  0.10362653898E+03  0.14362486479E+03  0.93817415244E+02 0.  0.
        -13    1    3    3    0    0  0.40332512854E+01 -0.21030387426E+02  0.60955679624E+02  0.64607578423E+02  0.00000000000E+00 0.  1.
         14    1    3    3    0    0 -0.68288865260E+01  0.56119896253E+02  0.36784505198E+02  0.67447581642E+02  0.00000000000E+00 0. -1.
        -11    1    4    4    0    0  0.32318388102E+02  0.41013112456E+02  0.80127714705E+02  0.95639972118E+02  0.00000000000E+00 0.  1.
         11    1    4    4    0    0  0.65529893809E+00 -0.41832114043E+02  0.23498824275E+02  0.47984892668E+02  0.00000000000E+00 0. -1.
         21    1    1    2  503  502 -0.13416785053E+02 -0.18148558379E+02 -0.50560528532E+02  0.55369191233E+02  0.00000000000E+00 0. -1.
          1    1    1    2  501    0 -0.16761266747E+02 -0.16121948860E+02  0.17621164755E+03  0.17773970302E+03  0.00000000000E+00 0. -1.
<scales pt_clust_5="13000.00000" pt_clust_6="13000.00000" pt_clust_7="13000.00000" pt_clust_8="13000.00000" pt_clust_9="22.56945" pt_clust_10="13000.00000"></scales>
<clustering>
<clus scale="   22.569">  2  9  1 -1</clus>
<clus scale="   81.525">  5  6 -1 -1</clus>
<clus scale="   86.298">  1  5  2 -1</clus>
<clus scale="   93.817">  7  8 -1 -1</clus>
<clus scale="   22.353">  7 10 -1 -1</clus>
<clus scale="   22.569">  2  5  1 -1</clus>
</clustering>
</event>
<event>
10    4  0.2759992E-005  0.5602706E+03  0.7546771E-02  0.1041510E+00
         21   -1    0    0  501  502  0.00000000000E+00  0.00000000000E+00  0.22594284283E+03  0.22594284283E+03  0.00000000000E+00 0. -1.
          2   -1    0    0  503    0 -0.00000000000E+00 -0.00000000000E+00 -0.77147135277E+03  0.77147135277E+03  0.00000000000E+00 0. -1.
         24    2    1    2    0    0  0.30699445551E+01 -0.11301395763E+03 -0.72625694741E+02  0.15648956721E+03  0.80205448254E+02 0.  0.
         23    2    1    2    0    0 -0.26832815387E+03  0.17022189985E+03 -0.37527050182E+03  0.50029561087E+03  0.92153433879E+02 0.  0.
        -13    1    3    3    0    0  0.19323208614E+02 -0.11921032547E+03 -0.59080080738E+02  0.13444308845E+03  0.00000000000E+00 0.  1.
         14    1    3    3    0    0 -0.16253264059E+02  0.61963678463E+01 -0.13545614003E+02  0.22046478761E+02  0.00000000000E+00 0. -1.
        -13    1    4    4    0    0 -0.16737668352E+03  0.82386301248E+02 -0.15490423688E+03  0.24248253426E+03  0.00000000000E+00 0. -1.
         13    1    4    4    0    0 -0.10095147035E+03  0.87835598605E+02 -0.22036626494E+03  0.25781307661E+03  0.00000000000E+00 0.  1.
         21    1    1    2  503  502  0.64258661385E+02 -0.89967412285E+02 -0.79493915169E+02  0.13617119147E+03  0.00000000000E+00 0.  1.
          1    1    1    2  501    0  0.20099954793E+03  0.32759470060E+02 -0.18138398210E+02  0.20445782605E+03  0.00000000000E+00 0. -1.
<scales pt_clust_5="13000.00000" pt_clust_6="13000.00000" pt_clust_7="13000.00000" pt_clust_8="13000.00000" pt_clust_9="110.55914" pt_clust_10="13000.00000"></scales>
<clustering>
<clus scale="   80.205">  5  6 -1 -1</clus>
<clus scale="   92.153">  7  8 -1 -1</clus>
<clus scale="  110.559">  1  9  2 -1</clus>
<clus scale="  155.447">  2  5  1 -1</clus>
<clus scale="  243.438">  7 10 -1 -1</clus>
<clus scale="  110.559">  1  5  2 -1</clus>
</clustering>
</event>
<event>
10    4  0.2759992E-005  0.1867677E+03  0.7546771E-02  0.1173097E+00
         21   -1    0    0  503  502  0.00000000000E+00  0.00000000000E+00  0.12740639844E+03  0.12740639844E+03  0.00000000000E+00 0.  1.
          2   -1    0    0  502    0 -0.00000000000E+00 -0.00000000000E+00 -0.21637961206E+04  0.21637961206E+04  0.00000000000E+00 0. -1.
         24    2    1    2    0    0  0.87076583452E+02 -0.75381353273E+02 -0.18829409060E+04  0.18882036530E+04  0.81128909334E+02 0.  0.
         23    2    1    2    0    0 -0.88734437265E+02  0.10599803034E+03 -0.24024484604E+03  0.29162356967E+03  0.90649531395E+02 0.  0.
        -13    1    3    3    0    0  0.28164416157E+02 -0.11054964556E+01 -0.14711196952E+03  0.14978781004E+03  0.00000000000E+00 0.  1.
         14    1    3    3    0    0  0.58912167295E+02 -0.74275856817E+02 -0.17358289365E+04  0.17384158430E+04  0.00000000000E+00 0. -1.
        -13    1    4    4    0    0 -0.37411378388E+02  0.43487457085E+02 -0.26698821912E+02  0.63273985556E+02  0.00000000000E+00 0.  1.
         13    1    4    4    0    0 -0.51323058877E+02  0.62510573250E+02 -0.21354602413E+03  0.22834958411E+03  0.00000000000E+00 0. -1.
         21    1    1    2  503  501  0.23313665003E+02 -0.31107898969E+02  0.79538874364E+02  0.88530564718E+02  0.00000000000E+00 0.  1.
          1    1    1    2  501    0 -0.21655811189E+02  0.49122190642E+00  0.72571555333E+01  0.22844731639E+02  0.00000000000E+00 0. -1.
<scales pt_clust_5="13000.00000" pt_clust_6="13000.00000" pt_clust_7="13000.00000" pt_clust_8="13000.00000" pt_clust_9="38.87452" pt_clust_10="13000.00000"></scales>
<clustering>
<clus scale="   38.875">  1  9  2 -1</clus>
<clus scale="   81.129">  5  6 -1 -1</clus>
<clus scale="   90.650">  7  8 -1 -1</clus>
<clus scale="   17.035">  7 10 -1 -1</clus>
<clus scale="  142.769">  2  5  1 -1</clus>
<clus scale="   38.875">  1  5  2 -1</clus>
</clustering>
</event>
<event>
10    4  0.2759992E-005  0.7432703E+03  0.7546771E-02  0.1021630E+00
         21   -1    0    0  503  502  0.00000000000E+00  0.00000000000E+00  0.17956699390E+03  0.17956699390E+03  0.00000000000E+00 0.  1.
         -3   -1    0    0    0  501 -0.00000000000E+00 -0.00000000000E+00 -0.20525160436E+04  0.20525160436E+04  0.00000000000E+00 0.  1.
         24    2    1    2    0    0  0.73287360954E+02  0.48423643383E+02 -0.62307993708E+03  0.63435594911E+03  0.80392634391E+02 0.  0.
         23    2    1    2    0    0  0.17449826252E+03  0.18170659167E+03 -0.10084666289E+04  0.10430796542E+04  0.86852140925E+02 0.  0.
        -13    1    3    3    0    0  0.90968723673E+02  0.42684745756E+02 -0.52526344685E+03  0.53478872913E+03  0.00000000000E+00 0.  1.
         14    1    3    3    0    0 -0.17681362719E+02  0.57388976271E+01 -0.97816490231E+02  0.99567219981E+02  0.00000000000E+00 0. -1.
        -13    1    4    4    0    0  0.84950789766E+02  0.13836128168E+03 -0.71521788444E+03  0.73341468704E+03  0.00000000000E+00 0.  1.
         13    1    4    4    0    0  0.89547472750E+02  0.43345309998E+02 -0.29324874447E+03  0.30966496720E+03  0.00000000000E+00 0. -1.
         21    1    1    2  503  501  0.19065091131E+02  0.74170735666E+01  0.74801819933E+02  0.77548713371E+02  0.00000000000E+00 0.  1.
         -4    1    1    2    0  502 -0.26685071460E+03 -0.23754730862E+03 -0.31620430360E+03  0.47709872074E+03  0.00000000000E+00 0.  1.
<scales pt_clust_5="13000.00000" pt_clust_6="13000.00000" pt_clust_7="13000.00000" pt_clust_8="13000.00000" pt_clust_9="20.45704" pt_clust_10="13000.00000"></scales>
<clustering>
<clus scale="   20.457">  1  9  2 -1</clus>
<clus scale="   80.393">  5  6 -1 -1</clus>
<clus scale="   86.852">  7  8 -1 -1</clus>
<clus scale="  119.882">  2  5  1 -1</clus>
<clus scale="  319.719">  7 10 -1 -1</clus>
<clus scale="   20.457">  1  5  2 -1</clus>
</clustering>
</event>
<event>
10    4  0.2759992E-005  0.2975624E+03  0.7546771E-02  0.1127396E+00
         21   -1    0    0  501  502  0.00000000000E+00  0.00000000000E+00  0.28329304397E+03  0.28329304397E+03  0.00000000000E+00 0. -1.
          2   -1    0    0  503    0 -0.00000000000E+00 -0.00000000000E+00 -0.35335336531E+03  0.35335336531E+03  0.00000000000E+00 0. -1.
         24    2    1    2    0    0  0.29792599062E+02  0.58331324708E+02 -0.20454850123E+03  0.22931153105E+03  0.80333968630E+02 0.  0.
         23    2    1    2    0    0 -0.72954873097E+02  0.87742086858E+02  0.41300062985E+02  0.15208808605E+03  0.91673351639E+02 0.  0.
        -11    1    3    3    0    0 -0.21876789411E+02 -0.79684482370E+00 -0.24327429511E+02  0.32726941550E+02  0.00000000000E+00 0.  1.
         12    1    3    3    0    0  0.51669388473E+02  0.59128169532E+02 -0.18022107172E+03  0.19658458950E+03  0.00000000000E+00 0. -1.
        -13    1    4    4    0    0 -0.45643510597E+02  0.10468356907E+03  0.30897905437E+02  0.11830748181E+03  0.00000000000E+00 0. -1.
         13    1    4    4    0    0 -0.27311362499E+02 -0.16941482209E+02  0.10402157548E+02  0.33780604237E+02  0.00000000000E+00 0.  1.
         21    1    1    2  503  502  0.23222783893E+02  0.32847130615E+01  0.10165529694E+03  0.10432586653E+03  0.00000000000E+00 0. -1.
          1    1    1    2  501    0  0.19939490142E+02 -0.14935812463E+03 -0.84671800365E+01  0.15092092564E+03  0.00000000000E+00 0. -1.
<scales pt_clust_5="13000.00000" pt_clust_6="13000.00000" pt_clust_7="13000.00000" pt_clust_8="13000.00000" pt_clust_9="23.45393" pt_clust_10="13000.00000"></scales>
<clustering>
<clus scale="   23.454">  1  9  2 -1</clus>
<clus scale="   80.334">  5  6 -1 -1</clus>
<clus scale="   91.673">  7  8 -1 -1</clus>
<clus scale="  104.248">  2  5  1 -1</clus>
<clus scale="  122.603">  7 10 -1 -1</clus>
<clus scale="   23.454">  1  5  2 -1</clus>
</clustering>
</event>
<event>
10    4  0.2759992E-005  0.1568592E+03  0.7546771E-02  0.1220235E+00
         21   -1    0    0  501  502  0.00000000000E+00  0.00000000000E+00  0.17342171090E+03  0.17342171090E+03  0.00000000000E+00 0. -1.
          4   -1    0    0  503    0 -0.00000000000E+00 -0.00000000000E+00 -0.28689176441E+03  0.28689176441E+03  0.00000000000E+00 0. -1.
         24    2    1    2    0    0 -0.38465171345E+02 -0.22357921579E+02 -0.16173834946E+03  0.18555453988E+03  0.79320536556E+02 0.  0.
         23    2    1    2    0    0 -0.53189105446E+02 -0.31756118240E+02 -0.50022845068E+02  0.12002251160E+03  0.89808609149E+02 0.  0.
        -11    1    3    3    0    0 -0.15910549595E+01 -0.37873447818E+02 -0.12711589879E+03  0.13264758283E+03  0.00000000000E+00 0.  1.
         12    1    3    3    0    0 -0.36874116386E+02  0.15515526239E+02 -0.34622450670E+02  0.52906957048E+02  0.00000000000E+00 0. -1.
        -11    1    4    4    0    0  0.17639572226E+02 -0.25942716639E+02 -0.35702265118E+02  0.47527158441E+02  0.00000000000E+00 0.  1.
         11    1    4    4    0    0 -0.70828677673E+02 -0.58134016016E+01 -0.14320579950E+02  0.72495353155E+02  0.00000000000E+00 0. -1.
         21    1    1    2  503  502  0.54258748951E+02  0.38346066842E+02  0.92279175217E+02  0.11370962518E+03  0.00000000000E+00 0. -1.
          3    1    1    2  501    0  0.37395527840E+02  0.15767972977E+02  0.60119658028E+01  0.41026798645E+02  0.00000000000E+00 0. -1.
<scales pt_clust_5="13000.00000" pt_clust_6="13000.00000" pt_clust_7="13000.00000" pt_clust_8="13000.00000" pt_clust_9="66.44120" pt_clust_10="13000.00000"></scales>
<clustering>
<clus scale="   66.441">  1  9  2 -1</clus>
<clus scale="   79.321">  5  6 -1 -1</clus>
<clus scale="   86.033">  2  5  1 -1</clus>
<clus scale="   89.809">  7  8 -1 -1</clus>
<clus scale="   49.910">  7 10 -1 -1</clus>
<clus scale="   66.441">  1  5  2 -1</clus>
</clustering>
</event>
<event>
10    4  0.2759992E-005  0.2502373E+03  0.7546771E-02  0.1137193E+00
          2   -1    0    0  502    0 -0.00000000000E+00  0.00000000000E+00  0.10979623861E+04  0.10979623861E+04  0.00000000000E+00 0. -1.
         21   -1    0    0  503  502  0.00000000000E+00 -0.00000000000E+00 -0.66280266452E+02  0.66280266452E+02  0.00000000000E+00 0. -1.
         24    2    1    2    0    0  0.44989511067E+02  0.11106516466E+03  0.65923373088E+03  0.67485870989E+03  0.80533467997E+02 0.  0.
         23    2    1    2    0    0 -0.95942737819E+01  0.39498599319E+02  0.28140225414E+03  0.29838425324E+03  0.90519304633E+02 0.  0.
        -13    1    3    3    0    0 -0.21267677549E+02  0.48506464452E+02  0.26330158358E+03  0.26857571580E+03  0.00000000000E+00 0.  1.
         14    1    3    3    0    0  0.66257188616E+02  0.62558700209E+02  0.39593214731E+03  0.40628299409E+03  0.00000000000E+00 0. -1.
        -13    1    4    4    0    0  0.33049149563E+02 -0.17687254301E+01  0.53729186529E+02  0.63104676226E+02  0.00000000000E+00 0. -1.
         13    1    4    4    0    0 -0.42643423345E+02  0.41267324749E+02  0.22767306761E+03  0.23527957702E+03  0.00000000000E+00 0.  1.
         21    1    1    2  503  501 -0.84563150512E+01 -0.42015533388E+02 -0.55534682091E+01  0.43216377906E+02  0.00000000000E+00 0. -1.
          1    1    1    2  501    0 -0.26938922234E+02 -0.10854823059E+03  0.96599602838E+02  0.14778331152E+03  0.00000000000E+00 0. -1.
<scales pt_clust_5="13000.00000" pt_clust_6="13000.00000" pt_clust_7="13000.00000" pt_clust_8="13000.00000" pt_clust_9="42.85807" pt_clust_10="13000.00000"></scales>
<clustering>
<clus scale="   42.858">  2  9  1 -1</clus>
<clus scale="   80.533">  5  6 -1 -1</clus>
<clus scale="   90.519">  7  8 -1 -1</clus>
<clus scale="  137.938">  1  5  2 -1</clus>
<clus scale="   93.345">  7 10 -1 -1</clus>
<clus scale="   42.858">  2  5  1 -1</clus>
</clustering>
</event>
<event>
10    4  0.2759992E-005  0.1039419E+04  0.7546771E-02  0.1000692E+00
          2   -1    0    0  502    0 -0.00000000000E+00  0.00000000000E+00  0.12650507175E+04  0.12650507175E+04  0.00000000000E+00 0. -1.
         21   -1    0    0  503  502  0.00000000000E+00 -0.00000000000E+00 -0.39162029349E+03  0.39162029349E+03  0.00000000000E+00 0. -1.
         24    2    1    2    0    0  0.19407831234E+02 -0.44981862569E+01  0.12169673531E+03  0.14762612322E+03  0.81157127089E+02 0.  0.
         23    2    1    2    0    0 -0.65531959127E+02  0.15321251646E+02 -0.29104627817E+03  0.31216593787E+03  0.90611579331E+02 0.  0.
        -11    1    3    3    0    0 -0.19910388018E+02 -0.30502874226E+02  0.53368884903E+02  0.64614911304E+02  0.00000000000E+00 0.  1.
         12    1    3    3    0    0  0.39318219252E+02  0.26004687969E+02  0.68327850410E+02  0.83011211912E+02  0.00000000000E+00 0. -1.
        -11    1    4    4    0    0  0.20444401632E+02 -0.87075065340E+00 -0.26203201101E+02  0.33246646639E+02  0.00000000000E+00 0.  1.
         11    1    4    4    0    0 -0.85976360759E+02  0.16192002300E+02 -0.26484307707E+03  0.27891929123E+03  0.00000000000E+00 0. -1.
         21    1    1    2  503  501  0.18005452475E+03  0.18628230765E+03  0.21872553047E+03  0.33905985858E+03  0.00000000000E+00 0.  1.
          1    1    1    2  501    0 -0.13393039686E+03 -0.19710537303E+03  0.82405443642E+03  0.85781909134E+03  0.00000000000E+00 0. -1.
<scales pt_clust_5="13000.00000" pt_clust_6="13000.00000" pt_clust_7="13000.00000" pt_clust_8="13000.00000" pt_clust_9="261.64062" pt_clust_10="13000.00000"></scales>
<clustering>
<clus scale="   81.157">  5  6 -1 -1</clus>
<clus scale="   83.567">  1  5  2 -1</clus>
<clus scale="   90.612">  7  8 -1 -1</clus>
<clus scale="  233.365">  7 10 -1 -1</clus>
<clus scale="  261.641">  2  9  1 -1</clus>
<clus scale="  261.641">  2  5  1 -1</clus>
</clustering>
</event>
<event>
10    4  0.2759992E-005  0.1800332E+03  0.7546771E-02  0.1202852E+00
         -3   -1    0    0    0  501 -0.00000000000E+00  0.00000000000E+00  0.11451344931E+04  0.11451344931E+04  0.00000000000E+00 0.  1.
         21   -1    0    0  501  502  0.00000000000E+00 -0.00000000000E+00 -0.19269260672E+03  0.19269260672E+03  0.00000000000E+00 0.  1.
         24    2    1    2    0    0 -0.11934350810E+02  0.19600250098E+01  0.82198000891E+03  0.82614172029E+03  0.81931291480E+02 0.  0.
         23    2    1    2    0    0 -0.55744594215E+02 -0.42735017985E+02  0.28677709241E+03  0.31379711115E+03  0.10627221974E+03 0.  0.
        -11    1    3    3    0    0  0.52510267940E+01  0.26679322314E+02  0.10290755079E+03  0.10643929505E+03  0.00000000000E+00 0.  1.
         12    1    3    3    0    0 -0.17185377604E+02 -0.24719297304E+02  0.71907245812E+03  0.71970242524E+03  0.00000000000E+00 0. -1.
        -11    1    4    4    0    0 -0.76353083518E+02 -0.61004538583E+02  0.24484726946E+03  0.26363143297E+03  0.00000000000E+00 0.  1.
         11    1    4    4    0    0  0.20608489304E+02  0.18269520598E+02  0.41929822955E+02  0.50165678181E+02  0.00000000000E+00 0. -1.
         21    1    1    2  503  502  0.51868514968E+02  0.15633625029E+02 -0.15908886273E+03  0.16805957075E+03  0.00000000000E+00 0.  1.
         -4    1    1    2    0  503  0.15810430057E+02  0.25141367945E+02  0.27736477871E+01  0.29828697638E+02  0.00000000000E+00 0.  1.
<scales pt_clust_5="13000.00000" pt_clust_6="13000.00000" pt_clust_7="13000.00000" pt_clust_8="13000.00000" pt_clust_9="54.17336" pt_clust_10="13000.00000"></scales>
<clustering>
<clus scale="   54.173">  2  9  1 -1</clus>
<clus scale="   81.931">  5  6 -1 -1</clus>
<clus scale="   82.401">  1  5  2 -1</clus>
<clus scale="  106.272">  7  8 -1 -1</clus>
<clus scale="   50.580">  7 10 -1 -1</clus>
<clus scale="   54.173">  2  5  1 -1</clus>
</clustering>
</event>
<event>
10    4  0.2759992E-005  0.2675081E+03  0.7546771E-02  0.1118247E+00
         -3   -1    0    0    0  501 -0.00000000000E+00  0.00000000000E+00  0.48828830381E+03  0.48828830381E+03  0.00000000000E+00 0.  1.
         21   -1    0    0  503  502  0.00000000000E+00 -0.00000000000E+00 -0.14562531171E+03  0.14562531171E+03  0.00000000000E+00 0. -1.
         24    2    1    2    0    0  0.16594334583E+03  0.25028826043E+02  0.27042562879E+03  0.32827286615E+03  0.80432691014E+02 0.  0.
         23    2    1    2    0    0 -0.50410641447E+02  0.37884217252E+02 -0.33841092262E+02  0.11146183538E+03  0.85452176873E+02 0.  0.
        -11    1    3    3    0    0  0.35800983815E+02  0.29237184276E+02  0.12395265158E+03  0.13229052581E+03  0.00000000000E+00 0.  1.
         12    1    3    3    0    0  0.13014236202E+03 -0.42083582329E+01  0.14647297722E+03  0.19598234034E+03  0.00000000000E+00 0. -1.
        -11    1    4    4    0    0  0.80099714292E+01 -0.20096413556E+02 -0.16840337625E+02  0.27415733648E+02  0.00000000000E+00 0.  1.
         11    1    4    4    0    0 -0.58420612877E+02  0.57980630808E+02 -0.17000754637E+02  0.84046101730E+02  0.00000000000E+00 0. -1.
         21    1    1    2  503  501 -0.25303791878E+02 -0.16716006785E+02 -0.16971640419E+02  0.34752601986E+02  0.00000000000E+00 0.  1.
         -4    1    1    2    0  502 -0.90228912508E+02 -0.46197036509E+02  0.12305009600E+03  0.15942631200E+03  0.00000000000E+00 0.  1.
<scales pt_clust_5="13000.00000" pt_clust_6="13000.00000" pt_clust_7="13000.00000" pt_clust_8="13000.00000" pt_clust_9="30.32667" pt_clust_10="13000.00000"></scales>
<clustering>
<clus scale="   30.327">  2  9  1 -1</clus>
<clus scale="   80.433">  5  6 -1 -1</clus>
<clus scale="   85.452">  7  8 -1 -1</clus>
<clus scale="  105.947">  7 10 -1 -1</clus>
<clus scale="  180.157">  1  5  2 -1</clus>
<clus scale="   30.327">  2  5  1 -1</clus>
</clustering>
</event>
<event>
10    4  0.2759992E-005  0.1779661E+03  0.7546771E-02  0.1205674E+00
         21   -1    0    0  503  502  0.00000000000E+00  0.00000000000E+00  0.17275069876E+03  0.17275069876E+03  0.00000000000E+00 0.  1.
          2   -1    0    0  502    0 -0.00000000000E+00 -0.00000000000E+00 -0.27872809224E+03  0.27872809224E+03  0.00000000000E+00 0. -1.
         24    2    1    2    0    0 -0.31748611187E+01 -0.37775294499E+01 -0.19670923511E+03  0.21246323374E+03  0.80135841204E+02 0.  0.
         23    2    1    2    0    0  0.17145836277E+02  0.32434562094E+02  0.80542737733E+02  0.12564804995E+03  0.89186990839E+02 0.  0.
        -11    1    3    3    0    0  0.18465998844E+02 -0.33236894565E+02 -0.60680528191E+02  0.71608733930E+02  0.00000000000E+00 0.  1.
         12    1    3    3    0    0 -0.21640859963E+02  0.29459365115E+02 -0.13602870691E+03  0.14085449981E+03  0.00000000000E+00 0. -1.
        -13    1    4    4    0    0 -0.13329933682E+01 -0.28026132327E+02  0.74963861542E+01  0.29041982885E+02  0.00000000000E+00 0. -1.
         13    1    4    4    0    0  0.18478829645E+02  0.60460694421E+02  0.73046351579E+02  0.96606067065E+02  0.00000000000E+00 0.  1.
         21    1    1    2  503  501  0.20724974376E+02 -0.71097909702E+01  0.51075373645E+02  0.55576681112E+02  0.00000000000E+00 0.  1.
          1    1    1    2  501    0 -0.34695949534E+02 -0.21547241674E+02 -0.40886269750E+02  0.57790826191E+02  0.00000000000E+00 0. -1.
<scales pt_clust_5="13000.00000" pt_clust_6="13000.00000" pt_clust_7="13000.00000" pt_clust_8="13000.00000" pt_clust_9="21.91058" pt_clust_10="13000.00000"></scales>
<clustering>
<clus scale="   21.911">  1  9  2 -1</clus>
<clus scale="   80.136">  5  6 -1 -1</clus>
<clus scale="   80.269">  2  5  1 -1</clus>
<clus scale="   89.187">  7  8 -1 -1</clus>
<clus scale="   42.374">  7 10 -1 -1</clus>
<clus scale="   21.911">  1  5  2 -1</clus>
</clustering>
</event>
<event>
10    4  0.2759992E-005  0.4447467E+03  0.7546771E-02  0.1082401E+00
         21   -1    0    0  503  502  0.00000000000E+00  0.00000000000E+00  0.10460821177E+03  0.10460821177E+03  0.00000000000E+00 0. -1.
          2   -1    0    0  502    0 -0.00000000000E+00 -0.00000000000E+00 -0.14554809296E+04  0.14554809296E+04  0.00000000000E+00 0. -1.
         24    2    1    2    0    0 -0.49318642505E+02  0.37235633774E+02 -0.36286320020E+03  0.37621607031E+03  0.77781801073E+02 0.  0.
         23    2    1    2    0    0 -0.13870001407E+03 -0.98876375722E+02 -0.74418118764E+03  0.76882742423E+03  0.90971075810E+02 0.  0.
        -13    1    3    3    0    0 -0.20817155872E+02  0.47094208602E+02 -0.10879632609E+03  0.12036552261E+03  0.00000000000E+00 0.  1.
         14    1    3    3    0    0 -0.28501486632E+02 -0.98585748278E+01 -0.25406687411E+03  0.25585054770E+03  0.00000000000E+00 0. -1.
        -13    1    4    4    0    0 -0.27362429762E+02 -0.59437652739E+02 -0.39050237857E+03  0.39594651759E+03  0.00000000000E+00 0.  1.
         13    1    4    4    0    0 -0.11133758430E+03 -0.39438722983E+02 -0.35367880907E+03  0.37288090663E+03  0.00000000000E+00 0. -1.
         21    1    1    2  503  501  0.47818638894E+01  0.12996516505E+03 -0.48941243907E+02  0.13895702826E+03  0.00000000000E+00 0. -1.
          1    1    1    2  501    0  0.18323679268E+03 -0.68324423103E+02 -0.19488708609E+03  0.27608861858E+03  0.00000000000E+00 0. -1.
<scales pt_clust_5="13000.00000" pt_clust_6="13000.00000" pt_clust_7="13000.00000" pt_clust_8="13000.00000" pt_clust_9="133.18757" pt_clust_10="13000.00000"></scales>
<clustering>
<clus scale="   77.782">  5  6 -1 -1</clus>
<clus scale="   90.971">  7  8 -1 -1</clus>
<clus scale="   99.342">  2  5  1 -1</clus>
<clus scale="  133.188">  1  9  2 -1</clus>
<clus scale="  175.032">  7 10 -1 -1</clus>
<clus scale="  133.188">  1  5  2 -1</clus>
</clustering>
</event>
<event>
10    4  0.2759992E-005  0.2090024E+03  0.7546771E-02  0.1180138E+00
          2   -1    0    0  503    0 -0.00000000000E+00  0.00000000000E+00  0.85976090010E+03  0.85976090010E+03  0.00000000000E+00 0. -1.
         21   -1    0    0  501  502  0.00000000000E+00 -0.00000000000E+00 -0.53939687269E+02  0.53939687269E+02  0.00000000000E+00 0. -1.
         24    2    1    2    0    0 -0.17993849735E+02 -0.28908593563E+02  0.55802664326E+03  0.56487426428E+03  0.80806648505E+02 0.  0.
         23    2    1    2    0    0 -0.26138803219E+02 -0.12264857798E+02  0.23018434562E+03  0.25148757613E+03  0.97095335664E+02 0.  0.
        -13    1    3    3    0    0 -0.18436538094E+01  0.20516810804E+02  0.48392720846E+02  0.52594619647E+02  0.00000000000E+00 0.  1.
         14    1    3    3    0    0 -0.16150195925E+02 -0.49425404367E+02  0.50963392241E+03  0.51227964463E+03  0.00000000000E+00 0. -1.
        -11    1    4    4    0    0 -0.42035364216E+02  0.18968545911E+02  0.50382535726E+02  0.68302104542E+02  0.00000000000E+00 0. -1.
         11    1    4    4    0    0  0.15896560997E+02 -0.31233403709E+02  0.17980180990E+03  0.18318547159E+03  0.00000000000E+00 0.  1.
         21    1    1    2  503  502 -0.48527843114E+01  0.36613517257E+02  0.28859451170E+02  0.46871815448E+02  0.00000000000E+00 0.  1.
          1    1    1    2  501    0  0.48985437265E+02  0.45599341036E+01 -0.11249227226E+02  0.50466931512E+02  0.00000000000E+00 0. -1.
<scales pt_clust_5="13000.00000" pt_clust_6="13000.00000" pt_clust_7="13000.00000" pt_clust_8="13000.00000" pt_clust_9="36.93371" pt_clust_10="13000.00000"></scales>
<clustering>
<clus scale="   36.934">  2  9  1 -1</clus>
<clus scale="   80.807">  5  6 -1 -1</clus>
<clus scale="   86.886">  1  5  2 -1</clus>
<clus scale="   97.095">  7  8 -1 -1</clus>
<clus scale="   49.374">  7 10 -1 -1</clus>
<clus scale="   36.934">  2  5  1 -1</clus>
</clustering>
</event>
<event>
10    4  0.2759992E-005  0.2833598E+03  0.7546771E-02  0.1117859E+00
         21   -1    0    0  501  502  0.00000000000E+00  0.00000000000E+00  0.58223699518E+03  0.58223699518E+03  0.00000000000E+00 0. -1.
          4   -1    0    0  503    0 -0.00000000000E+00 -0.00000000000E+00 -0.19725139934E+03  0.19725139934E+03  0.00000000000E+00 0. -1.
         24    2    1    2    0    0  0.67704307001E+02 -0.10775776827E+03 -0.15484595619E+02  0.15130828436E+03  0.80366749384E+02 0.  0.
         23    2    1    2    0    0  0.77062587448E+02  0.76551779021E+01  0.36052779876E+01  0.12126352669E+03  0.93244842984E+02 0.  0.
        -13    1    3    3    0    0 -0.14245653550E+02 -0.42522211999E+02  0.29987693956E+01  0.44945186352E+02  0.00000000000E+00 0.  1.
         14    1    3    3    0    0  0.81949960551E+02 -0.65235556272E+02 -0.18483365015E+02  0.10636309801E+03  0.00000000000E+00 0. -1.
        -13    1    4    4    0    0  0.26195715575E+02  0.25576985327E+02 -0.38285934651E+02  0.52973677285E+02  0.00000000000E+00 0.  1.
         13    1    4    4    0    0  0.50866871873E+02 -0.17921807425E+02  0.41891212639E+02  0.68289849406E+02  0.00000000000E+00 0. -1.
         21    1    1    2  503  502 -0.75912047805E+02 -0.52604877564E+02  0.29893793378E+03  0.31287984978E+03  0.00000000000E+00 0. -1.
          3    1    1    2  501    0 -0.68854846643E+02  0.15270746793E+03  0.97926979698E+02  0.19403673369E+03  0.00000000000E+00 0. -1.
<scales pt_clust_5="13000.00000" pt_clust_6="13000.00000" pt_clust_7="13000.00000" pt_clust_8="13000.00000" pt_clust_9="92.35752" pt_clust_10="13000.00000"></scales>
<clustering>
<clus scale="   80.367">  5  6 -1 -1</clus>
<clus scale="   92.358">  1  9  2 -1</clus>
<clus scale="   93.245">  7  8 -1 -1</clus>
<clus scale="  153.068">  2  5  1 -1</clus>
<clus scale="  108.368">  7 10 -1 -1</clus>
<clus scale="   92.358">  1  5  2 -1</clus>
</clustering>
</event>
<event>
10    4  0.2759992E-005  0.1874517E+03  0.7546771E-02  0.1189918E+00
         21   -1    0    0  501  502  0.00000000000E+00  0.00000000000E+00  0.88210333827E+02  0.88210333827E+02  0.00000000000E+00 0. -1.
         -1   -1    0    0    0  501 -0.00000000000E+00 -0.00000000000E+00 -0.63740004135E+03  0.63740004135E+03  0.00000000000E+00 0.  1.
         24    2    1    2    0    0 -0.29432731607E+02 -0.42063048897E+02 -0.37699547146E+03  0.38914020074E+03  0.81663483627E+02 0.  0.
         23    2    1    2    0    0  0.75044756077E+02 -0.33558126122E+02 -0.81720469366E+02  0.14740014267E+03  0.91053301440E+02 0.  0.
        -11    1    3    3    0    0 -0.56596468636E+02 -0.19328714100E+02 -0.26552888164E+03  0.27218072385E+03  0.00000000000E+00 0.  1.
         12    1    3    3    0    0  0.27163737029E+02 -0.22734334797E+02 -0.11146658982E+03  0.11695947689E+03  0.00000000000E+00 0. -1.
        -13    1    4    4    0    0 -0.14848462806E+02  0.14032234885E+02 -0.87809971293E+01  0.22237049583E+02  0.00000000000E+00 0.  1.
         13    1    4    4    0    0  0.89893218882E+02 -0.47590361007E+02 -0.72939472237E+02  0.12516309309E+03  0.00000000000E+00 0. -1.
         21    1    1    2  503  502 -0.37672056704E+02  0.23041114614E+02  0.32672978442E+02  0.54932689168E+02  0.00000000000E+00 0. -1.
         -2    1    1    2    0  503 -0.79399677663E+01  0.52580060405E+02 -0.12314674514E+03  0.13413734260E+03  0.00000000000E+00 0.  1.
<scales pt_clust_5="13000.00000" pt_clust_6="13000.00000" pt_clust_7="13000.00000" pt_clust_8="13000.00000" pt_clust_9="44.15967" pt_clust_10="13000.00000"></scales>
<clustering>
<clus scale="   44.160">  1  9  2 -1</clus>
<clus scale="   81.663">  5  6 -1 -1</clus>
<clus scale="   91.053">  7  8 -1 -1</clus>
<clus scale="   56.846">  7 10 -1 -1</clus>
<clus scale="   96.846">  2  5  1 -1</clus>
<clus scale="   44.160">  1  5  2 -1</clus>
</clustering>
</event>
<event>
10    4  0.2759992E-005  0.2545296E+03  0.7546771E-02  0.1117989E+00
         21   -1    0    0  503  502  0.00000000000E+00  0.00000000000E+00  0.40959278514E+03  0.40959278514E+03  0.00000000000E+00 0.  1.
          2   -1    0    0  502    0 -0.00000000000E+00 -0.00000000000E+00 -0.96970421845E+03  0.96970421845E+03  0.00000000000E+00 0. -1.
         24    2    1    2    0    0  0.19197818168E+03  0.21971477194E+02 -0.75433969873E+03  0.78256061497E+03  0.77681188069E+02 0.  0.
         23    2    1    2    0    0 -0.13422280873E+03  0.16529129541E+03  0.50515566356E+02  0.23694743676E+03  0.90858629862E+02 0.  0.
        -13    1    3    3    0    0  0.17127376857E+03 -0.66294038612E+01 -0.58572867109E+03  0.61029233071E+03  0.00000000000E+00 0.  1.
         14    1    3    3    0    0  0.20704413108E+02  0.28600881055E+02 -0.16861102764E+03  0.17226828426E+03  0.00000000000E+00 0. -1.
        -13    1    4    4    0    0 -0.10498782669E+02  0.51086296597E+02 -0.17989168958E+02  0.55169233612E+02  0.00000000000E+00 0. -1.
         13    1    4    4    0    0 -0.12372402606E+03  0.11420499881E+03  0.68504735314E+02  0.18177820315E+03  0.00000000000E+00 0.  1.
         21    1    1    2  503  501  0.53467368111E+02 -0.20014862268E+03  0.13545050996E+03  0.24751782009E+03  0.00000000000E+00 0.  1.
          1    1    1    2  501    0 -0.11122274106E+03  0.12885850080E+02  0.82621890894E+01  0.11227113177E+03  0.00000000000E+00 0. -1.
<scales pt_clust_5="13000.00000" pt_clust_6="13000.00000" pt_clust_7="13000.00000" pt_clust_8="13000.00000" pt_clust_9="207.16716" pt_clust_10="13000.00000"></scales>
<clustering>
<clus scale="   77.681">  5  6 -1 -1</clus>
<clus scale="   90.859">  7  8 -1 -1</clus>
<clus scale="  111.967">  7 10 -1 -1</clus>
<clus scale="  207.167">  1  9  2 -1</clus>
<clus scale="  210.503">  2  5  1 -1</clus>
<clus scale="  207.167">  1  5  2 -1</clus>
</clustering>
</event>
<event>
10    4  0.2759992E-005  0.2482638E+03  0.7546771E-02  0.1147552E+00
         21   -1    0    0  501  502  0.00000000000E+00  0.00000000000E+00  0.22991489229E+03  0.22991489229E+03  0.00000000000E+00 0.  1.
          2   -1    0    0  503    0 -0.00000000000E+00 -0.00000000000E+00 -0.77667635299E+03  0.77667635299E+03  0.00000000000E+00 0. -1.
         24    2    1    2    0    0  0.79510856331E+01 -0.99818706073E+02 -0.25175245882E+03  0.28276642533E+03  0.80935510918E+02 0.  0.
         23    2    1    2    0    0  0.66804249816E+02  0.38305150933E+02 -0.26325696853E+03  0.28900968835E+03  0.91061935496E+02 0.  0.
        -11    1    3    3    0    0  0.61954237506E+01 -0.64415935562E+02 -0.61619143165E+02  0.89357231572E+02  0.00000000000E+00 0.  1.
         12    1    3    3    0    0  0.17556618825E+01 -0.35402770511E+02 -0.19013331565E+03  0.19340919376E+03  0.00000000000E+00 0. -1.
        -11    1    4    4    0    0  0.61652136578E+02 -0.15794549848E+02 -0.12081435100E+03  0.13655241176E+03  0.00000000000E+00 0.  1.
         11    1    4    4    0    0  0.51521132384E+01  0.54099700781E+02 -0.14244261753E+03  0.15245727659E+03  0.00000000000E+00 0. -1.
         21    1    1    2  503  502  0.45151127133E+02  0.84283379750E+02  0.17229746935E+03  0.19705007061E+03  0.00000000000E+00 0.  1.
          1    1    1    2  501    0 -0.11990646258E+03 -0.22769824611E+02 -0.20404950270E+03  0.23776506100E+03  0.00000000000E+00 0. -1.
<scales pt_clust_5="13000.00000" pt_clust_6="13000.00000" pt_clust_7="13000.00000" pt_clust_8="13000.00000" pt_clust_9="95.61544" pt_clust_10="13000.00000"></scales>
<clustering>
<clus scale="   80.936">  5  6 -1 -1</clus>
<clus scale="   91.062">  7  8 -1 -1</clus>
<clus scale="   95.615">  1  9  2 -1</clus>
<clus scale="  103.443">  7 10 -1 -1</clus>
<clus scale="  110.138">  2  5  1 -1</clus>
<clus scale="   95.615">  1  5  2 -1</clus>
</clustering>
</event>
<event>
10    4  0.2759992E-005  0.5486277E+03  0.7546771E-02  0.1053322E+00
         21   -1    0    0  503  502  0.00000000000E+00  0.00000000000E+00  0.90616704343E+02  0.90616704343E+02  0.00000000000E+00 0.  1.
          4   -1    0    0  502    0 -0.00000000000E+00 -0.00000000000E+00 -0.14549030709E+04  0.14549030709E+04  0.00000000000E+00 0. -1.
         24    2    1    2    0    0  0.85898678799E+02 -0.19884196516E+02 -0.43242442470E+03  0.44866354974E+03  0.80833987299E+02 0.  0.
         23    2    1    2    0    0  0.12917002628E+03 -0.19467383093E+03 -0.38871693565E+03  0.46676637332E+03  0.11039562973E+03 0.  0.
        -13    1    3    3    0    0  0.36800238028E+02 -0.46285484547E+02 -0.15960371266E+03  0.17020560712E+03  0.00000000000E+00 0.  1.
         14    1    3    3    0    0  0.49098440771E+02  0.26401288031E+02 -0.27282071204E+03  0.27845794263E+03  0.00000000000E+00 0. -1.
        -13    1    4    4    0    0  0.12087575150E+03 -0.17279650469E+03 -0.25444922588E+03  0.33047539679E+03  0.00000000000E+00 0.  1.
         13    1    4    4    0    0  0.82942747865E+01 -0.21877326248E+02 -0.13426770976E+03  0.13629097653E+03  0.00000000000E+00 0. -1.
         21    1    1    2  503  501 -0.22162488745E+02  0.48268401264E+01 -0.84533171887E+01  0.24206050163E+02  0.00000000000E+00 0.  1.
          3    1    1    2  501    0 -0.19290621634E+03  0.20973118732E+03 -0.53469168905E+03  0.60588380204E+03  0.00000000000E+00 0. -1.
<scales pt_clust_5="13000.00000" pt_clust_6="13000.00000" pt_clust_7="13000.00000" pt_clust_8="13000.00000" pt_clust_9="22.68203" pt_clust_10="13000.00000"></scales>
<clustering>
<clus scale="   22.682">  1  9  2 -1</clus>
<clus scale="   80.834">  5  6 -1 -1</clus>
<clus scale="  110.396">  7  8 -1 -1</clus>
<clus scale="  117.985">  2  5  1 -1</clus>
<clus scale="  251.838">  7 10 -1 -1</clus>
<clus scale="   22.682">  1  5  2 -1</clus>
</clustering>
</event>
<event>
10    4  0.2759992E-005  0.2685797E+03  0.7546771E-02  0.1116216E+00
         21   -1    0    0  501  502  0.00000000000E+00  0.00000000000E+00  0.43595584170E+03  0.43595584170E+03  0.00000000000E+00 0.  1.
         -1   -1    0    0    0  501 -0.00000000000E+00 -0.00000000000E+00 -0.42540949943E+03  0.42540949943E+03  0.00000000000E+00 0.  1.
         24    2    1    2    0    0 -0.17127890513E+03 -0.24081996500E+02  0.34180999582E+03  0.39121542529E+03  0.79366427692E+02 0.  0.
         23    2    1    2    0    0  0.39985237774E+02  0.12490903054E+02 -0.27537411226E+03  0.29283875280E+03  0.90381367228E+02 0.  0.
        -13    1    3    3    0    0 -0.17005442469E+03 -0.33048794914E+02  0.34054766213E+03  0.38207779362E+03  0.00000000000E+00 0.  1.
         14    1    3    3    0    0 -0.12244804399E+01  0.89667984147E+01  0.12623336990E+01  0.91376316694E+01  0.00000000000E+00 0. -1.
        -13    1    4    4    0    0  0.42701167649E+02 -0.30631541027E+02 -0.19027634359E+03  0.19740002015E+03  0.00000000000E+00 0.  1.
         13    1    4    4    0    0 -0.27159298746E+01  0.43122444080E+02 -0.85097768670E+02  0.95438732657E+02  0.00000000000E+00 0. -1.
         21    1    1    2  503  502  0.85651504473E+01 -0.23323149462E+02  0.17240831050E+02  0.30241980066E+02  0.00000000000E+00 0.  1.
         -2    1    1    2    0  503  0.12272851691E+03  0.34914242908E+02 -0.73130372348E+02  0.14706918297E+03  0.00000000000E+00 0.  1.
<scales pt_clust_5="13000.00000" pt_clust_6="13000.00000" pt_clust_7="13000.00000" pt_clust_8="13000.00000" pt_clust_9="24.84615" pt_clust_10="13000.00000"></scales>
<clustering>
<clus scale="   24.846">  1  9  2 -1</clus>
<clus scale="   79.366">  5  6 -1 -1</clus>
<clus scale="   90.381">  7  8 -1 -1</clus>
<clus scale="  127.784">  7 10 -1 -1</clus>
<clus scale="  187.333">  2  5  1 -1</clus>
<clus scale="   24.846">  1  5  2 -1</clus>
</clustering>
</event>
<event>
10    4  0.2759992E-005  0.1682290E+03  0.7546771E-02  0.1200824E+00
          2   -1    0    0  503    0 -0.00000000000E+00  0.00000000000E+00  0.81039511835E+03  0.81039511835E+03  0.00000000000E+00 0. -1.
         21   -1    0    0  501  502  0.00000000000E+00 -0.00000000000E+00 -0.21058640863E+03  0.21058640863E+03  0.00000000000E+00 0.  1.
         24    2    1    2    0    0  0.69825234383E+02  0.74340105767E+01  0.68526347168E+03  0.69352848057E+03  0.80404601063E+02 0.  0.
         23    2    1    2    0    0 -0.79685617122E+02  0.32951032983E+02  0.47479536446E+02  0.13449460082E+03  0.91645638841E+02 0.  0.
        -13    1    3    3    0    0 -0.15689376428E+02  0.12874508025E+02  0.10144385734E+03  0.10345417189E+03  0.00000000000E+00 0.  1.
         14    1    3    3    0    0  0.85514610810E+02 -0.54404974484E+01  0.58381961434E+03  0.59007430868E+03  0.00000000000E+00 0. -1.
        -13    1    4    4    0    0 -0.25327965543E+01  0.45051597890E+02  0.30813741169E+02  0.54640169982E+02  0.00000000000E+00 0. -1.
         13    1    4    4    0    0 -0.77152820568E+02 -0.12100564908E+02  0.16665795277E+02  0.79854430841E+02  0.00000000000E+00 0.  1.
         21    1    1    2  503  502 -0.24354759052E+02 -0.29440436372E+02 -0.14884412011E+03  0.15366998950E+03  0.00000000000E+00 0.  1.
          1    1    1    2  501    0  0.34215141792E+02 -0.10944607187E+02  0.15909821700E+02  0.39288456076E+02  0.00000000000E+00 0. -1.
<scales pt_clust_5="13000.00000" pt_clust_6="13000.00000" pt_clust_7="13000.00000" pt_clust_8="13000.00000" pt_clust_9="38.20855" pt_clust_10="13000.00000"></scales>
<clustering>
<clus scale="   38.209">  2  9  1 -1</clus>
<clus scale="   80.405">  5  6 -1 -1</clus>
<clus scale="   91.646">  7  8 -1 -1</clus>
<clus scale="   33.849">  7 10 -1 -1</clus>
<clus scale="  105.524">  1  5  2 -1</clus>
<clus scale="   38.209">  2  5  1 -1</clus>
</clustering>
</event>
<event>
10    4  0.2759992E-005  0.4780946E+03  0.7546771E-02  0.1059625E+00
          2   -1    0    0  503    0 -0.00000000000E+00  0.00000000000E+00  0.45079030549E+03  0.45079030549E+03  0.00000000000E+00 0. -1.
         21   -1    0    0  501  502  0.00000000000E+00 -0.00000000000E+00 -0.29115831562E+03  0.29115831562E+03  0.00000000000E+00 0. -1.
         24    2    1    2    0    0  0.35773694100E+02 -0.13659428836E+03  0.11211313757E+02  0.16229988336E+03  0.79232580290E+02 0.  0.
         23    2    1    2    0    0 -0.39484392847E+02 -0.16873087884E+03  0.15308767199E+03  0.24922198880E+03  0.92987298232E+02 0.  0.
        -13    1    3    3    0    0 -0.20838231974E+02 -0.27725471247E+02  0.18625022404E+02  0.39367818421E+02  0.00000000000E+00 0.  1.
         14    1    3    3    0    0  0.56611926074E+02 -0.10886881712E+03 -0.74137086472E+01  0.12293206494E+03  0.00000000000E+00 0. -1.
        -13    1    4    4    0    0 -0.60692033219E+02 -0.12137819284E+03  0.14150329005E+03  0.19605960748E+03  0.00000000000E+00 0. -1.
         13    1    4    4    0    0  0.21207640371E+02 -0.47352686003E+02  0.11584381939E+02  0.53162381312E+02  0.00000000000E+00 0.  1.
         21    1    1    2  503  502  0.19415760582E+01  0.47406823862E+02 -0.49575982721E+02  0.68621824000E+02  0.00000000000E+00 0. -1.
          1    1    1    2  501    0  0.17691226892E+01  0.25791834334E+03  0.44908986848E+02  0.26180492495E+03  0.00000000000E+00 0. -1.
<scales pt_clust_5="13000.00000" pt_clust_6="13000.00000" pt_clust_7="13000.00000" pt_clust_8="13000.00000" pt_clust_9="47.44657" pt_clust_10="13000.00000"></scales>
<clustering>
<clus scale="   47.447">  2  9  1 -1</clus>
<clus scale="   79.233">  5  6 -1 -1</clus>
<clus scale="   92.987">  7  8 -1 -1</clus>
<clus scale="  149.276">  1  5  2 -1</clus>
<clus scale="  221.094">  7 10 -1 -1</clus>
<clus scale="   47.447">  2  5  1 -1</clus>
</clustering>
</event>
<event>
10    4  0.2759992E-005  0.1263780E+03  0.7546771E-02  0.1253274E+00
         21   -1    0    0  503  502  0.00000000000E+00  0.00000000000E+00  0.74482708563E+02  0.74482708563E+02  0.00000000000E+00 0. -1.
          2   -1    0    0  502    0 -0.00000000000E+00 -0.00000000000E+00 -0.49090482608E+03  0.49090482608E+03  0.00000000000E+00 0. -1.
         24    2    1    2    0    0  0.17063793761E+01 -0.25749859747E+02 -0.30544590881E+03  0.31695750458E+03  0.80615690102E+02 0.  0.
         23    2    1    2    0    0  0.40188852145E+02  0.22031542637E+02 -0.11654780127E+03  0.15465321681E+03  0.90739708942E+02 0.  0.
        -11    1    3    3    0    0 -0.23261384551E+02  0.15076743373E+02 -0.50963520832E+02  0.58014486618E+02  0.00000000000E+00 0.  1.
         12    1    3    3    0    0  0.24967763928E+02 -0.40826603121E+02 -0.25448238798E+03  0.25894301796E+03  0.00000000000E+00 0. -1.
        -13    1    4    4    0    0 -0.13397943193E+01 -0.30099774881E+02 -0.16258897059E+02  0.34236577374E+02  0.00000000000E+00 0. -1.
         13    1    4    4    0    0  0.41528646465E+02  0.52131317518E+02 -0.10028890422E+03  0.12041663943E+03  0.00000000000E+00 0.  1.
         21    1    1    2  503  501 -0.20789699088E+02  0.15160734767E+02  0.42528567400E+02  0.49706523837E+02  0.00000000000E+00 0. -1.
          1    1    1    2  501    0 -0.21105532434E+02 -0.11442417657E+02 -0.36956974836E+02  0.44070289427E+02  0.00000000000E+00 0. -1.
<scales pt_clust_5="13000.00000" pt_clust_6="13000.00000" pt_clust_7="13000.00000" pt_clust_8="13000.00000" pt_clust_9="25.73052" pt_clust_10="13000.00000"></scales>
<clustering>
<clus scale="   25.731">  1  9  2 -1</clus>
<clus scale="   80.616">  5  6 -1 -1</clus>
<clus scale="   83.781">  2  5  1 -1</clus>
<clus scale="   90.740">  7  8 -1 -1</clus>
<clus scale="   28.813">  7 10 -1 -1</clus>
<clus scale="   25.731">  1  5  2 -1</clus>
</clustering>
</event>
<event>
10    4  0.2759992E-005  0.3140867E+03  0.7546771E-02  0.1093311E+00
         21   -1    0    0  501  502  0.00000000000E+00  0.00000000000E+00  0.18861231793E+03  0.18861231793E+03  0.00000000000E+00 0.  1.
          2   -1    0    0  503    0 -0.00000000000E+00 -0.00000000000E+00 -0.46079602746E+03  0.46079602746E+03  0.00000000000E+00 0. -1.
         24    2    1    2    0    0  0.19794486637E+03  0.63962969364E+02 -0.10800834443E+03  0.24744570504E+03  0.79310421145E+02 0.  0.
         23    2    1    2    0    0 -0.44212120624E+01  0.17395849154E+02  0.31324108432E+01  0.92316502400E+02  0.90500618416E+02 0.  0.
        -11    1    3    3    0    0  0.19008815445E+03  0.51549795980E+02 -0.73994614923E+02  0.21039508304E+03  0.00000000000E+00 0.  1.
         12    1    3    3    0    0  0.78567119226E+01  0.12413173383E+02 -0.34013729510E+02  0.37050622004E+02  0.00000000000E+00 0. -1.
        -13    1    4    4    0    0  0.26916691641E+02 -0.22669484207E+02 -0.15083857667E+02  0.38287551047E+02  0.00000000000E+00 0.  1.
         13    1    4    4    0    0 -0.31337903703E+02  0.40065333360E+02  0.18216268510E+02  0.54028951352E+02  0.00000000000E+00 0. -1.
         21    1    1    2  503  502 -0.27672498203E+02 -0.29629440288E+01  0.29530101943E+02  0.40577988058E+02  0.00000000000E+00 0.  1.
          1    1    1    2  501    0 -0.16585115611E+03 -0.78395874488E+02 -0.19683787788E+03  0.26906814990E+03  0.00000000000E+00 0. -1.
<scales pt_clust_5="13000.00000" pt_clust_6="13000.00000" pt_clust_7="13000.00000" pt_clust_8="13000.00000" pt_clust_9="27.83067" pt_clust_10="13000.00000"></scales>
<clustering>
<clus scale="   27.831">  1  9  2 -1</clus>
<clus scale="   79.310">  5  6 -1 -1</clus>
<clus scale="   90.501">  7  8 -1 -1</clus>
<clus scale="  189.640">  7 10 -1 -1</clus>
<clus scale="  211.133">  2  5  1 -1</clus>
<clus scale="   27.831">  1  5  2 -1</clus>
</clustering>
</event>
<event>
10    4  0.2759992E-005  0.2904842E+03  0.7546771E-02  0.1101157E+00
          2   -1    0    0  503    0 -0.00000000000E+00  0.00000000000E+00  0.17571326819E+04  0.17571326819E+04  0.00000000000E+00 0. -1.
         21   -1    0    0  501  502  0.00000000000E+00 -0.00000000000E+00 -0.86375404640E+02  0.86375404640E+02  0.00000000000E+00 0. -1.
         24    2    1    2    0    0 -0.45529152192E+02  0.20583713988E+03  0.24160363198E+03  0.32995131373E+03  0.77805671990E+02 0.  0.
         23    2    1    2    0    0 -0.36057234147E+02 -0.41823294860E+02  0.32818924730E+03  0.34505900041E+03  0.91149435502E+02 0.  0.
        -13    1    3    3    0    0  0.26633030609E+01  0.55819471334E+02  0.22888916681E+02  0.60388815769E+02  0.00000000000E+00 0.  1.
         14    1    3    3    0    0 -0.48192455252E+02  0.15001766855E+03  0.21871471530E+03  0.26956249797E+03  0.00000000000E+00 0. -1.
        -11    1    4    4    0    0  0.22553421650E+02  0.13239358998E+02  0.81246964473E+02  0.85352250650E+02  0.00000000000E+00 0.  1.
         11    1    4    4    0    0 -0.58610655797E+02 -0.55062653858E+02  0.24694228283E+03  0.25970674976E+03  0.00000000000E+00 0. -1.
         21    1    1    2  503  502  0.46947764075E+02 -0.39550092757E+01 -0.77560107978E+01  0.47748197385E+02  0.00000000000E+00 0. -1.
          1    1    1    2  501    0  0.34638622263E+02 -0.16005883575E+03  0.11087204087E+04  0.11207495750E+04  0.00000000000E+00 0. -1.
<scales pt_clust_5="13000.00000" pt_clust_6="13000.00000" pt_clust_7="13000.00000" pt_clust_8="13000.00000" pt_clust_9="47.11406" pt_clust_10="13000.00000"></scales>
<clustering>
<clus scale="   47.114">  2  9  1 -1</clus>
<clus scale="   77.806">  5  6 -1 -1</clus>
<clus scale="   91.149">  7  8 -1 -1</clus>
<clus scale="  165.244">  7 10 -1 -1</clus>
<clus scale="  217.504">  1  5  2 -1</clus>
<clus scale="   47.114">  2  5  1 -1</clus>
</clustering>
</event>
<event>
10    4  0.2759992E-005  0.5567048E+03  0.7546771E-02  0.1026287E+00
          2   -1    0    0  502    0 -0.00000000000E+00  0.00000000000E+00  0.21339789077E+03  0.21339789077E+03  0.00000000000E+00 0. -1.
         21   -1    0    0  503  502  0.00000000000E+00 -0.00000000000E+00 -0.15663611044E+04  0.15663611044E+04  0.00000000000E+00 0.  1.
         24    2    1    2    0    0 -0.22094530106E+03 -0.37293179964E+02 -0.20692152167E+02  0.23913054293E+03  0.80917513974E+02 0.  0.
         23    2    1    2    0    0  0.22593397665E+03 -0.78952244288E+02 -0.78751410041E+03  0.82786048248E+03  0.88853257821E+02 0.  0.
        -11    1    3    3    0    0 -0.21929005278E+03 -0.36957274520E+02 -0.40668455882E+01  0.22241966330E+03  0.00000000000E+00 0.  1.
         12    1    3    3    0    0 -0.16552482840E+01 -0.33590544422E+00 -0.16625306579E+02  0.16710879635E+02  0.00000000000E+00 0. -1.
        -11    1    4    4    0    0  0.60219150782E+02  0.62891853736E+01 -0.29769237342E+03  0.30378717743E+03  0.00000000000E+00 0. -1.
         11    1    4    4    0    0  0.16571482587E+03 -0.85241429662E+02 -0.48982172698E+03  0.52407330505E+03  0.00000000000E+00 0.  1.
         21    1    1    2  503  501 -0.82554388918E+02  0.13014146064E+02 -0.57426521257E+03  0.58031468144E+03  0.00000000000E+00 0.  1.
          1    1    1    2  501    0  0.77565713327E+02  0.10323127819E+03  0.29508251514E+02  0.13245328832E+03  0.00000000000E+00 0. -1.
<scales pt_clust_5="13000.00000" pt_clust_6="13000.00000" pt_clust_7="13000.00000" pt_clust_8="13000.00000" pt_clust_9="83.57389" pt_clust_10="13000.00000"></scales>
<clustering>
<clus scale="   80.918">  5  6 -1 -1</clus>
<clus scale="   83.574">  2  9  1 -1</clus>
<clus scale="   88.853">  7  8 -1 -1</clus>
<clus scale="  127.143">  7 10 -1 -1</clus>
<clus scale="  248.072">  1  5  2 -1</clus>
<clus scale="   83.574">  2  5  1 -1</clus>
</clustering>
</event>
<event>
10    4  0.2759992E-005  0.4670488E+03  0.7546771E-02  0.1044471E+00
         21   -1    0    0  501  502  0.00000000000E+00  0.00000000000E+00  0.17860510135E+03  0.17860510135E+03  0.00000000000E+00 0. -1.
          2   -1    0    0  503    0 -0.00000000000E+00 -0.00000000000E+00 -0.11278916723E+04  0.11278916723E+04  0.00000000000E+00 0. -1.
         24    2    1    2    0    0  0.15269330932E+03  0.17532210281E+03 -0.58279402491E+03  0.63247386972E+03  0.79506188148E+02 0.  0.
         23    2    1    2    0    0  0.71444064996E+02  0.53763351364E+02 -0.48493951300E+02  0.13602866339E+03  0.90318223951E+02 0.  0.
        -11    1    3    3    0    0  0.20355475155E+02  0.26482359239E+02 -0.30000568882E+02  0.44896490429E+02  0.00000000000E+00 0.  1.
         12    1    3    3    0    0  0.13233783417E+03  0.14883974357E+03 -0.55279345603E+03  0.58757737929E+03  0.00000000000E+00 0. -1.
        -11    1    4    4    0    0  0.83965688457E+02  0.26380920576E+02 -0.12172998974E+02  0.88850276941E+02  0.00000000000E+00 0. -1.
         11    1    4    4    0    0 -0.12521623461E+02  0.27382430788E+02 -0.36320952326E+02  0.47178386447E+02  0.00000000000E+00 0.  1.
         21    1    1    2  503  502  0.23950337388E+02 -0.16842847424E+02  0.42510742390E+02  0.51618440396E+02  0.00000000000E+00 0. -1.
          1    1    1    2  501    0 -0.24808771171E+03 -0.21224260675E+03 -0.36050933713E+03  0.48637580015E+03  0.00000000000E+00 0. -1.
<scales pt_clust_5="13000.00000" pt_clust_6="13000.00000" pt_clust_7="13000.00000" pt_clust_8="13000.00000" pt_clust_9="29.27969" pt_clust_10="13000.00000"></scales>
<clustering>
<clus scale="   29.280">  1  9  2 -1</clus>
<clus scale="   79.506">  5  6 -1 -1</clus>
<clus scale="   90.318">  7  8 -1 -1</clus>
<clus scale="  246.314">  2  5  1 -1</clus>
<clus scale="  136.521">  7 10 -1 -1</clus>
<clus scale="   29.280">  1  5  2 -1</clus>
</clustering>
</event>
<event>
10    4  0.2759992E-005  0.1731546E+03  0.7546771E-02  0.1189248E+00
          2   -1    0    0  502    0 -0.00000000000E+00  0.00000000000E+00  0.12180939783E+04  0.12180939783E+04  0.00000000000E+00 0. -1.
         21   -1    0    0  503  502  0.00000000000E+00 -0.00000000000E+00 -0.45105065414E+02  0.45105065414E+02  0.00000000000E+00 0.  1.
         24    2    1    2    0    0  0.85977007452E+02 -0.21628548113E+02  0.75043087147E+03  0.76007403408E+03  0.81891419053E+02 0.  0.
         23    2    1    2    0    0 -0.79310376624E+02  0.43554391842E+02  0.40537971563E+03  0.42565675833E+03  0.93079757070E+02 0.  0.
        -11    1    3    3    0    0  0.26176244246E+02 -0.22259340637E+01  0.47036732308E+02  0.53875826968E+02  0.00000000000E+00 0.  1.
         12    1    3    3    0    0  0.59800763206E+02 -0.19402614050E+02  0.70339413916E+03  0.70619820711E+03  0.00000000000E+00 0. -1.
        -13    1    4    4    0    0  0.11609006625E+02  0.36850253344E+02  0.11832796093E+03  0.12447576689E+03  0.00000000000E+00 0. -1.
         13    1    4    4    0    0 -0.90919383249E+02  0.67041384980E+01  0.28705175470E+03  0.30118099143E+03  0.00000000000E+00 0.  1.
         21    1    1    2  503  501  0.26171579341E+02 -0.47822316815E+01 -0.13071371119E+02  0.29642571548E+02  0.00000000000E+00 0.  1.
          1    1    1    2  501    0 -0.32838210169E+02 -0.17143612048E+02  0.30249696877E+02  0.47825679737E+02  0.00000000000E+00 0. -1.
<scales pt_clust_5="13000.00000" pt_clust_6="13000.00000" pt_clust_7="13000.00000" pt_clust_8="13000.00000" pt_clust_9="26.60491" pt_clust_10="13000.00000"></scales>
<clustering>
<clus scale="   26.605">  2  9  1 -1</clus>
<clus scale="   81.891">  5  6 -1 -1</clus>
<clus scale="   93.080">  7  8 -1 -1</clus>
<clus scale="   29.896">  7 10 -1 -1</clus>
<clus scale="  124.703">  1  5  2 -1</clus>
<clus scale="   26.605">  2  5  1 -1</clus>
</clustering>
</event>
<event>
10    4  0.2759992E-005  0.2081559E+03  0.7546771E-02  0.1149526E+00
         21   -1    0    0  501  502  0.00000000000E+00  0.00000000000E+00  0.49999705885E+02  0.49999705885E+02  0.00000000000E+00 0. -1.
          2   -1    0    0  503    0 -0.00000000000E+00 -0.00000000000E+00 -0.12632688964E+04  0.12632688964E+04  0.00000000000E+00 0. -1.
         24    2    1    2    0    0  0.50033131105E+02  0.15295973631E+03 -0.90695287967E+03  0.92444747007E+03  0.78355624084E+02 0.  0.
         23    2    1    2    0    0 -0.48847739184E+02 -0.14167472594E+03 -0.17251828335E+03  0.24595788544E+03  0.90966442870E+02 0.  0.
        -13    1    3    3    0    0 -0.15546075216E+02  0.22859370119E+02 -0.77194145991E+02  0.81994923210E+02  0.00000000000E+00 0.  1.
         14    1    3    3    0    0  0.65579206321E+02  0.13010036619E+03 -0.82975873368E+03  0.84245254686E+03  0.00000000000E+00 0. -1.
        -13    1    4    4    0    0  0.10445249917E+02 -0.93366004009E+02 -0.65950027260E+02  0.11478553936E+03  0.00000000000E+00 0. -1.
         13    1    4    4    0    0 -0.59292989101E+02 -0.48308721929E+02 -0.10656825609E+03  0.13117234609E+03  0.00000000000E+00 0.  1.
         21    1    1    2  503  502 -0.23098529766E+02  0.27369354170E+01 -0.76009485017E+02  0.79488833841E+02  0.00000000000E+00 0. -1.
          1    1    1    2  501    0  0.21913137845E+02 -0.14021945787E+02 -0.57788542505E+02  0.63374412966E+02  0.00000000000E+00 0. -1.
<scales pt_clust_5="13000.00000" pt_clust_6="13000.00000" pt_clust_7="13000.00000" pt_clust_8="13000.00000" pt_clust_9="23.26013" pt_clust_10="13000.00000"></scales>
<clustering>
<clus scale="   23.260">  1  9  2 -1</clus>
<clus scale="   78.356">  5  6 -1 -1</clus>
<clus scale="   90.966">  7  8 -1 -1</clus>
<clus scale="   24.811">  7 10 -1 -1</clus>
<clus scale="  178.298">  2  5  1 -1</clus>
<clus scale="   23.260">  1  5  2 -1</clus>
</clustering>
</event>
<event>
10    4  0.2759992E-005  0.1406515E+03  0.7546771E-02  0.1231953E+00
          2   -1    0    0  502    0 -0.00000000000E+00  0.00000000000E+00  0.14613228348E+03  0.14613228348E+03  0.00000000000E+00 0. -1.
         21   -1    0    0  503  502  0.00000000000E+00 -0.00000000000E+00 -0.15444026263E+03  0.15444026263E+03  0.00000000000E+00 0. -1.
         24    2    1    2    0    0 -0.21305256715E+02 -0.66851637161E+02 -0.17246996329E+02  0.10305325382E+03  0.73481010372E+02 0.  0.
         23    2    1    2    0    0  0.48138263761E+02  0.25782151792E+02  0.40409382379E+02  0.11498314589E+03  0.92769574031E+02 0.  0.
        -11    1    3    3    0    0 -0.35878112041E+02 -0.49025759791E+01  0.28285880698E+01  0.36321826569E+02  0.00000000000E+00 0.  1.
         12    1    3    3    0    0  0.14572855326E+02 -0.61949061182E+02 -0.20075584399E+02  0.66731427249E+02  0.00000000000E+00 0. -1.
        -11    1    4    4    0    0 -0.10614598039E+02  0.32699505503E+02 -0.11528120054E+02  0.36260514387E+02  0.00000000000E+00 0.  1.
         11    1    4    4    0    0  0.58752861799E+02 -0.69173537108E+01  0.51937502433E+02  0.78722631504E+02  0.00000000000E+00 0. -1.
         21    1    1    2  503  501 -0.25820975040E+01  0.24288116101E+02 -0.44133376347E+02  0.50441398861E+02  0.00000000000E+00 0.  1.
          1    1    1    2  501    0 -0.24250909542E+02  0.16781369269E+02  0.12663011153E+02  0.32094747539E+02  0.00000000000E+00 0. -1.
<scales pt_clust_5="13000.00000" pt_clust_6="13000.00000" pt_clust_7="13000.00000" pt_clust_8="13000.00000" pt_clust_9="24.42498" pt_clust_10="13000.00000"></scales>
<clustering>
<clus scale="   24.425">  2  9  1 -1</clus>
<clus scale="   73.481">  5  6 -1 -1</clus>
<clus scale="   92.770">  7  8 -1 -1</clus>
<clus scale="   30.982">  7 10 -1 -1</clus>
<clus scale="   93.538">  1  5  2 -1</clus>
<clus scale="   24.425">  2  5  1 -1</clus>
</clustering>
</event>
<event>
10    4  0.2759992E-005  0.2689217E+03  0.7546771E-02  0.1138030E+00
         -1   -1    0    0    0  501 -0.00000000000E+00  0.00000000000E+00  0.11896326368E+03  0.11896326368E+03  0.00000000000E+00 0.  1.
         21   -1    0    0  503  502  0.00000000000E+00 -0.00000000000E+00 -0.44310812696E+03  0.44310812696E+03  0.00000000000E+00 0.  1.
         24    2    1    2    0    0  0.47942694558E+02 -0.48615211300E+02 -0.16903633285E+03  0.20037417070E+03  0.83153988033E+02 0.  0.
         23    2    1    2    0    0  0.35180358488E+02  0.10036245526E+03 -0.13423617606E+03  0.19583005954E+03  0.94972528702E+02 0.  0.
        -13    1    3    3    0    0  0.62793640985E+02 -0.60883206216E+02 -0.14748384843E+03  0.17146804861E+03  0.00000000000E+00 0.  1.
         14    1    3    3    0    0 -0.14850946427E+02  0.12267994916E+02 -0.21552484428E+02  0.28906122086E+02  0.00000000000E+00 0. -1.
        -11    1    4    4    0    0 -0.50016422748E+01  0.85593341159E+02 -0.12573189559E+03  0.15218326466E+03  0.00000000000E+00 0.  1.
         11    1    4    4    0    0  0.40182000763E+02  0.14769114100E+02 -0.85042804716E+01  0.43646794876E+02  0.00000000000E+00 0. -1.
         21    1    1    2  503  501 -0.21053306745E+02 -0.21802845535E+02 -0.73272109348E+02  0.79293176293E+02  0.00000000000E+00 0. -1.
         -2    1    1    2    0  502 -0.62069746302E+02 -0.29944398424E+02  0.52399754981E+02  0.86573984112E+02  0.00000000000E+00 0.  1.
<scales pt_clust_5="13000.00000" pt_clust_6="13000.00000" pt_clust_7="13000.00000" pt_clust_8="13000.00000" pt_clust_9="30.30851" pt_clust_10="13000.00000"></scales>
<clustering>
<clus scale="   30.309">  2  9  1 -1</clus>
<clus scale="   83.154">  5  6 -1 -1</clus>
<clus scale="   94.973">  7  8 -1 -1</clus>
<clus scale="   70.242">  7 10 -1 -1</clus>
<clus scale="  108.905">  1  5  2 -1</clus>
<clus scale="   30.309">  2  5  1 -1</clus>
</clustering>
</event>
<event>
10    4  0.2759992E-005  0.1574074E+03  0.7546771E-02  0.1215881E+00
          2   -1    0    0  503    0 -0.00000000000E+00  0.00000000000E+00  0.50253621946E+03  0.50253621946E+03  0.00000000000E+00 0. -1.
         21   -1    0    0  501  502  0.00000000000E+00 -0.00000000000E+00 -0.37627773052E+02  0.37627773052E+02  0.00000000000E+00 0. -1.
         24    2    1    2    0    0  0.13454488289E+02 -0.48934752056E+02  0.17606918352E+03  0.20109476735E+03  0.82843918643E+02 0.  0.
         23    2    1    2    0    0 -0.26614136829E+02 -0.13698883965E+02  0.11439200498E+03  0.14913873845E+03  0.90889277709E+02 0.  0.
        -11    1    3    3    0    0  0.24692579764E+02 -0.67731966141E+02  0.15381506932E+03  0.16987177012E+03  0.00000000000E+00 0.  1.
         12    1    3    3    0    0 -0.11238091475E+02  0.18797214085E+02  0.22254114199E+02  0.31222997232E+02  0.00000000000E+00 0. -1.
        -13    1    4    4    0    0 -0.58674336567E+02  0.42296760370E+01  0.66572999054E+02  0.88839924212E+02  0.00000000000E+00 0.  1.
         13    1    4    4    0    0  0.32060199738E+02 -0.17928560002E+02  0.47819005927E+02  0.60298814240E+02  0.00000000000E+00 0. -1.
         21    1    1    2  503  502 -0.13225576219E+02  0.18999736608E+02  0.41175944430E+02  0.47237318480E+02  0.00000000000E+00 0. -1.
          1    1    1    2  501    0  0.26385224759E+02  0.43633899413E+02  0.13327131348E+03  0.14269316823E+03  0.00000000000E+00 0. -1.
<scales pt_clust_5="13000.00000" pt_clust_6="13000.00000" pt_clust_7="13000.00000" pt_clust_8="13000.00000" pt_clust_9="23.14965" pt_clust_10="13000.00000"></scales>
<clustering>
<clus scale="   23.150">  2  9  1 -1</clus>
<clus scale="   82.844">  5  6 -1 -1</clus>
<clus scale="   90.889">  7  8 -1 -1</clus>
<clus scale="   52.352">  7 10 -1 -1</clus>
<clus scale="   93.315">  1  5  2 -1</clus>
<clus scale="   23.150">  2  5  1 -1</clus>
</clustering>
</event>
<event>
10    4  0.2759992E-005  0.1886774E+03  0.7546771E-02  0.1190371E+00
         21   -1    0    0  501  502  0.00000000000E+00  0.00000000000E+00  0.42494673835E+03  0.42494673835E+03  0.00000000000E+00 0. -1.
          2   -1    0    0  503    0 -0.00000000000E+00 -0.00000000000E+00 -0.25119469573E+03  0.25119469573E+03  0.00000000000E+00 0. -1.
         24    2    1    2    0    0  0.50444540597E+02 -0.15419220987E+02 -0.18681256489E+03  0.21008220238E+03  0.80331770203E+02 0.  0.
         23    2    1    2    0    0 -0.30157809443E+02  0.21837022008E+02  0.13079833282E+03  0.17045888474E+03  0.10277002733E+03 0.  0.
        -11    1    3    3    0    0  0.29319730494E+02  0.20523631369E+01 -0.98339400576E+01  0.30992985783E+02  0.00000000000E+00 0.  1.
         12    1    3    3    0    0  0.21124810103E+02 -0.17471584124E+02 -0.17697862483E+03  0.17908921659E+03  0.00000000000E+00 0. -1.
        -13    1    4    4    0    0 -0.12283530423E+02  0.41072006053E+02  0.64302147009E+01  0.43349076830E+02  0.00000000000E+00 0. -1.
         13    1    4    4    0    0 -0.17874279020E+02 -0.19234984046E+02  0.12436811812E+03  0.12710980791E+03  0.00000000000E+00 0.  1.
         21    1    1    2  503  502 -0.55626936382E+02  0.26695402533E+02  0.23853296029E+03  0.24638379353E+03  0.00000000000E+00 0. -1.
          1    1    1    2  501    0  0.35340205228E+02 -0.33113203553E+02 -0.87666856082E+01  0.49216553432E+02  0.00000000000E+00 0. -1.
<scales pt_clust_5="13000.00000" pt_clust_6="13000.00000" pt_clust_7="13000.00000" pt_clust_8="13000.00000" pt_clust_9="61.70090" pt_clust_10="13000.00000"></scales>
<clustering>
<clus scale="   61.701">  1  9  2 -1</clus>
<clus scale="   80.332">  5  6 -1 -1</clus>
<clus scale="   94.025">  2  5  1 -1</clus>
<clus scale="  102.770">  7  8 -1 -1</clus>
<clus scale="   59.468">  7 10 -1 -1</clus>
<clus scale="   61.701">  1  5  2 -1</clus>
</clustering>
</event>
<event>
10    4  0.2759992E-005  0.1619834E+03  0.7546771E-02  0.1218050E+00
          2   -1    0    0  502    0 -0.00000000000E+00  0.00000000000E+00  0.90950751881E+02  0.90950751881E+02  0.00000000000E+00 0. -1.
         21   -1    0    0  503  502  0.00000000000E+00 -0.00000000000E+00 -0.51649556804E+03  0.51649556804E+03  0.00000000000E+00 0. -1.
         24    2    1    2    0    0 -0.24937126684E+02 -0.22571350470E+01 -0.65335796633E+02  0.10754566984E+03  0.81672209678E+02 0.  0.
         23    2    1    2    0    0 -0.61436646388E+02 -0.28088595862E+02 -0.26480476696E+02  0.11551219676E+03  0.89880037928E+02 0.  0.
        -13    1    3    3    0    0 -0.14730308288E+02 -0.38740507150E+02 -0.14005212287E+02  0.43748769671E+02  0.00000000000E+00 0.  1.
         14    1    3    3    0    0 -0.10206818396E+02  0.36483372103E+02 -0.51330584346E+02  0.63796900169E+02  0.00000000000E+00 0. -1.
        -13    1    4    4    0    0  0.22151254408E+02  0.39015551406E+01 -0.12655901947E+01  0.22527803331E+02  0.00000000000E+00 0.  1.
         13    1    4    4    0    0 -0.83587900796E+02 -0.31990151003E+02 -0.25214886502E+02  0.92984393432E+02  0.00000000000E+00 0. -1.
         21    1    1    2  503  501  0.48429413706E+02 -0.35058926383E+01 -0.32983484705E+03  0.33338975048E+03  0.00000000000E+00 0. -1.
          1    1    1    2  501    0  0.37944359366E+02  0.33851623548E+02 -0.38936957781E+01  0.50998702840E+02  0.00000000000E+00 0. -1.
<scales pt_clust_5="13000.00000" pt_clust_6="13000.00000" pt_clust_7="13000.00000" pt_clust_8="13000.00000" pt_clust_9="48.55615" pt_clust_10="13000.00000"></scales>
<clustering>
<clus scale="   48.556">  2  9  1 -1</clus>
<clus scale="   81.672">  5  6 -1 -1</clus>
<clus scale="   81.797">  1  5  2 -1</clus>
<clus scale="   89.880">  7  8 -1 -1</clus>
<clus scale="   54.349">  7 10 -1 -1</clus>
<clus scale="   48.556">  2  5  1 -1</clus>
</clustering>
</event>
<event>
10    4  0.2759992E-005  0.2269492E+03  0.7546771E-02  0.1156990E+00
          2   -1    0    0  503    0 -0.00000000000E+00  0.00000000000E+00  0.16192624569E+03  0.16192624569E+03  0.00000000000E+00 0. -1.
         21   -1    0    0  501  502  0.00000000000E+00 -0.00000000000E+00 -0.37074739403E+03  0.37074739403E+03  0.00000000000E+00 0. -1.
         24    2    1    2    0    0  0.37629617160E+02  0.34076011057E+02 -0.46656217956E+02  0.10558448850E+03  0.79963234812E+02 0.  0.
         23    2    1    2    0    0 -0.15802522788E+02 -0.26824428942E+02 -0.83289113586E+02  0.12470708788E+03  0.87438616244E+02 0.  0.
        -13    1    3    3    0    0 -0.88340799556E+01  0.34010329246E+02  0.56844536428E+01  0.35595736785E+02  0.00000000000E+00 0.  1.
         14    1    3    3    0    0  0.46463697116E+02  0.65681811443E-01 -0.52340671599E+02  0.69988751719E+02  0.00000000000E+00 0. -1.
        -11    1    4    4    0    0 -0.42374398476E+00 -0.53203090650E+02 -0.76900451173E+02  0.93511645287E+02  0.00000000000E+00 0.  1.
         11    1    4    4    0    0 -0.15378778803E+02  0.26378661709E+02 -0.63886624132E+01  0.31195442591E+02  0.00000000000E+00 0. -1.
         21    1    1    2  503  502  0.53946153318E+02  0.73311325986E+02 -0.14670033856E+03  0.17264335292E+03  0.00000000000E+00 0. -1.
          1    1    1    2  501    0 -0.75773247690E+02 -0.80562908102E+02  0.67824521755E+02  0.12973871041E+03  0.00000000000E+00 0. -1.
<scales pt_clust_5="13000.00000" pt_clust_6="13000.00000" pt_clust_7="13000.00000" pt_clust_8="13000.00000" pt_clust_9="91.02054" pt_clust_10="13000.00000"></scales>
<clustering>
<clus scale="   79.963">  5  6 -1 -1</clus>
<clus scale="   87.439">  7  8 -1 -1</clus>
<clus scale="   91.021">  2  9  1 -1</clus>
<clus scale="   97.359">  7 10 -1 -1</clus>
<clus scale="  115.389">  1  5  2 -1</clus>
<clus scale="   91.021">  2  5  1 -1</clus>
</clustering>
</event>
<event>
10    4  0.2759992E-005  0.6375543E+03  0.7546771E-02  0.1031910E+00
          2   -1    0    0  503    0 -0.00000000000E+00  0.00000000000E+00  0.51055709147E+03  0.51055709147E+03  0.00000000000E+00 0. -1.
         21   -1    0    0  501  502  0.00000000000E+00 -0.00000000000E+00 -0.37668520971E+03  0.37668520971E+03  0.00000000000E+00 0. -1.
         24    2    1    2    0    0  0.71750848601E+02 -0.75764365116E+02 -0.10304749410E+03  0.16751995886E+03  0.80967445809E+02 0.  0.
         23    2    1    2    0    0 -0.49180815243E+02 -0.83388199897E+02 -0.18291347963E+03  0.22579803856E+03  0.90305419078E+02 0.  0.
        -13    1    3    3    0    0  0.71542089515E+02 -0.17660273475E+02 -0.52155877291E+02  0.90279517984E+02  0.00000000000E+00 0.  1.
         14    1    3    3    0    0  0.20875908534E+00 -0.58104091641E+02 -0.50891616807E+02  0.77240440878E+02  0.00000000000E+00 0. -1.
        -13    1    4    4    0    0 -0.68559522031E+02 -0.63147406009E+02 -0.17218048983E+03  0.19579102131E+03  0.00000000000E+00 0. -1.
         13    1    4    4    0    0  0.19378706788E+02 -0.20240793888E+02 -0.10732989800E+02  0.30007017247E+02  0.00000000000E+00 0.  1.
         21    1    1    2  503  502  0.33154280143E+02 -0.19950735217E+01 -0.73073034914E+01  0.34008576778E+02  0.00000000000E+00 0.  1.
          1    1    1    2  501    0 -0.55724313500E+02  0.16114763853E+03  0.42714015898E+03  0.45991572699E+03  0.00000000000E+00 0. -1.
<scales pt_clust_5="13000.00000" pt_clust_6="13000.00000" pt_clust_7="13000.00000" pt_clust_8="13000.00000" pt_clust_9="33.21425" pt_clust_10="13000.00000"></scales>
<clustering>
<clus scale="   33.214">  2  9  1 -1</clus>
<clus scale="   80.967">  5  6 -1 -1</clus>
<clus scale="   90.305">  7  8 -1 -1</clus>
<clus scale="  139.736">  1  5  2 -1</clus>
<clus scale="   92.588">  7 10 -1 -1</clus>
<clus scale="   33.214">  2  5  1 -1</clus>
</clustering>
</event>
<event>
10    4  0.2759992E-005  0.3390508E+03  0.7546771E-02  0.1109192E+00
         21   -1    0    0  501  502  0.00000000000E+00  0.00000000000E+00  0.74744002009E+03  0.74744002009E+03  0.00000000000E+00 0.  1.
         -1   -1    0    0    0  501 -0.00000000000E+00 -0.00000000000E+00 -0.29568048445E+03  0.29568048445E+03  0.00000000000E+00 0.  1.
         24    2    1    2    0    0  0.14786815010E+02  0.74600538227E+02 -0.18923529165E+03  0.21952225116E+03  0.81216580500E+02 0.  0.
         23    2    1    2    0    0  0.19377734388E+03 -0.99211355867E+02  0.29306371494E+03  0.37665272338E+03  0.92673517685E+02 0.  0.
        -13    1    3    3    0    0  0.35392616087E+02  0.72905555257E+02 -0.17891564205E+03  0.19641452144E+03  0.00000000000E+00 0.  1.
         14    1    3    3    0    0 -0.20605801077E+02  0.16949829700E+01 -0.10319649601E+02  0.23107729728E+02  0.00000000000E+00 0. -1.
        -11    1    4    4    0    0  0.11019197132E+03 -0.46727650850E+02  0.86355030681E+02  0.14759043066E+03  0.00000000000E+00 0. -1.
         11    1    4    4    0    0  0.83585372552E+02 -0.52483705017E+02  0.20670868426E+03  0.22906229272E+03  0.00000000000E+00 0.  1.
         21    1    1    2  503  502 -0.12128830738E+03  0.42392295471E+02  0.33261695393E+03  0.35656976634E+03  0.00000000000E+00 0.  1.
         -2    1    1    2    0  503 -0.87275851504E+02 -0.17781477831E+02  0.15314158411E+02  0.90375763662E+02  0.00000000000E+00 0.  1.
<scales pt_clust_5="13000.00000" pt_clust_6="13000.00000" pt_clust_7="13000.00000" pt_clust_8="13000.00000" pt_clust_9="130.25606" pt_clust_10="13000.00000"></scales>
<clustering>
<clus scale="   81.217">  5  6 -1 -1</clus>
<clus scale="   92.674">  7  8 -1 -1</clus>
<clus scale="   89.069">  7 10 -1 -1</clus>
<clus scale="  111.266">  2  5  1 -1</clus>
<clus scale="  130.256">  1  9  2 -1</clus>
<clus scale="  130.256">  1  5  2 -1</clus>
</clustering>
</event>
<event>
10    4  0.2759992E-005  0.3746130E+03  0.7546771E-02  0.1098615E+00
          2   -1    0    0  502    0 -0.00000000000E+00  0.00000000000E+00  0.71868144089E+03  0.71868144089E+03  0.00000000000E+00 0. -1.
         21   -1    0    0  503  502  0.00000000000E+00 -0.00000000000E+00 -0.99062643603E+02  0.99062643603E+02  0.00000000000E+00 0. -1.
         24    2    1    2    0    0 -0.40623213565E+02 -0.61282134276E+02  0.24702415559E+03  0.27004251337E+03  0.80599504495E+02 0.  0.
         23    2    1    2    0    0 -0.65795795860E+01  0.64083583925E+02 -0.33852182141E+02  0.11721051675E+03  0.91882198520E+02 0.  0.
        -11    1    3    3    0    0 -0.47801627777E+02 -0.16669048910E+01  0.89829137585E+02  0.10176958362E+03  0.00000000000E+00 0.  1.
         12    1    3    3    0    0  0.71784142120E+01 -0.59615229385E+02  0.15719501800E+03  0.16827292976E+03  0.00000000000E+00 0. -1.
        -11    1    4    4    0    0 -0.11956556451E+01  0.36492608861E+02  0.30121221535E+02  0.47333160476E+02  0.00000000000E+00 0.  1.
         11    1    4    4    0    0 -0.53839239409E+01  0.27590975064E+02 -0.63973403676E+02  0.69877356274E+02  0.00000000000E+00 0. -1.
         21    1    1    2  503  501 -0.11212712927E+02  0.18535197227E+02  0.25247855319E+01  0.21809470635E+02  0.00000000000E+00 0. -1.
          1    1    1    2  501    0  0.58415506078E+02 -0.21336646876E+02  0.40392203831E+03  0.40868158374E+03  0.00000000000E+00 0. -1.
<scales pt_clust_5="13000.00000" pt_clust_6="13000.00000" pt_clust_7="13000.00000" pt_clust_8="13000.00000" pt_clust_9="21.66284" pt_clust_10="13000.00000"></scales>
<clustering>
<clus scale="   21.663">  2  9  1 -1</clus>
<clus scale="   80.600">  5  6 -1 -1</clus>
<clus scale="   91.882">  7  8 -1 -1</clus>
<clus scale="   61.742">  7 10 -1 -1</clus>
<clus scale="  108.327">  1  5  2 -1</clus>
<clus scale="   21.663">  2  5  1 -1</clus>
</clustering>
</event>
<event>
10    4  0.2759992E-005  0.1707836E+03  0.7546771E-02  0.1201393E+00
         -1   -1    0    0    0  501 -0.00000000000E+00  0.00000000000E+00  0.14674184668E+03  0.14674184668E+03  0.00000000000E+00 0.  1.
         21   -1    0    0  501  502  0.00000000000E+00 -0.00000000000E+00 -0.22752986067E+03  0.22752986067E+03  0.00000000000E+00 0.  1.
         24    2    1    2    0    0 -0.13957574071E+02  0.68237793079E+02 -0.16157345044E+01  0.10510440631E+03  0.78696349025E+02 0.  0.
         23    2    1    2    0    0  0.17437473249E+02  0.16037125420E+02  0.26640753258E+02  0.97169967440E+02  0.90393683258E+02 0.  0.
        -13    1    3    3    0    0  0.15286142417E+02  0.70149136461E+02  0.11997440117E+02  0.72790837786E+02  0.00000000000E+00 0.  1.
         14    1    3    3    0    0 -0.29243716488E+02 -0.19113433826E+01 -0.13613174621E+02  0.32313568525E+02  0.00000000000E+00 0. -1.
        -13    1    4    4    0    0 -0.31912115082E+02  0.92646746110E+01  0.33146080562E+02  0.46934847835E+02  0.00000000000E+00 0.  1.
         13    1    4    4    0    0  0.49349588331E+02  0.67724508090E+01 -0.65053273035E+01  0.50235119605E+02  0.00000000000E+00 0. -1.
         21    1    1    2  503  502  0.20467801389E+02 -0.17814271016E+02 -0.97098111825E+02  0.10081826454E+03  0.00000000000E+00 0.  1.
         -2    1    1    2    0  503 -0.23947700567E+02 -0.66460647483E+02 -0.87149209190E+01  0.71179069065E+02  0.00000000000E+00 0.  1.
<scales pt_clust_5="13000.00000" pt_clust_6="13000.00000" pt_clust_7="13000.00000" pt_clust_8="13000.00000" pt_clust_9="27.13446" pt_clust_10="13000.00000"></scales>
<clustering>
<clus scale="   27.134">  2  9  1 -1</clus>
<clus scale="   78.696">  5  6 -1 -1</clus>
<clus scale="   90.394">  7  8 -1 -1</clus>
<clus scale="   74.113">  7 10 -1 -1</clus>
<clus scale="   99.624">  1  5  2 -1</clus>
<clus scale="   27.134">  2  5  1 -1</clus>
</clustering>
</event>
<event>
10    4  0.2759992E-005  0.2473212E+03  0.7546771E-02  0.1147904E+00
          2   -1    0    0  503    0 -0.00000000000E+00  0.00000000000E+00  0.11521075552E+04  0.11521075552E+04  0.00000000000E+00 0. -1.
         21   -1    0    0  501  502  0.00000000000E+00 -0.00000000000E+00 -0.71124459461E+02  0.71124459461E+02  0.00000000000E+00 0. -1.
         24    2    1    2    0    0 -0.75255295679E+02 -0.15372297131E+02  0.84929911128E+03  0.85632537700E+03  0.78003229620E+02 0.  0.
         23    2    1    2    0    0 -0.13060346827E+02 -0.51883768328E+02  0.16240756458E+03  0.19467834664E+03  0.93064190438E+02 0.  0.
        -11    1    3    3    0    0 -0.37416155857E+02 -0.36246011744E+02  0.24468893308E+03  0.25017277241E+03  0.00000000000E+00 0.  1.
         12    1    3    3    0    0 -0.37839139823E+02  0.20873714613E+02  0.60461017821E+03  0.60615260459E+03  0.00000000000E+00 0. -1.
        -11    1    4    4    0    0  0.12452150338E+02 -0.22936776646E+02  0.15266823047E+03  0.15488298927E+03  0.00000000000E+00 0.  1.
         11    1    4    4    0    0 -0.25512497164E+02 -0.28946991682E+02  0.97393341099E+01  0.39795357366E+02  0.00000000000E+00 0. -1.
         21    1    1    2  503  502 -0.25360480107E+02  0.41305917330E+00  0.65386354482E+01  0.26193096851E+02  0.00000000000E+00 0. -1.
          1    1    1    2  501    0  0.11367612261E+03  0.66843006286E+02  0.62737784436E+02  0.14603519417E+03  0.00000000000E+00 0. -1.
<scales pt_clust_5="13000.00000" pt_clust_6="13000.00000" pt_clust_7="13000.00000" pt_clust_8="13000.00000" pt_clust_9="25.36384" pt_clust_10="13000.00000"></scales>
<clustering>
<clus scale="   25.364">  2  9  1 -1</clus>
<clus scale="   78.003">  5  6 -1 -1</clus>
<clus scale="   93.064">  7  8 -1 -1</clus>
<clus scale="  110.473">  1  5  2 -1</clus>
<clus scale="   94.639">  7 10 -1 -1</clus>
<clus scale="   25.364">  2  5  1 -1</clus>
</clustering>
</event>
<event>
10    4  0.2759992E-005  0.3587722E+03  0.7546771E-02  0.1100657E+00
         21   -1    0    0  503  502  0.00000000000E+00  0.00000000000E+00  0.40050453295E+02  0.40050453295E+02  0.00000000000E+00 0.  1.
          2   -1    0    0  502    0 -0.00000000000E+00 -0.00000000000E+00 -0.19699029239E+04  0.19699029239E+04  0.00000000000E+00 0. -1.
         24    2    1    2    0    0 -0.41726904885E+02 -0.66394983867E+02 -0.35316444059E+03  0.36983832946E+03  0.76849459139E+02 0.  0.
         23    2    1    2    0    0 -0.65895189580E+02 -0.67828508195E+02 -0.30354128794E+03  0.33060336861E+03  0.90655343570E+02 0.  0.
        -13    1    3    3    0    0 -0.63505089478E+02 -0.38868257205E+02 -0.22830901824E+03  0.24014296912E+03  0.00000000000E+00 0.  1.
         14    1    3    3    0    0  0.21778184593E+02 -0.27526726662E+02 -0.12485542235E+03  0.12969536034E+03  0.00000000000E+00 0. -1.
        -13    1    4    4    0    0 -0.20699243628E+02 -0.77577452185E+02 -0.23123800061E+03  0.24478098925E+03  0.00000000000E+00 0.  1.
         13    1    4    4    0    0 -0.45195945952E+02  0.97489439899E+01 -0.72303287330E+02  0.85822379354E+02  0.00000000000E+00 0. -1.
         21    1    1    2  503  501  0.23071925519E+02 -0.52569602861E+02 -0.77697131964E+02  0.96606010204E+02  0.00000000000E+00 0. -1.
          1    1    1    2  501    0  0.84550168946E+02  0.18679309492E+03 -0.11954496102E+04  0.12129056690E+04  0.00000000000E+00 0. -1.
<scales pt_clust_5="13000.00000" pt_clust_6="13000.00000" pt_clust_7="13000.00000" pt_clust_8="13000.00000" pt_clust_9="57.40973" pt_clust_10="13000.00000"></scales>
<clustering>
<clus scale="   57.410">  1  9  2 -1</clus>
<clus scale="   76.849">  5  6 -1 -1</clus>
<clus scale="   90.655">  7  8 -1 -1</clus>
<clus scale="  116.951">  2  5  1 -1</clus>
<clus scale="  131.193">  7 10 -1 -1</clus>
<clus scale="   57.410">  1  5  2 -1</clus>
</clustering>
</event>
<event>
10    4  0.2759992E-005  0.2551388E+03  0.7546771E-02  0.1128837E+00
          2   -1    0    0  503    0 -0.00000000000E+00  0.00000000000E+00  0.16307433127E+04  0.16307433127E+04  0.00000000000E+00 0. -1.
         21   -1    0    0  501  502  0.00000000000E+00 -0.00000000000E+00 -0.65324268018E+02  0.65324268018E+02  0.00000000000E+00 0. -1.
         24    2    1    2    0    0 -0.10315485128E+03 -0.82983921729E+02  0.10285293131E+04  0.10401709877E+04  0.80968395615E+02 0.  0.
         23    2    1    2    0    0  0.51772914622E+02  0.99964191226E+02  0.20146247912E+03  0.24754338531E+03  0.89539504699E+02 0.  0.
        -13    1    3    3    0    0 -0.12454666998E+02 -0.38503163074E+02  0.13459635383E+03  0.14054817950E+03  0.00000000000E+00 0.  1.
         14    1    3    3    0    0 -0.90700184286E+02 -0.44480758655E+02  0.89393295927E+03  0.89962280818E+03  0.00000000000E+00 0. -1.
        -13    1    4    4    0    0  0.38281913470E+02  0.18308999256E+02  0.13465029675E+03  0.14117870508E+03  0.00000000000E+00 0.  1.
         13    1    4    4    0    0  0.13491001152E+02  0.81655191969E+02  0.66812182366E+02  0.10636468023E+03  0.00000000000E+00 0. -1.
         21    1    1    2  503  502 -0.75579320392E+02  0.34174021308E+02  0.65448701888E+02  0.10565808053E+03  0.00000000000E+00 0.  1.
          1    1    1    2  501    0  0.12696125705E+03 -0.51154290804E+02  0.26997855059E+03  0.30269512721E+03  0.00000000000E+00 0. -1.
<scales pt_clust_5="13000.00000" pt_clust_6="13000.00000" pt_clust_7="13000.00000" pt_clust_8="13000.00000" pt_clust_9="82.94635" pt_clust_10="13000.00000"></scales>
<clustering>
<clus scale="   80.968">  5  6 -1 -1</clus>
<clus scale="   82.946">  2  9  1 -1</clus>
<clus scale="   89.540">  7  8 -1 -1</clus>
<clus scale="  106.907">  7 10 -1 -1</clus>
<clus scale="  159.606">  1  5  2 -1</clus>
<clus scale="   82.946">  2  5  1 -1</clus>
</clustering>
</event>
<event>
10    4  0.2759992E-005  0.1489469E+03  0.7546771E-02  0.1230276E+00
          2   -1    0    0  502    0 -0.00000000000E+00  0.00000000000E+00  0.36942422292E+03  0.36942422292E+03  0.00000000000E+00 0. -1.
         21   -1    0    0  503  502  0.00000000000E+00 -0.00000000000E+00 -0.20852258409E+03  0.20852258409E+03  0.00000000000E+00 0. -1.
         24    2    1    2    0    0 -0.49186141201E+01 -0.16668134029E+02  0.26631155253E+03  0.27866173032E+03  0.80177911414E+02 0.  0.
         23    2    1    2    0    0 -0.12371826647E+02  0.18502382800E+02 -0.13996163978E+02  0.94494190210E+02  0.90762652635E+02 0.  0.
        -13    1    3    3    0    0 -0.12439508759E+02  0.29097599824E+02  0.68056988808E+02  0.75054416388E+02  0.00000000000E+00 0.  1.
         14    1    3    3    0    0  0.75208946387E+01 -0.45765733853E+02  0.19825456372E+03  0.20360731393E+03  0.00000000000E+00 0. -1.
        -13    1    4    4    0    0  0.36381242424E+02 -0.49295180421E+01  0.52360456230E+01  0.37085187369E+02  0.00000000000E+00 0.  1.
         13    1    4    4    0    0 -0.48753069071E+02  0.23431900843E+02 -0.19232209601E+02  0.57409002840E+02  0.00000000000E+00 0. -1.
         21    1    1    2  503  501  0.10324736677E+02  0.24625243973E+02 -0.14349588167E+03  0.14595914115E+03  0.00000000000E+00 0. -1.
          1    1    1    2  501    0  0.69657040899E+01 -0.26459492745E+02  0.52082131954E+02  0.58831745331E+02  0.00000000000E+00 0. -1.
<scales pt_clust_5="13000.00000" pt_clust_6="13000.00000" pt_clust_7="13000.00000" pt_clust_8="13000.00000" pt_clust_9="26.70211" pt_clust_10="13000.00000"></scales>
<clustering>
<clus scale="   26.702">  2  9  1 -1</clus>
<clus scale="   80.178">  5  6 -1 -1</clus>
<clus scale="   81.535">  1  5  2 -1</clus>
<clus scale="   90.763">  7  8 -1 -1</clus>
<clus scale="   32.970">  7 10 -1 -1</clus>
<clus scale="   26.702">  2  5  1 -1</clus>
</clustering>
</event>
<event>
10    4  0.2759992E-005  0.3086255E+03  0.7546771E-02  0.1084308E+00
         -3   -1    0    0    0  501 -0.00000000000E+00  0.00000000000E+00  0.19552093778E+03  0.19552093778E+03  0.00000000000E+00 0.  1.
         21   -1    0    0  503  502  0.00000000000E+00 -0.00000000000E+00 -0.61768550716E+03  0.61768550716E+03  0.00000000000E+00 0.  1.
         24    2    1    2    0    0 -0.26038024884E+03 -0.63916766454E+02 -0.56947151833E+02  0.28542368522E+03  0.79627099447E+02 0.  0.
         23    2    1    2    0    0  0.23935333745E+03  0.38881036564E+02 -0.23565632839E+03  0.35013853041E+03  0.90891860005E+02 0.  0.
        -13    1    3    3    0    0 -0.12507831862E+03 -0.34839694944E+02  0.12765361322E+02  0.13046587517E+03  0.00000000000E+00 0.  1.
         14    1    3    3    0    0 -0.13530193022E+03 -0.29077071510E+02 -0.69712513155E+02  0.15495781006E+03  0.00000000000E+00 0. -1.
        -11    1    4    4    0    0  0.16622634764E+03  0.10325069393E+02 -0.20897529229E+03  0.26722364883E+03  0.00000000000E+00 0.  1.
         11    1    4    4    0    0  0.73126989806E+02  0.28555967170E+02 -0.26681036097E+02  0.82914881573E+02  0.00000000000E+00 0. -1.
         21    1    1    2  503  501 -0.12381916455E+02  0.17344457429E+02 -0.14015195221E+03  0.14176287161E+03  0.00000000000E+00 0. -1.
         -4    1    1    2    0  502  0.33408827846E+02  0.76912724614E+01  0.10590863055E+02  0.35881357700E+02  0.00000000000E+00 0.  1.
<scales pt_clust_5="13000.00000" pt_clust_6="13000.00000" pt_clust_7="13000.00000" pt_clust_8="13000.00000" pt_clust_9="21.31061" pt_clust_10="13000.00000"></scales>
<clustering>
<clus scale="   21.311">  2  9  1 -1</clus>
<clus scale="   79.627">  5  6 -1 -1</clus>
<clus scale="   90.892">  7  8 -1 -1</clus>
<clus scale="   34.070">  7 10 -1 -1</clus>
<clus scale="  282.492">  1  5  2 -1</clus>
<clus scale="   21.311">  2  5  1 -1</clus>
</clustering>
</event>
<event>
10    4  0.2759992E-005  0.2380782E+03  0.7546771E-02  0.1160645E+00
         21   -1    0    0  501  502  0.00000000000E+00  0.00000000000E+00  0.25720817391E+03  0.25720817391E+03  0.00000000000E+00 0. -1.
          2   -1    0    0  503    0 -0.00000000000E+00 -0.00000000000E+00 -0.26538764232E+03  0.26538764232E+03  0.00000000000E+00 0. -1.
         24    2    1    2    0    0  0.24545274330E+02 -0.50713232646E+02  0.14115773041E+03  0.17449845051E+03  0.85731568975E+02 0.  0.
         23    2    1    2    0    0  0.44291555321E+02 -0.81410804278E+02  0.31882082616E+01  0.11936128133E+03  0.75149782992E+02 0.  0.
        -11    1    3    3    0    0  0.26972153097E+02 -0.43334712524E+02  0.22829967197E+02  0.55916024129E+02  0.00000000000E+00 0.  1.
         12    1    3    3    0    0 -0.24268787668E+01 -0.73785201225E+01  0.11832776321E+03  0.11858242638E+03  0.00000000000E+00 0. -1.
        -13    1    4    4    0    0 -0.21105985018E+02 -0.22718975755E+02 -0.36457297802E+01  0.31223481685E+02  0.00000000000E+00 0.  1.
         13    1    4    4    0    0  0.65397540338E+02 -0.58691828523E+02  0.68339380418E+01  0.88137799648E+02  0.00000000000E+00 0. -1.
         21    1    1    2  503  502  0.77165758187E+01  0.57136988778E+02 -0.82770866241E+02  0.10087218312E+03  0.00000000000E+00 0. -1.
          1    1    1    2  501    0 -0.76553405470E+02  0.74987048146E+02 -0.69754540837E+02  0.12786390126E+03  0.00000000000E+00 0. -1.
<scales pt_clust_5="13000.00000" pt_clust_6="13000.00000" pt_clust_7="13000.00000" pt_clust_8="13000.00000" pt_clust_9="57.65574" pt_clust_10="13000.00000"></scales>
<clustering>
<clus scale="   57.656">  1  9  2 -1</clus>
<clus scale="   75.150">  7  8 -1 -1</clus>
<clus scale="   85.732">  5  6 -1 -1</clus>
<clus scale="   91.782">  2  5  1 -1</clus>
<clus scale="   93.247">  7 10 -1 -1</clus>
<clus scale="   57.656">  1  5  2 -1</clus>
</clustering>
</event>
<event>
10    4  0.2759992E-005  0.6941666E+03  0.7546771E-02  0.1014692E+00
         21   -1    0    0  503  502  0.00000000000E+00  0.00000000000E+00  0.11799564700E+03  0.11799564700E+03  0.00000000000E+00 0. -1.
          2   -1    0    0  502    0 -0.00000000000E+00 -0.00000000000E+00 -0.20147738583E+04  0.20147738583E+04  0.00000000000E+00 0. -1.
         24    2    1    2    0    0  0.74679707346E+01  0.17971364901E+03 -0.32487501545E+03  0.38072990694E+03  0.84016189777E+02 0.  0.
         23    2    1    2    0    0  0.92194432256E+02  0.18536691290E+03 -0.17446079242E+03  0.28562873909E+03  0.91030229946E+02 0.  0.
        -13    1    3    3    0    0  0.38459050781E+02  0.83695252188E+02 -0.19997735998E+03  0.22017024851E+03  0.00000000000E+00 0.  1.
         14    1    3    3    0    0 -0.30991080046E+02  0.96018396827E+02 -0.12489765547E+03  0.16055965842E+03  0.00000000000E+00 0. -1.
        -11    1    4    4    0    0  0.13259865095E+02  0.12760810143E+03 -0.10203702534E+03  0.16392439145E+03  0.00000000000E+00 0.  1.
         11    1    4    4    0    0  0.78934567161E+02  0.57758811472E+02 -0.72423767077E+02  0.12170434763E+03  0.00000000000E+00 0. -1.
         21    1    1    2  503  501  0.26207765714E+02 -0.70827898224E+02 -0.77456627883E+02  0.10818025399E+03  0.00000000000E+00 0. -1.
          1    1    1    2  501    0 -0.12587016871E+03 -0.29425266369E+03 -0.13199857755E+04  0.13582306052E+04  0.00000000000E+00 0. -1.
<scales pt_clust_5="13000.00000" pt_clust_6="13000.00000" pt_clust_7="13000.00000" pt_clust_8="13000.00000" pt_clust_9="75.52111" pt_clust_10="13000.00000"></scales>
<clustering>
<clus scale="   75.521">  1  9  2 -1</clus>
<clus scale="   84.016">  5  6 -1 -1</clus>
<clus scale="   91.030">  7  8 -1 -1</clus>
<clus scale="  181.695">  2  5  1 -1</clus>
<clus scale="  202.502">  7 10 -1 -1</clus>
<clus scale="   75.521">  1  5  2 -1</clus>
</clustering>
</event>
<event>
10    4  0.2759992E-005  0.2299410E+03  0.7546771E-02  0.1141784E+00
         -1   -1    0    0    0  501 -0.00000000000E+00  0.00000000000E+00  0.32273154756E+03  0.32273154756E+03  0.00000000000E+00 0.  1.
         21   -1    0    0  501  502  0.00000000000E+00 -0.00000000000E+00 -0.19625812212E+03  0.19625812212E+03  0.00000000000E+00 0.  1.
         24    2    1    2    0    0  0.68066670038E+02 -0.11383655537E+03  0.60054903593E+02  0.16662923274E+03  0.81036268735E+02 0.  0.
         23    2    1    2    0    0 -0.77523811812E+02  0.86605595700E+02  0.22087014287E+02  0.15182032979E+03  0.95137299372E+02 0.  0.
        -11    1    3    3    0    0  0.57052577755E+02 -0.11624846374E+03  0.73645074650E+02  0.14897079906E+03  0.00000000000E+00 0.  1.
         12    1    3    3    0    0  0.11014092283E+02  0.24119083764E+01 -0.13590171057E+02  0.17658433685E+02  0.00000000000E+00 0. -1.
        -13    1    4    4    0    0 -0.65799302975E+02  0.10462275592E+03  0.38881907091E+01  0.12365511455E+03  0.00000000000E+00 0.  1.
         13    1    4    4    0    0 -0.11724508837E+02 -0.18017160215E+02  0.18198823578E+02  0.28165215236E+02  0.00000000000E+00 0. -1.
         21    1    1    2  503  502  0.29875719745E+02  0.82491327951E+01 -0.73335270035E+02  0.79615756312E+02  0.00000000000E+00 0.  1.
         -2    1    1    2    0  503 -0.20418577971E+02  0.18981826873E+02  0.11766677759E+03  0.12092435084E+03  0.00000000000E+00 0.  1.
<scales pt_clust_5="13000.00000" pt_clust_6="13000.00000" pt_clust_7="13000.00000" pt_clust_8="13000.00000" pt_clust_9="30.99366" pt_clust_10="13000.00000"></scales>
<clustering>
<clus scale="   30.994">  2  9  1 -1</clus>
<clus scale="   81.036">  5  6 -1 -1</clus>
<clus scale="   95.137">  7  8 -1 -1</clus>
<clus scale="   27.660">  7 10 -1 -1</clus>
<clus scale="  159.131">  1  5  2 -1</clus>
<clus scale="   30.994">  2  5  1 -1</clus>
</clustering>
</event>
<event>
10    4  0.2759992E-005  0.5884183E+03  0.7546771E-02  0.1044279E+00
          2   -1    0    0  502    0 -0.00000000000E+00  0.00000000000E+00  0.11195128304E+04  0.11195128304E+04  0.00000000000E+00 0. -1.
         21   -1    0    0  503  502  0.00000000000E+00 -0.00000000000E+00 -0.18933078096E+03  0.18933078096E+03  0.00000000000E+00 0. -1.
         24    2    1    2    0    0 -0.85096799139E+02 -0.34095252355E+02  0.14260110209E+03  0.18748643518E+03  0.80075824097E+02 0.  0.
         23    2    1    2    0    0 -0.16429062800E+03 -0.10488589046E+03  0.62178573417E+03  0.65850973744E+03  0.95000603234E+02 0.  0.
        -13    1    3    3    0    0 -0.90077120699E+01 -0.22168413185E+02 -0.16255666361E+01  0.23983742134E+02  0.00000000000E+00 0.  1.
         14    1    3    3    0    0 -0.76089087069E+02 -0.11926839170E+02  0.14422666872E+03  0.16350269305E+03  0.00000000000E+00 0. -1.
        -11    1    4    4    0    0 -0.11287960699E+03 -0.47873546241E+02  0.24483224667E+03  0.27381839075E+03  0.00000000000E+00 0. -1.
         11    1    4    4    0    0 -0.51411021002E+02 -0.57012344215E+02  0.37695348751E+03  0.38469134669E+03  0.00000000000E+00 0.  1.
         21    1    1    2  503  501 -0.53163978742E+01 -0.24049182224E+02 -0.73305211818E+02  0.77332278718E+02  0.00000000000E+00 0. -1.
          1    1    1    2  501    0  0.25470382501E+03  0.16303032503E+03  0.23910042496E+03  0.38551515998E+03  0.00000000000E+00 0. -1.
<scales pt_clust_5="13000.00000" pt_clust_6="13000.00000" pt_clust_7="13000.00000" pt_clust_8="13000.00000" pt_clust_9="24.62980" pt_clust_10="13000.00000"></scales>
<clustering>
<clus scale="   24.630">  2  9  1 -1</clus>
<clus scale="   80.076">  5  6 -1 -1</clus>
<clus scale="   95.001">  7  8 -1 -1</clus>
<clus scale="  123.857">  1  5  2 -1</clus>
<clus scale="  262.528">  7 10 -1 -1</clus>
<clus scale="   24.630">  2  5  1 -1</clus>
</clustering>
</event>
<event>
10    4  0.2759992E-005  0.2289497E+03  0.7546771E-02  0.1168395E+00
         -1   -1    0    0    0  501 -0.00000000000E+00  0.00000000000E+00  0.23470275399E+03  0.23470275399E+03  0.00000000000E+00 0.  1.
         21   -1    0    0  503  502  0.00000000000E+00 -0.00000000000E+00 -0.24770272154E+03  0.24770272154E+03  0.00000000000E+00 0. -1.
         24    2    1    2    0    0  0.20752396327E+02 -0.94228554812E+01 -0.28689493895E+02  0.88416727353E+02  0.80467250836E+02 0.  0.
         23    2    1    2    0    0 -0.83158662840E+02 -0.14099748968E+02  0.14664699480E+03  0.19247958046E+03  0.91808941213E+02 0.  0.
        -11    1    3    3    0    0 -0.22634765415E+02 -0.93009818111E+01 -0.36882711138E+02  0.44262571648E+02  0.00000000000E+00 0.  1.
         12    1    3    3    0    0  0.43387161742E+02 -0.12187367018E+00  0.81932172433E+01  0.44154155705E+02  0.00000000000E+00 0. -1.
        -11    1    4    4    0    0 -0.76299218918E+02  0.21318040490E+02  0.13114144468E+03  0.15321262406E+03  0.00000000000E+00 0.  1.
         11    1    4    4    0    0 -0.68594439220E+01 -0.35417789459E+02  0.15505550117E+02  0.39266956407E+02  0.00000000000E+00 0. -1.
         21    1    1    2  503  501  0.41320180905E+01 -0.25248771899E+02 -0.12239210524E+03  0.12503760026E+03  0.00000000000E+00 0. -1.
         -2    1    1    2    0  502  0.58274248422E+02  0.48771376348E+02 -0.85653632185E+01  0.76471567443E+02  0.00000000000E+00 0.  1.
<scales pt_clust_5="13000.00000" pt_clust_6="13000.00000" pt_clust_7="13000.00000" pt_clust_8="13000.00000" pt_clust_9="25.58464" pt_clust_10="13000.00000"></scales>
<clustering>
<clus scale="   25.585">  2  9  1 -1</clus>
<clus scale="   80.467">  5  6 -1 -1</clus>
<clus scale="   86.291">  1  5  2 -1</clus>
<clus scale="   91.809">  7  8 -1 -1</clus>
<clus scale="   73.148">  7 10 -1 -1</clus>
<clus scale="   25.585">  2  5  1 -1</clus>
</clustering>
</event>
<event>
10    4  0.2759992E-005  0.3080573E+03  0.7546771E-02  0.1129405E+00
         21   -1    0    0  501  502  0.00000000000E+00  0.00000000000E+00  0.62054882595E+03  0.62054882595E+03  0.00000000000E+00 0. -1.
          2   -1    0    0  503    0 -0.00000000000E+00 -0.00000000000E+00 -0.11818891831E+03  0.11818891831E+03  0.00000000000E+00 0. -1.
         24    2    1    2    0    0  0.32367987127E+02  0.26307230438E+02  0.30656154884E+02  0.95320750342E+02  0.80040543786E+02 0.  0.
         23    2    1    2    0    0  0.99525623460E+02 -0.26229756518E+02  0.22818179220E+03  0.26638130222E+03  0.91097299785E+02 0.  0.
        -11    1    3    3    0    0 -0.14476769704E+01  0.24196396455E+02  0.50528191972E+02  0.56041587718E+02  0.00000000000E+00 0.  1.
         12    1    3    3    0    0  0.33815664097E+02  0.21108339828E+01 -0.19872037088E+02  0.39279162624E+02  0.00000000000E+00 0. -1.
        -13    1    4    4    0    0  0.10784706773E+03 -0.45023254720E+02  0.19591316694E+03  0.22812288895E+03  0.00000000000E+00 0. -1.
         13    1    4    4    0    0 -0.83214442716E+01  0.18793498202E+02  0.32268625261E+02  0.38258413267E+02  0.00000000000E+00 0.  1.
         21    1    1    2  503  502 -0.36399917176E+02  0.22650558926E+02  0.27158014923E+03  0.27494322914E+03  0.00000000000E+00 0. -1.
          1    1    1    2  501    0 -0.95493693411E+02 -0.22728032846E+02 -0.28058188681E+02  0.10209246255E+03  0.00000000000E+00 0. -1.
<scales pt_clust_5="13000.00000" pt_clust_6="13000.00000" pt_clust_7="13000.00000" pt_clust_8="13000.00000" pt_clust_9="42.87192" pt_clust_10="13000.00000"></scales>
<clustering>
<clus scale="   42.872">  1  9  2 -1</clus>
<clus scale="   80.041">  5  6 -1 -1</clus>
<clus scale="   89.417">  2  5  1 -1</clus>
<clus scale="   91.097">  7  8 -1 -1</clus>
<clus scale="   78.589">  7 10 -1 -1</clus>
<clus scale="   42.872">  1  5  2 -1</clus>
</clustering>
</event>
<event>
10    4  0.2759992E-005  0.2145229E+03  0.7546771E-02  0.1178410E+00
         21   -1    0    0  501  502  0.00000000000E+00  0.00000000000E+00  0.51115250199E+02  0.51115250199E+02  0.00000000000E+00 0.  1.
          4   -1    0    0  503    0 -0.00000000000E+00 -0.00000000000E+00 -0.73365655307E+03  0.73365655307E+03  0.00000000000E+00 0. -1.
         24    2    1    2    0    0  0.97479028062E+00 -0.79859841311E+00 -0.33633068051E+02  0.88142770426E+02  0.81463959739E+02 0.  0.
         23    2    1    2    0    0 -0.58841228390E+02  0.46747501409E+02 -0.21880327127E+03  0.24916264276E+03  0.92517738736E+02 0.  0.
        -11    1    3    3    0    0 -0.35742442819E+02  0.16952470821E+02 -0.92479787978E+01  0.40625528889E+02  0.00000000000E+00 0.  1.
         12    1    3    3    0    0  0.36717233100E+02 -0.17751069234E+02 -0.24385089253E+02  0.47517241538E+02  0.00000000000E+00 0. -1.
        -11    1    4    4    0    0 -0.19309430511E+02  0.36281187630E+02 -0.19109968881E+02  0.45325154088E+02  0.00000000000E+00 0.  1.
         11    1    4    4    0    0 -0.39531797879E+02  0.10466313779E+02 -0.19969330239E+03  0.20383748867E+03  0.00000000000E+00 0. -1.
         21    1    1    2  503  502 -0.12505021226E+02 -0.27749455796E+02 -0.38028033481E+02  0.48708717733E+02  0.00000000000E+00 0. -1.
          3    1    1    2  501    0  0.70371459335E+02 -0.18199447200E+02 -0.39207693007E+03  0.39875767235E+03  0.00000000000E+00 0. -1.
<scales pt_clust_5="13000.00000" pt_clust_6="13000.00000" pt_clust_7="13000.00000" pt_clust_8="13000.00000" pt_clust_9="30.43695" pt_clust_10="13000.00000"></scales>
<clustering>
<clus scale="   30.437">  1  9  2 -1</clus>
<clus scale="   81.464">  5  6 -1 -1</clus>
<clus scale="   83.536">  2  5  1 -1</clus>
<clus scale="   92.518">  7  8 -1 -1</clus>
<clus scale="   72.397">  7 10 -1 -1</clus>
<clus scale="   30.437">  1  5  2 -1</clus>
</clustering>
</event>
<event>
10    4  0.2759992E-005  0.2944703E+03  0.7546771E-02  0.1107985E+00
         21   -1    0    0  501  502  0.00000000000E+00  0.00000000000E+00  0.23786910085E+03  0.23786910085E+03  0.00000000000E+00 0. -1.
          2   -1    0    0  503    0 -0.00000000000E+00 -0.00000000000E+00 -0.13755030709E+04  0.13755030709E+04  0.00000000000E+00 0. -1.
         24    2    1    2    0    0 -0.60655626843E+02 -0.17551262297E+03 -0.46018517509E+03  0.50274901142E+03  0.80637380998E+02 0.  0.
         23    2    1    2    0    0 -0.14147077397E+02  0.11060376908E+03 -0.39723361814E+03  0.42254909201E+03  0.91213235053E+02 0.  0.
        -13    1    3    3    0    0  0.16762865338E+01 -0.10598501015E+03 -0.28777741682E+03  0.30667812760E+03  0.00000000000E+00 0.  1.
         14    1    3    3    0    0 -0.62331913376E+02 -0.69527612825E+02 -0.17240775827E+03  0.19607088382E+03  0.00000000000E+00 0. -1.
        -11    1    4    4    0    0 -0.50292496567E+02  0.70505498565E+02 -0.19761067450E+03  0.21575527622E+03  0.00000000000E+00 0. -1.
         11    1    4    4    0    0  0.36145419171E+02  0.40098270517E+02 -0.19962294363E+03  0.20679381579E+03  0.00000000000E+00 0.  1.
         21    1    1    2  503  502 -0.63262301609E+02  0.10390012974E+03  0.17368165065E+03  0.21204403207E+03  0.00000000000E+00 0. -1.
          1    1    1    2  501    0  0.13806500585E+03 -0.38991275845E+02 -0.45389682751E+03  0.47603003630E+03  0.00000000000E+00 0. -1.
<scales pt_clust_5="13000.00000" pt_clust_6="13000.00000" pt_clust_7="13000.00000" pt_clust_8="13000.00000" pt_clust_9="121.64438" pt_clust_10="13000.00000"></scales>
<clustering>
<clus scale="   80.637">  5  6 -1 -1</clus>
<clus scale="   91.213">  7  8 -1 -1</clus>
<clus scale="  121.644">  1  9  2 -1</clus>
<clus scale="  123.245">  7 10 -1 -1</clus>
<clus scale="  175.151">  2  5  1 -1</clus>
<clus scale="  121.644">  1  5  2 -1</clus>
</clustering>
</event>
<event>
10    4  0.2759992E-005  0.1724611E+03  0.7546771E-02  0.1184945E+00
          2   -1    0    0  502    0 -0.00000000000E+00  0.00000000000E+00  0.21530976385E+03  0.21530976385E+03  0.00000000000E+00 0. -1.
         21   -1    0    0  503  502  0.00000000000E+00 -0.00000000000E+00 -0.34878983341E+03  0.34878983341E+03  0.00000000000E+00 0. -1.
         24    2    1    2    0    0 -0.67009225291E+02  0.29265063834E+02 -0.10293100143E+03  0.15481532263E+03  0.89589691548E+02 0.  0.
         23    2    1    2    0    0  0.85079746243E+02  0.44815166410E+02  0.12371216264E+03  0.18324691640E+03  0.95014582175E+02 0.  0.
        -13    1    3    3    0    0 -0.74695306049E+02 -0.10052296859E+02 -0.62695001364E+02  0.98036220929E+02  0.00000000000E+00 0.  1.
         14    1    3    3    0    0  0.76860807583E+01  0.39317360692E+02 -0.40236000063E+02  0.56779101704E+02  0.00000000000E+00 0. -1.
        -11    1    4    4    0    0 -0.18740956261E+02  0.21841200179E+02  0.28843750360E+02  0.40745839071E+02  0.00000000000E+00 0.  1.
         11    1    4    4    0    0  0.10382070250E+03  0.22973966231E+02  0.94868412279E+02  0.14250107733E+03  0.00000000000E+00 0. -1.
         21    1    1    2  503  501 -0.52606555696E+02 -0.49381418855E+02 -0.16682407851E+03  0.18175876156E+03  0.00000000000E+00 0. -1.
          1    1    1    2  501    0  0.34536034744E+02 -0.24698811388E+02  0.12562847745E+02  0.44278596672E+02  0.00000000000E+00 0. -1.
<scales pt_clust_5="13000.00000" pt_clust_6="13000.00000" pt_clust_7="13000.00000" pt_clust_8="13000.00000" pt_clust_9="72.15244" pt_clust_10="13000.00000"></scales>
<clustering>
<clus scale="   72.152">  2  9  1 -1</clus>
<clus scale="   89.590">  5  6 -1 -1</clus>
<clus scale="   95.015">  7  8 -1 -1</clus>
<clus scale="   41.680">  7 10 -1 -1</clus>
<clus scale="  138.870">  1  5  2 -1</clus>
<clus scale="   72.152">  2  5  1 -1</clus>
</clustering>
</event>
<event>
10    4  0.2759992E-005  0.1828961E+03  0.7546771E-02  0.1197689E+00
         21   -1    0    0  501  502  0.00000000000E+00  0.00000000000E+00  0.12722895685E+03  0.12722895685E+03  0.00000000000E+00 0.  1.
         -3   -1    0    0    0  501 -0.00000000000E+00 -0.00000000000E+00 -0.26376358644E+03  0.26376358644E+03  0.00000000000E+00 0.  1.
         24    2    1    2    0    0  0.24361487530E+02  0.92658046890E+01 -0.15898835339E+02  0.85282039581E+02  0.79629869388E+02 0.  0.
         23    2    1    2    0    0  0.60876328127E+02 -0.60540635681E+02 -0.26017614541E+02  0.12803101922E+03  0.91345113286E+02 0.  0.
        -11    1    3    3    0    0  0.18101488985E+02  0.42807660194E+02 -0.20600949991E+02  0.50838556385E+02  0.00000000000E+00 0.  1.
         12    1    3    3    0    0  0.62599985443E+01 -0.33541855505E+02  0.47021146520E+01  0.34443483196E+02  0.00000000000E+00 0. -1.
        -13    1    4    4    0    0  0.81504847536E+02 -0.27767430672E+02 -0.12462278651E+02  0.87002176796E+02  0.00000000000E+00 0. -1.
         13    1    4    4    0    0 -0.20628519409E+02 -0.32773205009E+02 -0.13555335890E+02  0.41028842424E+02  0.00000000000E+00 0.  1.
         21    1    1    2  503  502 -0.37663682556E+02  0.71276015872E+02 -0.13797919707E+02  0.81787566357E+02  0.00000000000E+00 0.  1.
         -4    1    1    2    0  503 -0.47574133100E+02 -0.20001184880E+02 -0.80820260000E+02  0.95891918134E+02  0.00000000000E+00 0.  1.
<scales pt_clust_5="13000.00000" pt_clust_6="13000.00000" pt_clust_7="13000.00000" pt_clust_8="13000.00000" pt_clust_9="80.61528" pt_clust_10="13000.00000"></scales>
<clustering>
<clus scale="   79.630">  5  6 -1 -1</clus>
<clus scale="   80.615">  1  9  2 -1</clus>
<clus scale="   87.913">  2  5  1 -1</clus>
<clus scale="   91.345">  7  8 -1 -1</clus>
<clus scale="   45.417">  7 10 -1 -1</clus>
<clus scale="   80.615">  1  5  2 -1</clus>
</clustering>
</event>
<event>
10    4  0.2759992E-005  0.8655317E+03  0.7546771E-02  0.9779748E-01
          2   -1    0    0  503    0 -0.00000000000E+00  0.00000000000E+00  0.18684761011E+04  0.18684761011E+04  0.00000000000E+00 0. -1.
         21   -1    0    0  501  502  0.00000000000E+00 -0.00000000000E+00 -0.28090858179E+03  0.28090858179E+03  0.00000000000E+00 0. -1.
         24    2    1    2    0    0  0.14611129017E+03  0.24133551685E+03  0.27368337245E+03  0.40156720439E+03  0.82233147112E+02 0.  0.
         23    2    1    2    0    0  0.92936130544E+02  0.50567859835E+02 -0.45587160842E+02  0.14780180753E+03  0.92590238500E+02 0.  0.
        -13    1    3    3    0    0  0.67199247304E+02  0.43224637743E+02  0.62461067947E+02  0.10141742037E+03  0.00000000000E+00 0.  1.
         14    1    3    3    0    0  0.78912042861E+02  0.19811087911E+03  0.21122230450E+03  0.30014978402E+03  0.00000000000E+00 0. -1.
        -11    1    4    4    0    0 -0.10955426551E+02  0.32904319988E+02 -0.58168673579E+01  0.35164635512E+02  0.00000000000E+00 0.  1.
         11    1    4    4    0    0  0.10389155710E+03  0.17663539847E+02 -0.39770293484E+02  0.11263717201E+03  0.00000000000E+00 0. -1.
         21    1    1    2  503  502  0.79400446254E+02 -0.27232047631E+02 -0.71545812105E+02  0.11029423608E+03  0.00000000000E+00 0. -1.
          1    1    1    2  501    0 -0.31844786696E+03 -0.26467132905E+03  0.14310171198E+04  0.14897214349E+04  0.00000000000E+00 0. -1.
<scales pt_clust_5="13000.00000" pt_clust_6="13000.00000" pt_clust_7="13000.00000" pt_clust_8="13000.00000" pt_clust_9="83.94055" pt_clust_10="13000.00000"></scales>
<clustering>
<clus scale="   82.233">  5  6 -1 -1</clus>
<clus scale="   83.941">  2  9  1 -1</clus>
<clus scale="   92.590">  7  8 -1 -1</clus>
<clus scale="  300.894">  1  5  2 -1</clus>
<clus scale="  152.017">  7 10 -1 -1</clus>
<clus scale="   83.941">  2  5  1 -1</clus>
</clustering>
</event>
<event>
10    4  0.2759992E-005  0.3418276E+03  0.7546771E-02  0.1116048E+00
         21   -1    0    0  501  502  0.00000000000E+00  0.00000000000E+00  0.10131288666E+03  0.10131288666E+03  0.00000000000E+00 0. -1.
          2   -1    0    0  503    0 -0.00000000000E+00 -0.00000000000E+00 -0.13027362768E+04  0.13027362768E+04  0.00000000000E+00 0. -1.
         24    2    1    2    0    0  0.39209203336E+02 -0.22001654489E+02 -0.59716294945E+02  0.10905712279E+03  0.79410236890E+02 0.  0.
         23    2    1    2    0    0 -0.45329620258E+02  0.80851507358E+01 -0.11062357555E+03  0.15048056484E+03  0.91031207795E+02 0.  0.
        -13    1    3    3    0    0  0.54538623439E+02 -0.39951422151E+02 -0.45729516870E+02  0.81619644031E+02  0.00000000000E+00 0.  1.
         14    1    3    3    0    0 -0.15329420102E+02  0.17949767662E+02 -0.13986778075E+02  0.27437478760E+02  0.00000000000E+00 0. -1.
        -11    1    4    4    0    0 -0.32105612342E+02 -0.38844191457E+02 -0.38479894513E+02  0.63406181367E+02  0.00000000000E+00 0. -1.
         11    1    4    4    0    0 -0.13224007916E+02  0.46929342193E+02 -0.72143681034E+02  0.87074383473E+02  0.00000000000E+00 0.  1.
         21    1    1    2  503  502  0.19699331880E+03  0.11294862983E+03 -0.26579710398E+03  0.34958813068E+03  0.00000000000E+00 0. -1.
          1    1    1    2  501    0 -0.19087290187E+03 -0.99032126075E+02 -0.76528641565E+03  0.79492334513E+03  0.00000000000E+00 0. -1.
<scales pt_clust_5="13000.00000" pt_clust_6="13000.00000" pt_clust_7="13000.00000" pt_clust_8="13000.00000" pt_clust_9="233.10693" pt_clust_10="13000.00000"></scales>
<clustering>
<clus scale="   79.410">  5  6 -1 -1</clus>
<clus scale="   91.031">  7  8 -1 -1</clus>
<clus scale="   91.255">  2  5  1 -1</clus>
<clus scale="  200.686">  7 10 -1 -1</clus>
<clus scale="  233.107">  1  9  2 -1</clus>
<clus scale="  233.107">  1  5  2 -1</clus>
</clustering>
</event>
<event>
10    4  0.2759992E-005  0.1060975E+04  0.7546771E-02  0.9683842E-01
          2   -1    0    0  502    0 -0.00000000000E+00  0.00000000000E+00  0.92560379275E+03  0.92560379275E+03  0.00000000000E+00 0. -1.
         21   -1    0    0  503  502  0.00000000000E+00 -0.00000000000E+00 -0.14013629844E+04  0.14013629844E+04  0.00000000000E+00 0. -1.
         24    2    1    2    0    0 -0.12873721764E+03  0.16682027042E+03  0.30027731408E+03  0.37541793771E+03  0.79811582961E+02 0.  0.
         23    2    1    2    0    0 -0.34299576251E+03 -0.87844817771E+02  0.30944293931E+03  0.47920179849E+03  0.92285567000E+02 0.  0.
        -13    1    3    3    0    0 -0.48653751149E+02  0.12259566487E+03  0.15261521807E+03  0.20171338411E+03  0.00000000000E+00 0.  1.
         14    1    3    3    0    0 -0.80083466492E+02  0.44224605558E+02  0.14766209601E+03  0.17370455360E+03  0.00000000000E+00 0. -1.
        -13    1    4    4    0    0 -0.74516084692E+02 -0.32948536052E+02  0.12380388319E+03  0.14820814552E+03  0.00000000000E+00 0.  1.
         13    1    4    4    0    0 -0.26847967782E+03 -0.54896281719E+02  0.18563905612E+03  0.33099365297E+03  0.00000000000E+00 0. -1.
         21    1    1    2  503  501 -0.79830232476E+02 -0.72994733333E+02 -0.87546662735E+03  0.88212409145E+03  0.00000000000E+00 0. -1.
          1    1    1    2  501    0  0.55156321263E+03 -0.59807193210E+01 -0.21001281770E+03  0.59022294951E+03  0.00000000000E+00 0. -1.
<scales pt_clust_5="13000.00000" pt_clust_6="13000.00000" pt_clust_7="13000.00000" pt_clust_8="13000.00000" pt_clust_9="108.17161" pt_clust_10="13000.00000"></scales>
<clustering>
<clus scale="   79.812">  5  6 -1 -1</clus>
<clus scale="   92.286">  7  8 -1 -1</clus>
<clus scale="  108.172">  2  9  1 -1</clus>
<clus scale="  224.854">  1  5  2 -1</clus>
<clus scale="  454.573">  7 10 -1 -1</clus>
<clus scale="  108.172">  2  5  1 -1</clus>
</clustering>
</event>
<event>
10    4  0.2759992E-005  0.9230657E+03  0.7546771E-02  0.1005144E+00
         21   -1    0    0  503  502  0.00000000000E+00  0.00000000000E+00  0.79181613567E+03  0.79181613567E+03  0.00000000000E+00 0. -1.
          2   -1    0    0  502    0 -0.00000000000E+00 -0.00000000000E+00 -0.45826941799E+03  0.45826941799E+03  0.00000000000E+00 0. -1.
         24    2    1    2    0    0  0.59119240346E+02 -0.38442111639E+02  0.68568637416E+02  0.12743361773E+03  0.81023381583E+02 0.  0.
         23    2    1    2    0    0 -0.18463684818E+03 -0.25233949954E+03 -0.30896165398E+03  0.44915830393E+03  0.92303248199E+02 0.  0.
        -11    1    3    3    0    0 -0.19459288637E+02 -0.14283857888E+02  0.23467527404E+02  0.33666264314E+02  0.00000000000E+00 0.  1.
         12    1    3    3    0    0  0.78578528983E+02 -0.24158253751E+02  0.45101110012E+02  0.93767353411E+02  0.00000000000E+00 0. -1.
        -13    1    4    4    0    0 -0.31594215309E+02 -0.71628040583E+01 -0.11415913489E+02  0.34348555774E+02  0.00000000000E+00 0.  1.
         13    1    4    4    0    0 -0.15304263287E+03 -0.24517669548E+03 -0.29754574049E+03  0.41480974816E+03  0.00000000000E+00 0. -1.
         21    1    1    2  503  501 -0.14182581042E+02  0.43331720699E+02  0.19259859218E+03  0.19792170506E+03  0.00000000000E+00 0. -1.
          1    1    1    2  501    0  0.13970018887E+03  0.24744989048E+03  0.38134114206E+03  0.47557192694E+03  0.00000000000E+00 0. -1.
<scales pt_clust_5="13000.00000" pt_clust_6="13000.00000" pt_clust_7="13000.00000" pt_clust_8="13000.00000" pt_clust_9="45.59368" pt_clust_10="13000.00000"></scales>
<clustering>
<clus scale="   45.594">  1  9  2 -1</clus>
<clus scale="   81.023">  5  6 -1 -1</clus>
<clus scale="   92.303">  7  8 -1 -1</clus>
<clus scale="  103.783">  2  5  1 -1</clus>
<clus scale="  306.732">  7 10 -1 -1</clus>
<clus scale="   45.594">  1  5  2 -1</clus>
</clustering>
</event>
<event>
10    4  0.2759992E-005  0.1557705E+03  0.7546771E-02  0.1224532E+00
          2   -1    0    0  503    0 -0.00000000000E+00  0.00000000000E+00  0.88493002377E+03  0.88493002377E+03  0.00000000000E+00 0. -1.
         21   -1    0    0  501  502  0.00000000000E+00 -0.00000000000E+00 -0.29947677449E+02  0.29947677449E+02  0.00000000000E+00 0.  1.
         24    2    1    2    0    0 -0.96707112057E+01  0.18365191161E+02  0.25197716923E+03  0.26520418912E+03  0.80062258344E+02 0.  0.
         23    2    1    2    0    0 -0.14913747237E+02  0.66802575682E+02  0.36562602501E+03  0.38239941173E+03  0.88667445836E+02 0.  0.
        -13    1    3    3    0    0  0.21518217902E+02  0.12199312081E+02  0.22196855528E+02  0.33234880958E+02  0.00000000000E+00 0.  1.
         14    1    3    3    0    0 -0.31188929108E+02  0.61658790805E+01  0.22978031370E+03  0.23196930816E+03  0.00000000000E+00 0. -1.
        -11    1    4    4    0    0 -0.32247025264E+02  0.62291054275E+01  0.45400432697E+02  0.56034557925E+02  0.00000000000E+00 0.  1.
         11    1    4    4    0    0  0.17333278026E+02  0.60573470254E+02  0.32022559231E+03  0.32636485380E+03  0.00000000000E+00 0. -1.
         21    1    1    2  503  502  0.95168264393E+01 -0.44310257369E+02  0.27688882358E+02  0.53109726979E+02  0.00000000000E+00 0. -1.
          1    1    1    2  501    0  0.15067632004E+02 -0.40857509474E+02  0.20969026973E+03  0.21416437340E+03  0.00000000000E+00 0. -1.
<scales pt_clust_5="13000.00000" pt_clust_6="13000.00000" pt_clust_7="13000.00000" pt_clust_8="13000.00000" pt_clust_9="45.32073" pt_clust_10="13000.00000"></scales>
<clustering>
<clus scale="   45.321">  2  9  1 -1</clus>
<clus scale="   80.062">  5  6 -1 -1</clus>
<clus scale="   80.300">  1  5  2 -1</clus>
<clus scale="   88.667">  7  8 -1 -1</clus>
<clus scale="   47.938">  7 10 -1 -1</clus>
<clus scale="   45.321">  2  5  1 -1</clus>
</clustering>
</event>
<event>
10    4  0.2759992E-005  0.1976593E+03  0.7546771E-02  0.1182732E+00
          2   -1    0    0  503    0 -0.00000000000E+00  0.00000000000E+00  0.24670892575E+04  0.24670892575E+04  0.00000000000E+00 0. -1.
         21   -1    0    0  501  502  0.00000000000E+00 -0.00000000000E+00 -0.20432000087E+02  0.20432000087E+02  0.00000000000E+00 0. -1.
         24    2    1    2    0    0 -0.49153912395E+02  0.24116529656E+02  0.16565509695E+04  0.16593025297E+04  0.78269127750E+02 0.  0.
         23    2    1    2    0    0  0.70145325616E+02  0.25834554532E+02  0.62868764811E+03  0.63968386343E+03  0.91430275797E+02 0.  0.
        -11    1    3    3    0    0 -0.13241425329E+02  0.19779605798E+02  0.12064606356E+03  0.12297170732E+03  0.00000000000E+00 0.  1.
         12    1    3    3    0    0 -0.35912487067E+02  0.43369238581E+01  0.15359049059E+04  0.15363308223E+04  0.00000000000E+00 0. -1.
        -13    1    4    4    0    0  0.68516120319E+02 -0.20377169551E+02  0.35639909297E+03  0.36349690680E+03  0.00000000000E+00 0.  1.
         13    1    4    4    0    0  0.16292052969E+01  0.46211724083E+02  0.27228855514E+03  0.27618695663E+03  0.00000000000E+00 0. -1.
         21    1    1    2  503  502 -0.38205328974E+02 -0.98329272808E+01  0.12687176634E+03  0.13286375998E+03  0.00000000000E+00 0.  1.
          1    1    1    2  501    0  0.17213915753E+02 -0.40118156907E+02  0.34546873450E+02  0.55671104483E+02  0.00000000000E+00 0. -1.
<scales pt_clust_5="13000.00000" pt_clust_6="13000.00000" pt_clust_7="13000.00000" pt_clust_8="13000.00000" pt_clust_9="39.45039" pt_clust_10="13000.00000"></scales>
<clustering>
<clus scale="   39.450">  2  9  1 -1</clus>
<clus scale="   78.269">  5  6 -1 -1</clus>
<clus scale="   91.430">  7  8 -1 -1</clus>
<clus scale="   46.455">  7 10 -1 -1</clus>
<clus scale="   96.914">  1  5  2 -1</clus>
<clus scale="   39.450">  2  5  1 -1</clus>
</clustering>
</event>
<event>
10    4  0.2759992E-005  0.1748874E+03  0.7546771E-02  0.1198264E+00
          2   -1    0    0  503    0 -0.00000000000E+00  0.00000000000E+00  0.21539747917E+03  0.21539747917E+03  0.00000000000E+00 0. -1.
         21   -1    0    0  501  502  0.00000000000E+00 -0.00000000000E+00 -0.18579227775E+03  0.18579227775E+03  0.00000000000E+00 0.  1.
         24    2    1    2    0    0  0.34649163950E+01  0.19643790291E+02  0.47917205019E+02  0.10553052701E+03  0.91884435306E+02 0.  0.
         23    2    1    2    0    0 -0.68251792119E+01 -0.10904337800E+02 -0.14878425625E+02  0.96505871311E+02  0.94480304795E+02 0.  0.
        -11    1    3    3    0    0 -0.28780945726E+02  0.41017218017E+02  0.43932893713E+02  0.66639734098E+02  0.00000000000E+00 0.  1.
         12    1    3    3    0    0  0.32245862121E+02 -0.21373427725E+02  0.39843113067E+01  0.38890792911E+02  0.00000000000E+00 0. -1.
        -13    1    4    4    0    0 -0.12446905237E+02  0.39868303784E+02 -0.17662299065E+02  0.45347148806E+02  0.00000000000E+00 0.  1.
         13    1    4    4    0    0  0.56217260252E+01 -0.50772641584E+02  0.27838734407E+01  0.51158722504E+02  0.00000000000E+00 0. -1.
         21    1    1    2  503  502 -0.80062559223E+00  0.61131928652E+02 -0.76527715844E+02  0.97950216919E+02  0.00000000000E+00 0.  1.
          1    1    1    2  501    0  0.41608884092E+01 -0.69871381143E+02  0.73094137866E+02  0.10120314168E+03  0.00000000000E+00 0. -1.
<scales pt_clust_5="13000.00000" pt_clust_6="13000.00000" pt_clust_7="13000.00000" pt_clust_8="13000.00000" pt_clust_9="61.13717" pt_clust_10="13000.00000"></scales>
<clustering>
<clus scale="   61.137">  2  9  1 -1</clus>
<clus scale="   91.884">  5  6 -1 -1</clus>
<clus scale="   94.480">  7  8 -1 -1</clus>
<clus scale="   61.287">  7 10 -1 -1</clus>
<clus scale="   99.299">  1  5  2 -1</clus>
<clus scale="   61.137">  2  5  1 -1</clus>
</clustering>
</event>
<event>
10    4  0.2759992E-005  0.4298718E+03  0.7546771E-02  0.1070570E+00
          2   -1    0    0  502    0 -0.00000000000E+00  0.00000000000E+00  0.20295994950E+04  0.20295994950E+04  0.00000000000E+00 0. -1.
         21   -1    0    0  503  502  0.00000000000E+00 -0.00000000000E+00 -0.81991988878E+02  0.81991988878E+02  0.00000000000E+00 0. -1.
         24    2    1    2    0    0 -0.11597213536E+03 -0.57862395292E+02  0.46630057113E+03  0.49033506940E+03  0.78706192126E+02 0.  0.
         23    2    1    2    0    0 -0.21123614246E+02 -0.89447571118E+02  0.28386004440E+03  0.31229290860E+03  0.92213127578E+02 0.  0.
        -11    1    3    3    0    0 -0.27735387079E+02 -0.56845793383E+02  0.18443178470E+03  0.19497635531E+03  0.00000000000E+00 0.  1.
         12    1    3    3    0    0 -0.88236748277E+02 -0.10166019081E+01  0.28186878643E+03  0.29535871409E+03  0.00000000000E+00 0. -1.
        -13    1    4    4    0    0  0.19393899252E+02 -0.52841415333E+02  0.61688053408E+02  0.83509008112E+02  0.00000000000E+00 0. -1.
         13    1    4    4    0    0 -0.40517513498E+02 -0.36606155785E+02  0.22217199099E+03  0.22878390049E+03  0.00000000000E+00 0.  1.
         21    1    1    2  503  501 -0.15553946238E+03 -0.50668347904E+02  0.26038122738E+03  0.30750315349E+03  0.00000000000E+00 0. -1.
          1    1    1    2  501    0  0.29263521198E+03  0.19797831431E+03  0.93706566320E+03  0.10014603524E+04  0.00000000000E+00 0. -1.
<scales pt_clust_5="13000.00000" pt_clust_6="13000.00000" pt_clust_7="13000.00000" pt_clust_8="13000.00000" pt_clust_9="187.08063" pt_clust_10="13000.00000"></scales>
<clustering>
<clus scale="   78.706">  5  6 -1 -1</clus>
<clus scale="   92.213">  7  8 -1 -1</clus>
<clus scale="  151.632">  1  5  2 -1</clus>
<clus scale="  187.081">  2  9  1 -1</clus>
<clus scale="  182.095">  7 10 -1 -1</clus>
<clus scale="  187.081">  2  5  1 -1</clus>
</clustering>
</event>
<event>
10    4  0.2759992E-005  0.3573850E+03  0.7546771E-02  0.1113835E+00
          2   -1    0    0  502    0 -0.00000000000E+00  0.00000000000E+00  0.50845017330E+03  0.50845017330E+03  0.00000000000E+00 0. -1.
         21   -1    0    0  503  502  0.00000000000E+00 -0.00000000000E+00 -0.15925535867E+03  0.15925535867E+03  0.00000000000E+00 0. -1.
         24    2    1    2    0    0  0.19010295755E+02 -0.18565322866E+02  0.14390643023E+03  0.16683900057E+03  0.80125706821E+02 0.  0.
         23    2    1    2    0    0  0.39905870132E+02  0.10289016818E+03 -0.40974714424E+02  0.15051983956E+03  0.93799945089E+02 0.  0.
        -13    1    3    3    0    0 -0.15749060986E+02  0.17856162441E+02  0.14242728860E+02  0.27744022499E+02  0.00000000000E+00 0.  1.
         14    1    3    3    0    0  0.34759356741E+02 -0.36421485307E+02  0.12966370137E+03  0.13909497807E+03  0.00000000000E+00 0. -1.
        -11    1    4    4    0    0  0.13318052699E+02  0.91934211922E+02  0.85135742964E+01  0.93283175314E+02  0.00000000000E+00 0. -1.
         11    1    4    4    0    0  0.26587817432E+02  0.10955956263E+02 -0.49488288720E+02  0.57236664245E+02  0.00000000000E+00 0.  1.
         21    1    1    2  503  501 -0.46553874524E+02 -0.38232430444E+02 -0.31868236622E+02  0.68151056311E+02  0.00000000000E+00 0. -1.
          1    1    1    2  501    0 -0.12362291363E+02 -0.46092414874E+02  0.27813133545E+03  0.28219563554E+03  0.00000000000E+00 0. -1.
<scales pt_clust_5="13000.00000" pt_clust_6="13000.00000" pt_clust_7="13000.00000" pt_clust_8="13000.00000" pt_clust_9="60.24103" pt_clust_10="13000.00000"></scales>
<clustering>
<clus scale="   60.241">  2  9  1 -1</clus>
<clus scale="   80.126">  5  6 -1 -1</clus>
<clus scale="   84.436">  1  5  2 -1</clus>
<clus scale="   93.800">  7  8 -1 -1</clus>
<clus scale="   65.645">  7 10 -1 -1</clus>
<clus scale="   60.241">  2  5  1 -1</clus>
</clustering>
</event>
<event>
10    4  0.2759992E-005  0.1207278E+03  0.7546771E-02  0.1250870E+00
          2   -1    0    0  503    0 -0.00000000000E+00  0.00000000000E+00  0.80320419524E+03  0.80320419524E+03  0.00000000000E+00 0. -1.
         21   -1    0    0  501  502  0.00000000000E+00 -0.00000000000E+00 -0.85586427282E+02  0.85586427282E+02  0.00000000000E+00 0.  1.
         24    2    1    2    0    0 -0.20489791388E+02  0.67333572537E+02  0.51587347262E+03  0.52675913393E+03  0.79975645538E+02 0.  0.
         23    2    1    2    0    0  0.38047695164E+02 -0.21355241044E+02  0.23911712881E+03  0.25348629612E+03  0.71934884466E+02 0.  0.
        -11    1    3    3    0    0  0.29913001828E+02  0.36511033057E+02  0.24733861482E+03  0.25180197298E+03  0.00000000000E+00 0.  1.
         12    1    3    3    0    0 -0.50402793216E+02  0.30822539479E+02  0.26853485780E+03  0.27495716095E+03  0.00000000000E+00 0. -1.
        -11    1    4    4    0    0  0.41126793819E+02  0.13934225723E+02  0.86196217155E+02  0.96516131647E+02  0.00000000000E+00 0. -1.
         11    1    4    4    0    0 -0.30790986550E+01 -0.35289466767E+02  0.15292091166E+03  0.15697016448E+03  0.00000000000E+00 0.  1.
         21    1    1    2  503  502 -0.39403446583E+02 -0.52029322838E+02 -0.50345205486E+02  0.82427675893E+02  0.00000000000E+00 0.  1.
          1    1    1    2  501    0  0.21845542807E+02  0.60509913455E+01  0.12972372013E+02  0.26117516582E+02  0.00000000000E+00 0. -1.
<scales pt_clust_5="13000.00000" pt_clust_6="13000.00000" pt_clust_7="13000.00000" pt_clust_8="13000.00000" pt_clust_9="65.26624" pt_clust_10="13000.00000"></scales>
<clustering>
<clus scale="   65.266">  2  9  1 -1</clus>
<clus scale="   71.935">  7  8 -1 -1</clus>
<clus scale="   14.427">  7 10 -1 -1</clus>
<clus scale="   79.976">  5  6 -1 -1</clus>
<clus scale="  100.814">  1  5  2 -1</clus>
<clus scale="   65.266">  2  5  1 -1</clus>
</clustering>
</event>
<event>
10    4  0.2759992E-005  0.2154343E+03  0.7546771E-02  0.1170939E+00
         21   -1    0    0  501  502  0.00000000000E+00  0.00000000000E+00  0.16780970515E+03  0.16780970515E+03  0.00000000000E+00 0.  1.
         -1   -1    0    0    0  501 -0.00000000000E+00 -0.00000000000E+00 -0.29707952336E+03  0.29707952336E+03  0.00000000000E+00 0.  1.
         24    2    1    2    0    0  0.55598977219E+02 -0.13722678177E+02 -0.14411505140E+03  0.17495042735E+03  0.80987318929E+02 0.  0.
         23    2    1    2    0    0 -0.73593414191E+02 -0.47050680105E+02 -0.76341520756E+01  0.12658120286E+03  0.91294926088E+02 0.  0.
        -13    1    3    3    0    0  0.38577693072E+02  0.80339218503E+01 -0.13818795251E+02  0.41758129810E+02  0.00000000000E+00 0.  1.
         14    1    3    3    0    0  0.17021284147E+02 -0.21756600027E+02 -0.13029625615E+03  0.13319229754E+03  0.00000000000E+00 0. -1.
        -13    1    4    4    0    0 -0.94883330016E+02 -0.44827638272E+02 -0.59051375637E+01  0.10510582342E+03  0.00000000000E+00 0.  1.
         13    1    4    4    0    0  0.21289915825E+02 -0.22230418331E+01 -0.17290145118E+01  0.21475379438E+02  0.00000000000E+00 0. -1.
         21    1    1    2  503  502 -0.20139560803E+02 -0.10775376743E+02  0.67052681225E+02  0.70836238697E+02  0.00000000000E+00 0.  1.
         -2    1    1    2    0  503  0.38133997775E+02  0.71548735025E+02 -0.44573295962E+02  0.92521359604E+02  0.00000000000E+00 0.  1.
<scales pt_clust_5="13000.00000" pt_clust_6="13000.00000" pt_clust_7="13000.00000" pt_clust_8="13000.00000" pt_clust_9="22.84099" pt_clust_10="13000.00000"></scales>
<clustering>
<clus scale="   22.841">  1  9  2 -1</clus>
<clus scale="   80.987">  5  6 -1 -1</clus>
<clus scale="   91.295">  7  8 -1 -1</clus>
<clus scale="   76.536">  7 10 -1 -1</clus>
<clus scale="   97.714">  2  5  1 -1</clus>
<clus scale="   22.841">  1  5  2 -1</clus>
</clustering>
</event>
<event>
10    4  0.2759992E-005  0.2588407E+03  0.7546771E-02  0.1143536E+00
          2   -1    0    0  502    0 -0.00000000000E+00  0.00000000000E+00  0.10485161846E+04  0.10485161846E+04  0.00000000000E+00 0. -1.
         21   -1    0    0  503  502  0.00000000000E+00 -0.00000000000E+00 -0.90596983207E+02  0.90596983207E+02  0.00000000000E+00 0.  1.
         24    2    1    2    0    0  0.70616561296E+02 -0.37530744857E+02 -0.84787142952E+00  0.11682709498E+03  0.85162172920E+02 0.  0.
         23    2    1    2    0    0  0.25150289354E+02  0.81445313623E+02  0.30531617164E+03  0.33012141016E+03  0.92175401361E+02 0.  0.
        -13    1    3    3    0    0  0.85729046376E+02 -0.45221746797E+02 -0.10203101271E+02  0.97460653863E+02  0.00000000000E+00 0.  1.
         14    1    3    3    0    0 -0.15112485079E+02  0.76910019400E+01  0.93552298414E+01  0.19366441116E+02  0.00000000000E+00 0. -1.
        -13    1    4    4    0    0  0.48591939661E+02  0.71992937160E+02  0.28423002649E+03  0.29720509343E+03  0.00000000000E+00 0.  1.
         13    1    4    4    0    0 -0.23441650307E+02  0.94523764631E+01  0.21086145147E+02  0.32916316730E+02  0.00000000000E+00 0. -1.
         21    1    1    2  503  501 -0.10562785252E+02  0.26367146947E+02 -0.10363803759E+01  0.28423106000E+02  0.00000000000E+00 0. -1.
          1    1    1    2  501    0 -0.85204065398E+02 -0.70281715714E+02  0.65448728153E+03  0.66374155663E+03  0.00000000000E+00 0. -1.
<scales pt_clust_5="13000.00000" pt_clust_6="13000.00000" pt_clust_7="13000.00000" pt_clust_8="13000.00000" pt_clust_9="28.40421" pt_clust_10="13000.00000"></scales>
<clustering>
<clus scale="   28.404">  2  9  1 -1</clus>
<clus scale="   85.162">  5  6 -1 -1</clus>
<clus scale="   92.175">  7  8 -1 -1</clus>
<clus scale="  106.964">  1  5  2 -1</clus>
<clus scale="   91.535">  7 10 -1 -1</clus>
<clus scale="   28.404">  2  5  1 -1</clus>
</clustering>
</event>
<event>
10    4  0.2759992E-005  0.2795169E+03  0.7546771E-02  0.1105501E+00
          2   -1    0    0  502    0 -0.00000000000E+00  0.00000000000E+00  0.14128128574E+04  0.14128128574E+04  0.00000000000E+00 0. -1.
         21   -1    0    0  503  502  0.00000000000E+00 -0.00000000000E+00 -0.70593487451E+02  0.70593487451E+02  0.00000000000E+00 0. -1.
         24    2    1    2    0    0 -0.21149266430E+03 -0.13251090679E+02  0.65188618518E+03  0.69015648984E+03  0.80347019781E+02 0.  0.
         23    2    1    2    0    0  0.20274603727E+02 -0.12045021561E+02  0.18799554238E+03  0.20997061149E+03  0.90494152496E+02 0.  0.
        -13    1    3    3    0    0 -0.51190630405E+02  0.31327656694E+02  0.15946901792E+03  0.17038858645E+03  0.00000000000E+00 0.  1.
         14    1    3    3    0    0 -0.16030203389E+03 -0.44578747374E+02  0.49241716726E+03  0.51976790339E+03  0.00000000000E+00 0. -1.
        -13    1    4    4    0    0  0.12913333683E+02  0.18381506094E+02  0.33765381079E+01  0.22716402943E+02  0.00000000000E+00 0.  1.
         13    1    4    4    0    0  0.73612700438E+01 -0.30426527655E+02  0.18461900427E+03  0.18725420855E+03  0.00000000000E+00 0. -1.
         21    1    1    2  503  501  0.21627160058E+02 -0.11248675932E+02 -0.20850600254E+02  0.32078252654E+02  0.00000000000E+00 0. -1.
          1    1    1    2  501    0  0.16959090051E+03  0.36544788172E+02  0.52318824260E+03  0.55120099082E+03  0.00000000000E+00 0. -1.
<scales pt_clust_5="13000.00000" pt_clust_6="13000.00000" pt_clust_7="13000.00000" pt_clust_8="13000.00000" pt_clust_9="24.37759" pt_clust_10="13000.00000"></scales>
<clustering>
<clus scale="   24.378">  2  9  1 -1</clus>
<clus scale="   80.347">  5  6 -1 -1</clus>
<clus scale="   90.494">  7  8 -1 -1</clus>
<clus scale="  179.510">  7 10 -1 -1</clus>
<clus scale="  218.254">  1  5  2 -1</clus>
<clus scale="   24.378">  2  5  1 -1</clus>
</clustering>
</event>
<event>
10    4  0.2759992E-005  0.4555757E+03  0.7546771E-02  0.1055775E+00
         21   -1    0    0  501  502  0.00000000000E+00  0.00000000000E+00  0.12276777059E+04  0.12276777059E+04  0.00000000000E+00 0. -1.
          4   -1    0    0  503    0 -0.00000000000E+00 -0.00000000000E+00 -0.10430591888E+03  0.10430591888E+03  0.00000000000E+00 0. -1.
         24    2    1    2    0    0  0.16561281389E+03  0.59180307006E+02  0.18556448979E+03  0.26796661911E+03  0.80262171818E+02 0.  0.
         23    2    1    2    0    0  0.37590173957E+02  0.59226780997E+02  0.41014097639E+02  0.12880230486E+03  0.99935202835E+02 0.  0.
        -13    1    3    3    0    0  0.35361037221E+02  0.36734718138E+02  0.94763691542E+02  0.10761040705E+03  0.00000000000E+00 0.  1.
         14    1    3    3    0    0  0.13025177667E+03  0.22445588868E+02  0.90800798249E+02  0.16035621207E+03  0.00000000000E+00 0. -1.
        -11    1    4    4    0    0  0.65006110454E+02  0.10829158566E+02  0.28432264873E+02  0.71773663396E+02  0.00000000000E+00 0.  1.
         11    1    4    4    0    0 -0.27415936496E+02  0.48397622431E+02  0.12581832766E+02  0.57028641459E+02  0.00000000000E+00 0. -1.
         21    1    1    2  503  502 -0.12580380005E+02  0.18030404095E+02  0.17337653413E+03  0.17476493934E+03  0.00000000000E+00 0.  1.
          3    1    1    2  501    0 -0.19062260785E+03 -0.13643749210E+03  0.72341666541E+03  0.76044976143E+03  0.00000000000E+00 0. -1.
<scales pt_clust_5="13000.00000" pt_clust_6="13000.00000" pt_clust_7="13000.00000" pt_clust_8="13000.00000" pt_clust_9="21.98548" pt_clust_10="13000.00000"></scales>
<clustering>
<clus scale="   21.985">  1  9  2 -1</clus>
<clus scale="   80.262">  5  6 -1 -1</clus>
<clus scale="   99.935">  7  8 -1 -1</clus>
<clus scale="  192.241">  2  5  1 -1</clus>
<clus scale="  183.679">  7 10 -1 -1</clus>
<clus scale="   21.985">  1  5  2 -1</clus>
</clustering>
</event>
<event>
10    4  0.2759992E-005  0.3691557E+03  0.7546771E-02  0.1068383E+00
          2   -1    0    0  502    0 -0.00000000000E+00  0.00000000000E+00  0.11682624260E+04  0.11682624260E+04  0.00000000000E+00 0. -1.
         21   -1    0    0  503  502  0.00000000000E+00 -0.00000000000E+00 -0.13386137065E+03  0.13386137065E+03  0.00000000000E+00 0.  1.
         24    2    1    2    0    0 -0.19313846311E+03  0.20824742961E+03  0.29385704704E+03  0.41639588905E+03  0.79775400064E+02 0.  0.
         23    2    1    2    0    0  0.89683108744E+02 -0.18993309659E+02  0.10135304379E+03  0.16357868732E+03  0.89898507525E+02 0.  0.
        -11    1    3    3    0    0 -0.17882470787E+03  0.15706607969E+03  0.26395646718E+03  0.35541672175E+03  0.00000000000E+00 0.  1.
         12    1    3    3    0    0 -0.14313755236E+02  0.51181349927E+02  0.29900579858E+02  0.60979167305E+02  0.00000000000E+00 0. -1.
        -13    1    4    4    0    0 -0.50233728262E+01  0.23179047692E+02  0.27366967059E+02  0.36213994704E+02  0.00000000000E+00 0. -1.
         13    1    4    4    0    0  0.94706481570E+02 -0.42172357350E+02  0.73986076729E+02  0.12736469262E+03  0.00000000000E+00 0.  1.
         21    1    1    2  503  501  0.51215320167E+02 -0.48467565705E+02  0.52977221873E+01  0.70711949524E+02  0.00000000000E+00 0. -1.
          1    1    1    2  501    0  0.52240034197E+02 -0.14078655425E+03  0.63389324233E+03  0.65143727073E+03  0.00000000000E+00 0. -1.
<scales pt_clust_5="13000.00000" pt_clust_6="13000.00000" pt_clust_7="13000.00000" pt_clust_8="13000.00000" pt_clust_9="70.51322" pt_clust_10="13000.00000"></scales>
<clustering>
<clus scale="   70.513">  2  9  1 -1</clus>
<clus scale="   79.775">  5  6 -1 -1</clus>
<clus scale="   89.899">  7  8 -1 -1</clus>
<clus scale="  155.675">  7 10 -1 -1</clus>
<clus scale="  254.260">  1  5  2 -1</clus>
<clus scale="   70.513">  2  5  1 -1</clus>
</clustering>
</event>
<event>
10    4  0.7819204E-005  0.1359307E+03  0.7546771E-02  0.1243552E+00
         21   -1    0    0  501  502  0.00000000000E+00  0.00000000000E+00  0.23407337799E+03  0.23407337799E+03  0.00000000000E+00 0. -1.
          2   -1    0    0  503    0 -0.00000000000E+00 -0.00000000000E+00 -0.29904194667E+03  0.29904194667E+03  0.00000000000E+00 0. -1.
         24    2    1    2    0    0  0.45339485059E+01 -0.73633572698E+01  0.12884610430E+02  0.82328345808E+02  0.80852752694E+02 0.  0.
         23    2    1    2    0    0  0.17915169879E+02  0.26795277165E+02 -0.23606873045E+03  0.25400379819E+03  0.88037172877E+02 0.  0.
        -11    1    3    3    0    0 -0.73784810275E+01 -0.43057067020E+02  0.68619168617E+01  0.44220344929E+02  0.00000000000E+00 0.  1.
         12    1    3    3    0    0  0.11912429533E+02  0.35693709750E+02  0.60226935685E+01  0.38108000878E+02  0.00000000000E+00 0. -1.
        -13    1    4    4    0    0 -0.14878740564E+02  0.35432340394E+02 -0.20311179180E+03  0.20671532995E+03  0.00000000000E+00 0. -1.
         13    1    4    4    0    0  0.32793910443E+02 -0.86370632291E+01 -0.32956938641E+02  0.47288468235E+02  0.00000000000E+00 0.  1.
         21    1    1    2  503  502 -0.22784543586E+02  0.59625846421E+01  0.16794367550E+03  0.16958704545E+03  0.00000000000E+00 0. -1.
          1    1    1    2  501    0  0.33542520093E+00 -0.25394504537E+02 -0.97281241707E+01  0.27196135215E+02  0.00000000000E+00 0. -1.
<scales pt_clust_5="13000.00000" pt_clust_6="13000.00000" pt_clust_7="13000.00000" pt_clust_8="13000.00000" pt_clust_9="23.55181" pt_clust_10="13000.00000"></scales>
<clustering>
<clus scale="   23.552">  1  9  2 -1</clus>
<clus scale="   80.853">  5  6 -1 -1</clus>
<clus scale="   81.805">  2  5  1 -1</clus>
<clus scale="   88.037">  7  8 -1 -1</clus>
<clus scale="   25.055">  7 10 -1 -1</clus>
<clus scale="   23.552">  1  5  2 -1</clus>
</clustering>
</event>
<event>
10    4  0.2759992E-005  0.1758138E+03  0.7546771E-02  0.1197829E+00
          2   -1    0    0  502    0 -0.00000000000E+00  0.00000000000E+00  0.86886397066E+03  0.86886397066E+03  0.00000000000E+00 0. -1.
         21   -1    0    0  503  502  0.00000000000E+00 -0.00000000000E+00 -0.59103801575E+02  0.59103801575E+02  0.00000000000E+00 0.  1.
         24    2    1    2    0    0 -0.28091789415E+02 -0.39157551489E+02  0.21692926607E+03  0.23631943433E+03  0.80412101660E+02 0.  0.
         23    2    1    2    0    0  0.36120978659E+01 -0.95188933365E+01  0.22075812474E+03  0.23952048222E+03  0.92370207213E+02 0.  0.
        -11    1    3    3    0    0 -0.36634785458E+02  0.28795694257E+01  0.40227204831E+02  0.54485112041E+02  0.00000000000E+00 0.  1.
         12    1    3    3    0    0  0.85429960432E+01 -0.42037120915E+02  0.17670206124E+03  0.18183432229E+03  0.00000000000E+00 0. -1.
        -13    1    4    4    0    0 -0.39405720510E+02 -0.13885153589E+02  0.15713903349E+03  0.16259853673E+03  0.00000000000E+00 0. -1.
         13    1    4    4    0    0  0.43017818376E+02  0.43662602522E+01  0.63619091249E+02  0.76921945489E+02  0.00000000000E+00 0.  1.
         21    1    1    2  503  501 -0.24112406118E+02 -0.71934650685E+01 -0.32349290038E+02  0.40983297018E+02  0.00000000000E+00 0.  1.
          1    1    1    2  501    0  0.48592097667E+02  0.55869909894E+02  0.40442206831E+03  0.41114455867E+03  0.00000000000E+00 0. -1.
<scales pt_clust_5="13000.00000" pt_clust_6="13000.00000" pt_clust_7="13000.00000" pt_clust_8="13000.00000" pt_clust_9="25.16255" pt_clust_10="13000.00000"></scales>
<clustering>
<clus scale="   25.163">  2  9  1 -1</clus>
<clus scale="   80.412">  5  6 -1 -1</clus>
<clus scale="   92.370">  7  8 -1 -1</clus>
<clus scale="   70.890">  7 10 -1 -1</clus>
<clus scale="   98.669">  1  5  2 -1</clus>
<clus scale="   25.163">  2  5  1 -1</clus>
</clustering>
</event>
<event>
10    4  0.2759992E-005  0.3387272E+03  0.7546771E-02  0.1102316E+00
         -3   -1    0    0    0  501 -0.00000000000E+00  0.00000000000E+00  0.49510185919E+03  0.49510185919E+03  0.00000000000E+00 0.  1.
         21   -1    0    0  501  502  0.00000000000E+00 -0.00000000000E+00 -0.35055096709E+03  0.35055096709E+03  0.00000000000E+00 0.  1.
         24    2    1    2    0    0  0.94652150938E+02  0.33223688765E+02 -0.94824838016E+02  0.16020205531E+03  0.81302554984E+02 0.  0.
         23    2    1    2    0    0 -0.10002572732E+03 -0.88046212401E+01  0.77947572167E+01  0.12988846310E+03  0.82021869797E+02 0.  0.
        -13    1    3    3    0    0  0.10573419665E+03  0.15575338965E+02 -0.69858243777E+02  0.12768118792E+03  0.00000000000E+00 0.  1.
         14    1    3    3    0    0 -0.11082045709E+02  0.17648349800E+02 -0.24966594239E+02  0.32520867388E+02  0.00000000000E+00 0. -1.
        -13    1    4    4    0    0 -0.10258345321E+02 -0.25556757713E+02  0.24731593284E+02  0.37013959797E+02  0.00000000000E+00 0. -1.
         13    1    4    4    0    0 -0.89767382003E+02  0.16752136473E+02 -0.16936836067E+02  0.92874503304E+02  0.00000000000E+00 0.  1.
         21    1    1    2  503  502 -0.17632859036E+01  0.23126396694E+02 -0.15968143591E+03  0.16135705865E+03  0.00000000000E+00 0.  1.
         -4    1    1    2    0  503  0.71368622886E+01 -0.47545464219E+02  0.39126240880E+03  0.39420524922E+03  0.00000000000E+00 0.  1.
<scales pt_clust_5="13000.00000" pt_clust_6="13000.00000" pt_clust_7="13000.00000" pt_clust_8="13000.00000" pt_clust_9="23.19352" pt_clust_10="13000.00000"></scales>
<clustering>
<clus scale="   23.194">  2  9  1 -1</clus>
<clus scale="   81.303">  5  6 -1 -1</clus>
<clus scale="   82.022">  7  8 -1 -1</clus>
<clus scale="   47.899">  7 10 -1 -1</clus>
<clus scale="  133.125">  1  5  2 -1</clus>
<clus scale="   23.194">  2  5  1 -1</clus>
</clustering>
</event>
<event>
10    4  0.2759992E-005  0.6753462E+03  0.7546771E-02  0.1021101E+00
         21   -1    0    0  501  502  0.00000000000E+00  0.00000000000E+00  0.53276695569E+03  0.53276695569E+03  0.00000000000E+00 0. -1.
          2   -1    0    0  503    0 -0.00000000000E+00 -0.00000000000E+00 -0.11877425390E+04  0.11877425390E+04  0.00000000000E+00 0. -1.
         24    2    1    2    0    0  0.11776678820E+03  0.78476400438E+02 -0.88102653943E+03  0.89591270559E+03  0.80151425629E+02 0.  0.
         23    2    1    2    0    0 -0.12540970869E+03  0.77653437999E+02 -0.26035707989E+03  0.31071702566E+03  0.83675620822E+02 0.  0.
        -13    1    3    3    0    0  0.49827778108E+02  0.50354961509E+02 -0.22779897984E+03  0.23855985588E+03  0.00000000000E+00 0.  1.
         14    1    3    3    0    0  0.67939010094E+02  0.28121438929E+02 -0.65322755959E+03  0.65735284971E+03  0.00000000000E+00 0. -1.
        -13    1    4    4    0    0 -0.27980519992E+02  0.90842086435E+01 -0.13343049370E+03  0.13663502112E+03  0.00000000000E+00 0.  1.
         13    1    4    4    0    0 -0.97429188699E+02  0.68569229356E+02 -0.12692658618E+03  0.17408200454E+03  0.00000000000E+00 0. -1.
         21    1    1    2  503  502 -0.40631906007E+01 -0.21408126354E+02  0.14562690390E+03  0.14724813253E+03  0.00000000000E+00 0.  1.
          1    1    1    2  501    0  0.11706111091E+02 -0.13472171208E+03  0.34078113214E+03  0.36663163089E+03  0.00000000000E+00 0. -1.
<scales pt_clust_5="13000.00000" pt_clust_6="13000.00000" pt_clust_7="13000.00000" pt_clust_8="13000.00000" pt_clust_9="21.79030" pt_clust_10="13000.00000"></scales>
<clustering>
<clus scale="   21.790">  1  9  2 -1</clus>
<clus scale="   80.151">  5  6 -1 -1</clus>
<clus scale="   83.676">  7  8 -1 -1</clus>
<clus scale="  154.529">  7 10 -1 -1</clus>
<clus scale="  162.385">  2  5  1 -1</clus>
<clus scale="   21.790">  1  5  2 -1</clus>
</clustering>
</event>
<event>
10    4  0.2759992E-005  0.3319217E+03  0.7546771E-02  0.1101955E+00
         -3   -1    0    0    0  501 -0.00000000000E+00  0.00000000000E+00  0.17019815039E+03  0.17019815039E+03  0.00000000000E+00 0.  1.
         21   -1    0    0  501  502  0.00000000000E+00 -0.00000000000E+00 -0.63710784241E+03  0.63710784241E+03  0.00000000000E+00 0.  1.
         24    2    1    2    0    0 -0.61376783660E+02  0.10598133304E+03 -0.27879419438E+03  0.31543199309E+03  0.82292082997E+02 0.  0.
         23    2    1    2    0    0  0.61507458049E+02 -0.31688536616E+02  0.12286725678E+03  0.16748659267E+03  0.90377348860E+02 0.  0.
        -11    1    3    3    0    0 -0.72543071205E+02  0.11070668674E+03 -0.26917032874E+03  0.29995188538E+03  0.00000000000E+00 0.  1.
         12    1    3    3    0    0  0.11166287545E+02 -0.47253536967E+01 -0.96238656359E+01  0.15480107715E+02  0.00000000000E+00 0. -1.
        -13    1    4    4    0    0  0.14155826021E+02 -0.52313039413E+02  0.93505829367E+02  0.10807581426E+03  0.00000000000E+00 0. -1.
         13    1    4    4    0    0  0.47351632028E+02  0.20624502796E+02  0.29361427417E+02  0.59410778410E+02  0.00000000000E+00 0.  1.
         21    1    1    2  503  502 -0.26891411887E+02 -0.30994391609E+02 -0.15300688382E+03  0.15841372050E+03  0.00000000000E+00 0.  1.
         -4    1    1    2    0  503  0.26760737498E+02 -0.43298404820E+02 -0.15797587060E+03  0.16597368654E+03  0.00000000000E+00 0.  1.
<scales pt_clust_5="13000.00000" pt_clust_6="13000.00000" pt_clust_7="13000.00000" pt_clust_8="13000.00000" pt_clust_9="41.03414" pt_clust_10="13000.00000"></scales>
<clustering>
<clus scale="   41.034">  2  9  1 -1</clus>
<clus scale="   82.292">  5  6 -1 -1</clus>
<clus scale="   90.377">  7  8 -1 -1</clus>
<clus scale="   56.571">  7 10 -1 -1</clus>
<clus scale="  142.812">  1  5  2 -1</clus>
<clus scale="   41.034">  2  5  1 -1</clus>
</clustering>
</event>
<event>
10    4  0.2759992E-005  0.7736819E+03  0.7546771E-02  0.1013055E+00
          2   -1    0    0  503    0 -0.00000000000E+00  0.00000000000E+00  0.29970194492E+04  0.29970194492E+04  0.00000000000E+00 0. -1.
         21   -1    0    0  501  502  0.00000000000E+00 -0.00000000000E+00 -0.30930397043E+03  0.30930397043E+03  0.00000000000E+00 0. -1.
         24    2    1    2    0    0  0.49749353881E+02 -0.10047732999E+03  0.62786646030E+03  0.64285035278E+03  0.80433774253E+02 0.  0.
         23    2    1    2    0    0  0.20236454403E+03 -0.39998497913E+03  0.15406773020E+04  0.16068385953E+04  0.85465375927E+02 0.  0.
        -13    1    3    3    0    0  0.58774249131E+02 -0.29032191246E+02  0.32431439056E+03  0.33087324524E+03  0.00000000000E+00 0.  1.
         14    1    3    3    0    0 -0.90248952501E+01 -0.71445138748E+02  0.30355206974E+03  0.31197710754E+03  0.00000000000E+00 0. -1.
        -11    1    4    4    0    0  0.49654943765E+02 -0.76156703953E+02  0.20994816992E+03  0.22878743639E+03  0.00000000000E+00 0.  1.
         11    1    4    4    0    0  0.15270960027E+03 -0.32382827518E+03  0.13307291320E+04  0.13780511589E+04  0.00000000000E+00 0. -1.
         21    1    1    2  503  502 -0.11166825265E+02  0.39091462962E+03 -0.82175884340E+02  0.39961459133E+03  0.00000000000E+00 0. -1.
          1    1    1    2  501    0 -0.24094707265E+03  0.10954767951E+03  0.60134760084E+03  0.65701988017E+03  0.00000000000E+00 0. -1.
<scales pt_clust_5="13000.00000" pt_clust_6="13000.00000" pt_clust_7="13000.00000" pt_clust_8="13000.00000" pt_clust_9="384.24154" pt_clust_10="13000.00000"></scales>
<clustering>
<clus scale="   80.434">  5  6 -1 -1</clus>
<clus scale="   85.465">  7  8 -1 -1</clus>
<clus scale="  137.987">  1  5  2 -1</clus>
<clus scale="  242.274">  7 10 -1 -1</clus>
<clus scale="  384.242">  2  9  1 -1</clus>
<clus scale="  384.242">  2  5  1 -1</clus>
</clustering>
</event>
<event>
10    4  0.2759992E-005  0.2581839E+03  0.7546771E-02  0.1155884E+00
         21   -1    0    0  503  502  0.00000000000E+00  0.00000000000E+00  0.10197150515E+03  0.10197150515E+03  0.00000000000E+00 0.  1.
         -1   -1    0    0    0  501 -0.00000000000E+00 -0.00000000000E+00 -0.37013673320E+03  0.37013673320E+03  0.00000000000E+00 0.  1.
         24    2    1    2    0    0 -0.43211534339E+01 -0.20861845814E+02 -0.57771961227E+02  0.97661521003E+02  0.75804249241E+02 0.  0.
         23    2    1    2    0    0  0.11564661289E+02 -0.61171690213E+02 -0.20107386917E+03  0.22868396358E+03  0.89386448999E+02 0.  0.
        -13    1    3    3    0    0 -0.33170586797E+01 -0.41874818612E+02 -0.68442373046E+01  0.42559921245E+02  0.00000000000E+00 0.  1.
         14    1    3    3    0    0 -0.10040947541E+01  0.21012972798E+02 -0.50927723922E+02  0.55101599759E+02  0.00000000000E+00 0. -1.
        -11    1    4    4    0    0  0.25492168485E+02 -0.17557522585E+02 -0.10497355135E+02  0.32685038140E+02  0.00000000000E+00 0. -1.
         11    1    4    4    0    0 -0.13927507197E+02 -0.43614167628E+02 -0.19057651403E+03  0.19599892544E+03  0.00000000000E+00 0.  1.
         21    1    1    2  503  501 -0.44491277672E+02 -0.74931876516E+01 -0.17632420644E+02  0.48440932152E+02  0.00000000000E+00 0. -1.
         -2    1    1    2    0  502  0.37247769817E+02  0.89526723678E+02  0.83130229863E+01  0.97321821603E+02  0.00000000000E+00 0.  1.
<scales pt_clust_5="13000.00000" pt_clust_6="13000.00000" pt_clust_7="13000.00000" pt_clust_8="13000.00000" pt_clust_9="45.11786" pt_clust_10="13000.00000"></scales>
<clustering>
<clus scale="   45.118">  1  9  2 -1</clus>
<clus scale="   75.804">  5  6 -1 -1</clus>
<clus scale="   80.429">  2  5  1 -1</clus>
<clus scale="   89.386">  7  8 -1 -1</clus>
<clus scale="   80.687">  7 10 -1 -1</clus>
<clus scale="   45.118">  1  5  2 -1</clus>
</clustering>
</event>
<event>
10    4  0.2759992E-005  0.4291017E+03  0.7546771E-02  0.1068818E+00
          2   -1    0    0  503    0 -0.00000000000E+00  0.00000000000E+00  0.43410569346E+03  0.43410569346E+03  0.00000000000E+00 0. -1.
         21   -1    0    0  501  502  0.00000000000E+00 -0.00000000000E+00 -0.30543058833E+03  0.30543058833E+03  0.00000000000E+00 0. -1.
         24    2    1    2    0    0 -0.41339396031E+02 -0.13979337445E+03 -0.97872052403E+02  0.19435113189E+03  0.83320409397E+02 0.  0.
         23    2    1    2    0    0  0.10315383659E+03 -0.94899078460E+02  0.18339612454E+02  0.17100791017E+03  0.96233127659E+02 0.  0.
        -11    1    3    3    0    0  0.12011419627E+02 -0.28909592451E+02  0.76774142505E+01  0.32233234816E+02  0.00000000000E+00 0.  1.
         12    1    3    3    0    0 -0.53350815658E+02 -0.11088378200E+03 -0.10554946665E+03  0.16211789708E+03  0.00000000000E+00 0. -1.
        -11    1    4    4    0    0  0.11235971525E+03 -0.69034417324E+02  0.38001738951E+02  0.13723916551E+03  0.00000000000E+00 0. -1.
         11    1    4    4    0    0 -0.92058786577E+01 -0.25864661135E+02 -0.19662126498E+02  0.33768744660E+02  0.00000000000E+00 0.  1.
         21    1    1    2  503  502 -0.71971565651E+01  0.19908420213E+02 -0.37639861204E+02  0.43184527431E+02  0.00000000000E+00 0. -1.
          1    1    1    2  501    0 -0.54617283992E+02  0.21478403270E+03  0.24584740628E+03  0.33099271229E+03  0.00000000000E+00 0. -1.
<scales pt_clust_5="13000.00000" pt_clust_6="13000.00000" pt_clust_7="13000.00000" pt_clust_8="13000.00000" pt_clust_9="21.16942" pt_clust_10="13000.00000"></scales>
<clustering>
<clus scale="   21.169">  2  9  1 -1</clus>
<clus scale="   83.320">  5  6 -1 -1</clus>
<clus scale="   96.233">  7  8 -1 -1</clus>
<clus scale="  159.966">  1  5  2 -1</clus>
<clus scale="  149.736">  7 10 -1 -1</clus>
<clus scale="   21.169">  2  5  1 -1</clus>
</clustering>
</event>
<event>
10    4  0.2759992E-005  0.9748561E+03  0.7546771E-02  0.1001006E+00
         -1   -1    0    0    0  501 -0.00000000000E+00  0.00000000000E+00  0.24635156728E+04  0.24635156728E+04  0.00000000000E+00 0.  1.
         21   -1    0    0  503  502  0.00000000000E+00 -0.00000000000E+00 -0.12748537081E+03  0.12748537081E+03  0.00000000000E+00 0.  1.
         24    2    1    2    0    0  0.50559905433E+02  0.27088593558E+02  0.15102094054E+03  0.17970110692E+03  0.78708750532E+02 0.  0.
         23    2    1    2    0    0 -0.86462110535E+02  0.33036249790E+03  0.18176498206E+04  0.18516543461E+04  0.90320930451E+02 0.  0.
        -11    1    3    3    0    0  0.23811825512E+02  0.76615893110E+01 -0.92139728332E-01  0.25014225447E+02  0.00000000000E+00 0.  1.
         12    1    3    3    0    0  0.26748079921E+02  0.19427004247E+02  0.15111308026E+03  0.15468688147E+03  0.00000000000E+00 0. -1.
        -11    1    4    4    0    0 -0.31559940769E+02  0.26084872117E+03  0.14379894553E+04  0.14617974411E+04  0.00000000000E+00 0.  1.
         11    1    4    4    0    0 -0.54902169767E+02  0.69513776736E+02  0.37966036524E+03  0.38985690495E+03  0.00000000000E+00 0. -1.
         21    1    1    2  503  501  0.40282176503E+02  0.11660211593E+02  0.85404324964E+02  0.95144695074E+02  0.00000000000E+00 0.  1.
         -2    1    1    2    0  502 -0.43799714009E+01 -0.36911130306E+03  0.28195521594E+03  0.46450089557E+03  0.00000000000E+00 0.  1.
<scales pt_clust_5="13000.00000" pt_clust_6="13000.00000" pt_clust_7="13000.00000" pt_clust_8="13000.00000" pt_clust_9="41.93584" pt_clust_10="13000.00000"></scales>
<clustering>
<clus scale="   41.936">  2  9  1 -1</clus>
<clus scale="   78.709">  5  6 -1 -1</clus>
<clus scale="   90.321">  7  8 -1 -1</clus>
<clus scale="  100.297">  1  5  2 -1</clus>
<clus scale="  356.922">  7 10 -1 -1</clus>
<clus scale="   41.936">  2  5  1 -1</clus>
</clustering>
</event>
<event>
10    4  0.2759992E-005  0.2536712E+03  0.7546771E-02  0.1148292E+00
         21   -1    0    0  501  502  0.00000000000E+00  0.00000000000E+00  0.45794303911E+03  0.45794303911E+03  0.00000000000E+00 0. -1.
          2   -1    0    0  503    0 -0.00000000000E+00 -0.00000000000E+00 -0.34677326556E+03  0.34677326556E+03  0.00000000000E+00 0. -1.
         24    2    1    2    0    0 -0.51187964041E+01 -0.61012726537E+02 -0.10690597243E+03  0.14737502887E+03  0.80881130780E+02 0.  0.
         23    2    1    2    0    0  0.19329835279E+02 -0.13316334592E+03 -0.92723715394E+02  0.18676682490E+03  0.90432517686E+02 0.  0.
        -13    1    3    3    0    0  0.27516663471E+02 -0.10924887359E+02 -0.61797267432E+01  0.30244155716E+02  0.00000000000E+00 0.  1.
         14    1    3    3    0    0 -0.32635459875E+02 -0.50087839178E+02 -0.10072624569E+03  0.11713087315E+03  0.00000000000E+00 0. -1.
        -13    1    4    4    0    0  0.35756114285E+02 -0.80030871267E+02 -0.11612715406E+02  0.88421124306E+02  0.00000000000E+00 0. -1.
         13    1    4    4    0    0 -0.16426279005E+02 -0.53132474658E+02 -0.81110999988E+02  0.98345700589E+02  0.00000000000E+00 0.  1.
         21    1    1    2  503  502 -0.26725365535E+02  0.12611485688E+03  0.36214367379E+03  0.38440505037E+03  0.00000000000E+00 0. -1.
          1    1    1    2  501    0  0.12514326660E+02  0.68061215586E+02 -0.51344212412E+02  0.86169400526E+02  0.00000000000E+00 0. -1.
<scales pt_clust_5="13000.00000" pt_clust_6="13000.00000" pt_clust_7="13000.00000" pt_clust_8="13000.00000" pt_clust_9="125.94757" pt_clust_10="13000.00000"></scales>
<clustering>
<clus scale="   80.881">  5  6 -1 -1</clus>
<clus scale="   90.433">  7  8 -1 -1</clus>
<clus scale="   69.202">  7 10 -1 -1</clus>
<clus scale="  101.442">  2  5  1 -1</clus>
<clus scale="  125.948">  1  9  2 -1</clus>
<clus scale="  125.948">  1  5  2 -1</clus>
</clustering>
</event>
<event>
10    4  0.2759992E-005  0.2636602E+03  0.7546771E-02  0.1119705E+00
         21   -1    0    0  501  502  0.00000000000E+00  0.00000000000E+00  0.48654514262E+02  0.48654514262E+02  0.00000000000E+00 0.  1.
          2   -1    0    0  503    0 -0.00000000000E+00 -0.00000000000E+00 -0.12135812022E+04  0.12135812022E+04  0.00000000000E+00 0. -1.
         24    2    1    2    0    0  0.15539707919E+03  0.40110601976E+02 -0.33322153349E+03  0.37891448811E+03  0.82355851657E+02 0.  0.
         23    2    1    2    0    0  0.16750710058E+01 -0.25873718706E+02 -0.35975719723E+03  0.37130944055E+03  0.88165778491E+02 0.  0.
        -11    1    3    3    0    0  0.11993185795E+03  0.27288569299E+01 -0.17233199067E+03  0.20997478948E+03  0.00000000000E+00 0.  1.
         12    1    3    3    0    0  0.35465221242E+02  0.37381745046E+02 -0.16088954283E+03  0.16893969863E+03  0.00000000000E+00 0. -1.
        -13    1    4    4    0    0  0.12830369839E+02 -0.54989966231E+02 -0.17341854582E+03  0.18238011627E+03  0.00000000000E+00 0. -1.
         13    1    4    4    0    0 -0.11155298833E+02  0.29116247525E+02 -0.18633865141E+03  0.18892932428E+03  0.00000000000E+00 0.  1.
         21    1    1    2  503  502  0.86658648179E+01 -0.30768004239E+02 -0.78841036323E+02  0.85074533830E+02  0.00000000000E+00 0.  1.
          1    1    1    2  501    0 -0.16573801501E+03  0.16531120969E+02 -0.39310692087E+03  0.42693725396E+03  0.00000000000E+00 0. -1.
<scales pt_clust_5="13000.00000" pt_clust_6="13000.00000" pt_clust_7="13000.00000" pt_clust_8="13000.00000" pt_clust_9="31.96511" pt_clust_10="13000.00000"></scales>
<clustering>
<clus scale="   31.965">  1  9  2 -1</clus>
<clus scale="   82.356">  5  6 -1 -1</clus>
<clus scale="   88.166">  7  8 -1 -1</clus>
<clus scale="  162.599">  7 10 -1 -1</clus>
<clus scale="  181.410">  2  5  1 -1</clus>
<clus scale="   31.965">  1  5  2 -1</clus>
</clustering>
</event>
<event>
10    4  0.2759992E-005  0.2348376E+03  0.7546771E-02  0.1127465E+00
         -3   -1    0    0    0  501 -0.00000000000E+00  0.00000000000E+00  0.10865400875E+04  0.10865400875E+04  0.00000000000E+00 0.  1.
         21   -1    0    0  501  502  0.00000000000E+00 -0.00000000000E+00 -0.17218980341E+03  0.17218980341E+03  0.00000000000E+00 0.  1.
         24    2    1    2    0    0 -0.11315851100E+02 -0.19365222650E+03  0.92813418986E+03  0.95167216839E+03  0.81348684000E+02 0.  0.
         23    2    1    2    0    0  0.31406269196E+02  0.15747961939E+03 -0.71793641261E+01  0.18256790274E+03  0.86563916120E+02 0.  0.
        -13    1    3    3    0    0 -0.36236246036E+02 -0.16581695477E+03  0.81641185821E+03  0.83386848498E+03  0.00000000000E+00 0.  1.
         14    1    3    3    0    0  0.24920394936E+02 -0.27835271729E+02  0.11172233165E+03  0.11780368341E+03  0.00000000000E+00 0. -1.
        -13    1    4    4    0    0  0.46183736061E+02  0.63811841859E+02 -0.31235060244E+02  0.84737934990E+02  0.00000000000E+00 0.  1.
         13    1    4    4    0    0 -0.14777466865E+02  0.93667777529E+02  0.24055696118E+02  0.97829967750E+02  0.00000000000E+00 0. -1.
         21    1    1    2  503  502 -0.20886122488E+02 -0.13533698226E+02 -0.51695225644E+02  0.57374100905E+02  0.00000000000E+00 0.  1.
         -4    1    1    2    0  503  0.79570439134E+00  0.49706305338E+02  0.45090683961E+02  0.67115718844E+02  0.00000000000E+00 0.  1.
<scales pt_clust_5="13000.00000" pt_clust_6="13000.00000" pt_clust_7="13000.00000" pt_clust_8="13000.00000" pt_clust_9="24.88757" pt_clust_10="13000.00000"></scales>
<clustering>
<clus scale="   24.888">  2  9  1 -1</clus>
<clus scale="   81.349">  5  6 -1 -1</clus>
<clus scale="   86.564">  7  8 -1 -1</clus>
<clus scale="   48.453">  7 10 -1 -1</clus>
<clus scale="  211.718">  1  5  2 -1</clus>
<clus scale="   24.888">  2  5  1 -1</clus>
</clustering>
</event>
<event>
10    4  0.2759992E-005  0.7114358E+03  0.7546771E-02  0.1002965E+00
         21   -1    0    0  501  502  0.00000000000E+00  0.00000000000E+00  0.11798958588E+03  0.11798958588E+03  0.00000000000E+00 0.  1.
          2   -1    0    0  503    0 -0.00000000000E+00 -0.00000000000E+00 -0.25064455983E+04  0.25064455983E+04  0.00000000000E+00 0. -1.
         24    2    1    2    0    0 -0.20174429553E+03  0.65081506152E+02 -0.26352607645E+03  0.34753262591E+03  0.79978558866E+02 0.  0.
         23    2    1    2    0    0 -0.41004701869E+02  0.17223856415E+03 -0.20958554204E+03  0.28929173929E+03  0.91739317821E+02 0.  0.
        -11    1    3    3    0    0 -0.13903864060E+03  0.81953669292E+02 -0.19499746713E+03  0.25312479072E+03  0.00000000000E+00 0.  1.
         12    1    3    3    0    0 -0.62705654926E+02 -0.16872163140E+02 -0.68528609326E+02  0.94407835188E+02  0.00000000000E+00 0. -1.
        -13    1    4    4    0    0 -0.18912605823E+02  0.11135407559E+03 -0.63695965904E+02  0.12967109501E+03  0.00000000000E+00 0.  1.
         13    1    4    4    0    0 -0.22092096046E+02  0.60884488563E+02 -0.14588957614E+03  0.15962064428E+03  0.00000000000E+00 0. -1.
         21    1    1    2  503  502 -0.23358039212E+02  0.57428947387E+02 -0.47719166518E+02  0.78235547209E+02  0.00000000000E+00 0.  1.
          1    1    1    2  501    0  0.26610703661E+03 -0.29474901769E+03 -0.18676252274E+04  0.19093752717E+04  0.00000000000E+00 0. -1.
<scales pt_clust_5="13000.00000" pt_clust_6="13000.00000" pt_clust_7="13000.00000" pt_clust_8="13000.00000" pt_clust_9="61.99744" pt_clust_10="13000.00000"></scales>
<clustering>
<clus scale="   61.997">  1  9  2 -1</clus>
<clus scale="   79.979">  5  6 -1 -1</clus>
<clus scale="   91.739">  7  8 -1 -1</clus>
<clus scale="  242.663">  2  5  1 -1</clus>
<clus scale="  224.890">  7 10 -1 -1</clus>
<clus scale="   61.997">  1  5  2 -1</clus>
</clustering>
</event>
<event>
10    4  0.2759992E-005  0.3774374E+03  0.7546771E-02  0.1093503E+00
          2   -1    0    0  503    0 -0.00000000000E+00  0.00000000000E+00  0.69158645203E+03  0.69158645203E+03  0.00000000000E+00 0. -1.
         21   -1    0    0  501  502  0.00000000000E+00 -0.00000000000E+00 -0.21597986039E+03  0.21597986039E+03  0.00000000000E+00 0. -1.
         24    2    1    2    0    0  0.51364460388E+02  0.75200762481E+02  0.28925177452E+03  0.31356165311E+03  0.79754992142E+02 0.  0.
         23    2    1    2    0    0  0.11557436331E+03  0.24606967194E+02  0.27215084186E+03  0.31058908526E+03  0.91850764095E+02 0.  0.
        -13    1    3    3    0    0 -0.21575840590E+02  0.14513716281E+02  0.55682493343E+02  0.61454901533E+02  0.00000000000E+00 0.  1.
         14    1    3    3    0    0  0.72940300978E+02  0.60687046199E+02  0.23356928117E+03  0.25210675158E+03  0.00000000000E+00 0. -1.
        -11    1    4    4    0    0  0.60755453013E+02  0.59042141184E+02  0.14608335822E+03  0.16887139206E+03  0.00000000000E+00 0. -1.
         11    1    4    4    0    0  0.54818910298E+02 -0.34435173989E+02  0.12606748364E+03  0.14171769320E+03  0.00000000000E+00 0.  1.
         21    1    1    2  503  502 -0.11288315300E+03 -0.14661954819E+03 -0.19780695003E+02  0.18609452984E+03  0.00000000000E+00 0. -1.
          1    1    1    2  501    0 -0.54055670695E+02  0.46811818512E+02 -0.66015329740E+02  0.97321044216E+02  0.00000000000E+00 0. -1.
<scales pt_clust_5="13000.00000" pt_clust_6="13000.00000" pt_clust_7="13000.00000" pt_clust_8="13000.00000" pt_clust_9="165.66638" pt_clust_10="13000.00000"></scales>
<clustering>
<clus scale="   79.755">  5  6 -1 -1</clus>
<clus scale="   91.851">  7  8 -1 -1</clus>
<clus scale="   71.508">  7 10 -1 -1</clus>
<clus scale="  121.055">  1  5  2 -1</clus>
<clus scale="  165.666">  2  9  1 -1</clus>
<clus scale="  165.666">  2  5  1 -1</clus>
</clustering>
</event>
<event>
10    4  0.2759992E-005  0.2248811E+03  0.7546771E-02  0.1157867E+00
         -3   -1    0    0    0  501 -0.00000000000E+00  0.00000000000E+00  0.11771004083E+03  0.11771004083E+03  0.00000000000E+00 0.  1.
         21   -1    0    0  503  502  0.00000000000E+00 -0.00000000000E+00 -0.54377779330E+03  0.54377779330E+03  0.00000000000E+00 0.  1.
         24    2    1    2    0    0  0.14308140902E+02 -0.80991995520E+02  0.35977299892E+02  0.11943658505E+03  0.78780108575E+02 0.  0.
         23    2    1    2    0    0  0.34967065346E+02  0.27998238848E+01 -0.24335532695E+03  0.26383661032E+03  0.95694342148E+02 0.  0.
        -11    1    3    3    0    0 -0.55255778521E+01 -0.29023149058E+02  0.53501069189E+02  0.61116606550E+02  0.00000000000E+00 0.  1.
         12    1    3    3    0    0  0.19833718754E+02 -0.51968846461E+02 -0.17523769297E+02  0.58319978502E+02  0.00000000000E+00 0. -1.
        -13    1    4    4    0    0  0.66767155805E+02  0.13323387740E+02 -0.17298214734E+03  0.18589832989E+03  0.00000000000E+00 0.  1.
         13    1    4    4    0    0 -0.31800090459E+02 -0.10523563855E+02 -0.70373179606E+02  0.77938280436E+02  0.00000000000E+00 0. -1.
         21    1    1    2  503  501 -0.15251787139E+02 -0.35314297528E+02 -0.11323069107E+03  0.11958639564E+03  0.00000000000E+00 0.  1.
         -4    1    1    2    0  502 -0.34023419109E+02  0.11350646916E+03 -0.10545903434E+03  0.15862824311E+03  0.00000000000E+00 0.  1.
<scales pt_clust_5="13000.00000" pt_clust_6="13000.00000" pt_clust_7="13000.00000" pt_clust_8="13000.00000" pt_clust_9="38.46708" pt_clust_10="13000.00000"></scales>
<clustering>
<clus scale="   38.467">  2  9  1 -1</clus>
<clus scale="   78.780">  5  6 -1 -1</clus>
<clus scale="   95.694">  7  8 -1 -1</clus>
<clus scale="  109.664">  7 10 -1 -1</clus>
<clus scale="  116.193">  1  5  2 -1</clus>
<clus scale="   38.467">  2  5  1 -1</clus>
</clustering>
</event>
<event>
10    4  0.2759992E-005  0.2065275E+03  0.7546771E-02  0.1185040E+00
         21   -1    0    0  501  502  0.00000000000E+00  0.00000000000E+00  0.53907940469E+02  0.53907940469E+02  0.00000000000E+00 0. -1.
          2   -1    0    0  503    0 -0.00000000000E+00 -0.00000000000E+00 -0.92019174534E+03  0.92019174534E+03  0.00000000000E+00 0. -1.
         24    2    1    2    0    0 -0.12494597614E+02  0.38396770594E+00 -0.64338469122E+03  0.64843721723E+03  0.79816673638E+02 0.  0.
         23    2    1    2    0    0 -0.51173456902E+02  0.11223105856E+02 -0.19062585192E+03  0.21921638129E+03  0.94725527745E+02 0.  0.
        -11    1    3    3    0    0 -0.17464285417E+02  0.14053265691E+02 -0.49105309019E+02  0.53979875098E+02  0.00000000000E+00 0.  1.
         12    1    3    3    0    0  0.49696878034E+01 -0.13669297985E+02 -0.59427938220E+03  0.59445734213E+03  0.00000000000E+00 0. -1.
        -13    1    4    4    0    0 -0.10951890522E+02  0.37182619912E+02 -0.23409173640E+02  0.45282232057E+02  0.00000000000E+00 0.  1.
         13    1    4    4    0    0 -0.40221566381E+02 -0.25959514056E+02 -0.16721667828E+03  0.17393414923E+03  0.00000000000E+00 0. -1.
         21    1    1    2  503  502  0.14821560041E+02  0.25124631140E+02 -0.34637063751E+02  0.45284124340E+02  0.00000000000E+00 0.  1.
          1    1    1    2  501    0  0.48846494475E+02 -0.36731704702E+02  0.23638020205E+01  0.61161962958E+02  0.00000000000E+00 0. -1.
<scales pt_clust_5="13000.00000" pt_clust_6="13000.00000" pt_clust_7="13000.00000" pt_clust_8="13000.00000" pt_clust_9="29.17063" pt_clust_10="13000.00000"></scales>
<clustering>
<clus scale="   29.171">  1  9  2 -1</clus>
<clus scale="   79.817">  5  6 -1 -1</clus>
<clus scale="   80.691">  2  5  1 -1</clus>
<clus scale="   94.726">  7  8 -1 -1</clus>
<clus scale="   59.492">  7 10 -1 -1</clus>
<clus scale="   29.171">  1  5  2 -1</clus>
</clustering>
</event>
<event>
10    4  0.2759992E-005  0.1650087E+03  0.7546771E-02  0.1211084E+00
          2   -1    0    0  503    0 -0.00000000000E+00  0.00000000000E+00  0.19599767375E+03  0.19599767375E+03  0.00000000000E+00 0. -1.
         21   -1    0    0  501  502  0.00000000000E+00 -0.00000000000E+00 -0.15205654256E+03  0.15205654256E+03  0.00000000000E+00 0. -1.
         24    2    1    2    0    0 -0.35064274626E+02  0.10279663728E+02 -0.70805247040E+00  0.86282222687E+02  0.78159745216E+02 0.  0.
         23    2    1    2    0    0  0.61739873896E+02 -0.53770284729E+01  0.11590592655E+03  0.16060428273E+03  0.92297493779E+02 0.  0.
        -11    1    3    3    0    0 -0.23173720509E+02 -0.30575083052E+02  0.14619355531E+02  0.41055847112E+02  0.00000000000E+00 0.  1.
         12    1    3    3    0    0 -0.11890554117E+02  0.40854746780E+02 -0.15327408002E+02  0.45226375576E+02  0.00000000000E+00 0. -1.
        -13    1    4    4    0    0  0.35955156786E+02 -0.45842756685E+01 -0.53461543070E+01  0.36638371263E+02  0.00000000000E+00 0.  1.
         13    1    4    4    0    0  0.25784717110E+02 -0.79275280436E+00  0.12125208086E+03  0.12396591147E+03  0.00000000000E+00 0. -1.
         21    1    1    2  503  502 -0.18131729633E+02 -0.34061143816E+02 -0.53538160802E+02  0.65994361877E+02  0.00000000000E+00 0. -1.
          1    1    1    2  501    0 -0.85438696372E+01  0.29158508561E+02 -0.17718582093E+02  0.35173349019E+02  0.00000000000E+00 0. -1.
<scales pt_clust_5="13000.00000" pt_clust_6="13000.00000" pt_clust_7="13000.00000" pt_clust_8="13000.00000" pt_clust_9="38.58654" pt_clust_10="13000.00000"></scales>
<clustering>
<clus scale="   38.587">  2  9  1 -1</clus>
<clus scale="   78.160">  5  6 -1 -1</clus>
<clus scale="   89.689">  1  5  2 -1</clus>
<clus scale="   92.297">  7  8 -1 -1</clus>
<clus scale="   25.079">  7 10 -1 -1</clus>
<clus scale="   38.587">  2  5  1 -1</clus>
</clustering>
</event>
<event>
10    4  0.2759992E-005  0.4796336E+03  0.7546771E-02  0.1046642E+00
         21   -1    0    0  503  502  0.00000000000E+00  0.00000000000E+00  0.22407450487E+03  0.22407450487E+03  0.00000000000E+00 0.  1.
          2   -1    0    0  502    0 -0.00000000000E+00 -0.00000000000E+00 -0.25312761637E+04  0.25312761637E+04  0.00000000000E+00 0. -1.
         24    2    1    2    0    0 -0.29539259846E+03  0.12899083602E+03 -0.93360685957E+03  0.99120099074E+03  0.83439875394E+02 0.  0.
         23    2    1    2    0    0  0.13868058998E+03 -0.20745056143E+03 -0.85672573447E+03  0.89697650911E+03  0.91213114852E+02 0.  0.
        -11    1    3    3    0    0 -0.14170011669E+03  0.88004072755E+02 -0.37575711036E+03  0.41111682753E+03  0.00000000000E+00 0.  1.
         12    1    3    3    0    0 -0.15369248177E+03  0.40986763270E+02 -0.55784974920E+03  0.58008416321E+03  0.00000000000E+00 0. -1.
        -13    1    4    4    0    0  0.52068906292E+02 -0.14141421359E+03 -0.58834836048E+03  0.60734087964E+03  0.00000000000E+00 0.  1.
         13    1    4    4    0    0  0.86611683690E+02 -0.66036347840E+02 -0.26837737399E+03  0.28963562947E+03  0.00000000000E+00 0. -1.
         21    1    1    2  503  501  0.30379115148E+03 -0.29566655527E+02  0.14268857781E+02  0.30555989779E+03  0.00000000000E+00 0.  1.
          1    1    1    2  501    0 -0.14707914300E+03  0.10802638093E+03 -0.53113792257E+03  0.56161327092E+03  0.00000000000E+00 0. -1.
<scales pt_clust_5="13000.00000" pt_clust_6="13000.00000" pt_clust_7="13000.00000" pt_clust_8="13000.00000" pt_clust_9="305.22656" pt_clust_10="13000.00000"></scales>
<clustering>
<clus scale="   83.440">  5  6 -1 -1</clus>
<clus scale="   91.213">  7  8 -1 -1</clus>
<clus scale="  182.488">  7 10 -1 -1</clus>
<clus scale="  305.227">  1  9  2 -1</clus>
<clus scale="  213.653">  2  5  1 -1</clus>
<clus scale="  305.227">  1  5  2 -1</clus>
</clustering>
</event>
<event>
10    4  0.2759992E-005  0.2331154E+03  0.7546771E-02  0.1156184E+00
          4   -1    0    0  502    0 -0.00000000000E+00  0.00000000000E+00  0.26581430590E+03  0.26581430590E+03  0.00000000000E+00 0. -1.
         21   -1    0    0  503  502  0.00000000000E+00 -0.00000000000E+00 -0.26683002569E+03  0.26683002569E+03  0.00000000000E+00 0. -1.
         24    2    1    2    0    0 -0.63238391841E+02 -0.34802263783E+02  0.31800637167E+01  0.10854727148E+03  0.81006824234E+02 0.  0.
         23    2    1    2    0    0 -0.10544555445E+03 -0.35325639983E+02  0.10398632276E+03  0.17776990924E+03  0.91773196066E+02 0.  0.
        -11    1    3    3    0    0 -0.32755640436E+02  0.12507896444E+02 -0.27397303474E+02  0.44497097563E+02  0.00000000000E+00 0.  1.
         12    1    3    3    0    0 -0.30482751405E+02 -0.47310160227E+02  0.30577367191E+02  0.64050173913E+02  0.00000000000E+00 0. -1.
        -11    1    4    4    0    0 -0.42396861121E+02 -0.82734448871E+01 -0.10359129350E+02  0.44421338162E+02  0.00000000000E+00 0.  1.
         11    1    4    4    0    0 -0.63048693330E+02 -0.27052195096E+02  0.11434545211E+03  0.13334857108E+03  0.00000000000E+00 0. -1.
         21    1    1    2  503  501  0.11419175596E+03  0.87116174206E+02 -0.12102742699E+03  0.18782072043E+03  0.00000000000E+00 0. -1.
          3    1    1    2  501    0  0.54492190328E+02 -0.16988270439E+02  0.12845320721E+02  0.58506430448E+02  0.00000000000E+00 0. -1.
<scales pt_clust_5="13000.00000" pt_clust_6="13000.00000" pt_clust_7="13000.00000" pt_clust_8="13000.00000" pt_clust_9="132.28343" pt_clust_10="13000.00000"></scales>
<clustering>
<clus scale="   81.007">  5  6 -1 -1</clus>
<clus scale="   91.773">  7  8 -1 -1</clus>
<clus scale="   57.079">  7 10 -1 -1</clus>
<clus scale="  108.501">  1  5  2 -1</clus>
<clus scale="  132.283">  2  9  1 -1</clus>
<clus scale="  132.283">  2  5  1 -1</clus>
</clustering>
</event>
<event>
10    4  0.2759992E-005  0.2463695E+03  0.7546771E-02  0.1137726E+00
         21   -1    0    0  501  502  0.00000000000E+00  0.00000000000E+00  0.53890210653E+03  0.53890210653E+03  0.00000000000E+00 0. -1.
          2   -1    0    0  503    0 -0.00000000000E+00 -0.00000000000E+00 -0.31803412212E+03  0.31803412212E+03  0.00000000000E+00 0. -1.
         24    2    1    2    0    0 -0.55267539274E+02  0.10299403386E+03 -0.24196597490E+03  0.28033078823E+03  0.79847015658E+02 0.  0.
         23    2    1    2    0    0  0.82874392035E+01 -0.13447505798E+03  0.17700015628E+03  0.24055474190E+03  0.91571314599E+02 0.  0.
        -13    1    3    3    0    0  0.12589624543E+02  0.39291673239E+02 -0.37825563204E+02  0.55974167825E+02  0.00000000000E+00 0.  1.
         14    1    3    3    0    0 -0.67857163816E+02  0.63702360626E+02 -0.20414041170E+03  0.22435662040E+03  0.00000000000E+00 0. -1.
        -13    1    4    4    0    0  0.34566646475E+02 -0.94442867754E+02  0.67725493092E+02  0.12124788960E+03  0.00000000000E+00 0.  1.
         13    1    4    4    0    0 -0.26279207272E+02 -0.40032190225E+02  0.10927466319E+03  0.11930685229E+03  0.00000000000E+00 0. -1.
         21    1    1    2  503  502 -0.44826838380E+02  0.21373887771E+01  0.20619746868E+03  0.21102466671E+03  0.00000000000E+00 0.  1.
          1    1    1    2  501    0  0.91806938451E+02  0.29343635337E+02  0.79636334346E+02  0.12502603181E+03  0.00000000000E+00 0. -1.
<scales pt_clust_5="13000.00000" pt_clust_6="13000.00000" pt_clust_7="13000.00000" pt_clust_8="13000.00000" pt_clust_9="44.87777" pt_clust_10="13000.00000"></scales>
<clustering>
<clus scale="   44.878">  1  9  2 -1</clus>
<clus scale="   79.847">  5  6 -1 -1</clus>
<clus scale="   91.571">  7  8 -1 -1</clus>
<clus scale="   83.497">  7 10 -1 -1</clus>
<clus scale="  142.681">  2  5  1 -1</clus>
<clus scale="   44.878">  1  5  2 -1</clus>
</clustering>
</event>
<event>
10    4  0.2759992E-005  0.2891299E+03  0.7546771E-02  0.1122865E+00
          2   -1    0    0  503    0 -0.00000000000E+00  0.00000000000E+00  0.14950827025E+04  0.14950827025E+04  0.00000000000E+00 0. -1.
         21   -1    0    0  501  502  0.00000000000E+00 -0.00000000000E+00 -0.46936394517E+02  0.46936394517E+02  0.00000000000E+00 0. -1.
         24    2    1    2    0    0  0.97991909134E+02  0.35207523339E+02  0.80064513921E+03  0.81116609103E+03  0.78203608148E+02 0.  0.
         23    2    1    2    0    0 -0.33499070242E+02 -0.96366102938E+02  0.14170655816E+03  0.19778638288E+03  0.92898283752E+02 0.  0.
        -13    1    3    3    0    0  0.11518414496E+02 -0.21760465934E+02  0.10449289337E+03  0.10735435023E+03  0.00000000000E+00 0.  1.
         14    1    3    3    0    0  0.86473494638E+02  0.56967989274E+02  0.69615224585E+03  0.70381174079E+03  0.00000000000E+00 0. -1.
        -13    1    4    4    0    0 -0.38508506388E+02  0.21788475165E+01  0.30958140744E+02  0.49457647731E+02  0.00000000000E+00 0.  1.
         13    1    4    4    0    0  0.50094361456E+01 -0.98544950454E+02  0.11074841741E+03  0.14832873515E+03  0.00000000000E+00 0. -1.
         21    1    1    2  503  502 -0.31087781700E+02  0.88363952990E+01  0.10624754802E+02  0.34020838724E+02  0.00000000000E+00 0. -1.
          1    1    1    2  501    0 -0.33405057192E+02  0.52322184299E+02  0.49516985583E+03  0.49904578441E+03  0.00000000000E+00 0. -1.
<scales pt_clust_5="13000.00000" pt_clust_6="13000.00000" pt_clust_7="13000.00000" pt_clust_8="13000.00000" pt_clust_9="32.31922" pt_clust_10="13000.00000"></scales>
<clustering>
<clus scale="   32.319">  2  9  1 -1</clus>
<clus scale="   78.204">  5  6 -1 -1</clus>
<clus scale="   92.898">  7  8 -1 -1</clus>
<clus scale="   63.417">  7 10 -1 -1</clus>
<clus scale="  127.139">  1  5  2 -1</clus>
<clus scale="   32.319">  2  5  1 -1</clus>
</clustering>
</event>
<event>
10    4  0.2759992E-005  0.3664277E+03  0.7546771E-02  0.1105469E+00
          2   -1    0    0  503    0 -0.00000000000E+00  0.00000000000E+00  0.77029896333E+03  0.77029896333E+03  0.00000000000E+00 0. -1.
         21   -1    0    0  501  502  0.00000000000E+00 -0.00000000000E+00 -0.94872867832E+02  0.94872867832E+02  0.00000000000E+00 0. -1.
         24    2    1    2    0    0 -0.53010646285E+02  0.17020062790E+02  0.28018162593E+03  0.29677479284E+03  0.80459449425E+02 0.  0.
         23    2    1    2    0    0  0.13594390937E+03  0.83130148729E+02  0.12340069760E+03  0.22137716466E+03  0.91590112677E+02 0.  0.
        -13    1    3    3    0    0  0.21214877800E+02 -0.92499079421E+00  0.70034829137E+02  0.73183358356E+02  0.00000000000E+00 0.  1.
         14    1    3    3    0    0 -0.74225524085E+02  0.17945053584E+02  0.21014679679E+03  0.22359143448E+03  0.00000000000E+00 0. -1.
        -11    1    4    4    0    0  0.87847539499E+01 -0.18780665049E+02  0.16318680259E+02  0.26385310441E+02  0.00000000000E+00 0.  1.
         11    1    4    4    0    0  0.12715915542E+03  0.10191081378E+03  0.10708201734E+03  0.19499185422E+03  0.00000000000E+00 0. -1.
         21    1    1    2  503  502  0.25560894109E+02  0.25772524897E+02  0.11382078815E+02  0.38041215351E+02  0.00000000000E+00 0. -1.
          1    1    1    2  501    0 -0.10849415720E+03 -0.12592273642E+03  0.26046169316E+03  0.30897865831E+03  0.00000000000E+00 0. -1.
<scales pt_clust_5="13000.00000" pt_clust_6="13000.00000" pt_clust_7="13000.00000" pt_clust_8="13000.00000" pt_clust_9="36.29852" pt_clust_10="13000.00000"></scales>
<clustering>
<clus scale="   36.299">  2  9  1 -1</clus>
<clus scale="   80.459">  5  6 -1 -1</clus>
<clus scale="   91.590">  7  8 -1 -1</clus>
<clus scale="   96.957">  1  5  2 -1</clus>
<clus scale="  167.213">  7 10 -1 -1</clus>
<clus scale="   36.299">  2  5  1 -1</clus>
</clustering>
</event>
<event>
10    4  0.2759992E-005  0.4258351E+03  0.7546771E-02  0.1084807E+00
         21   -1    0    0  501  502  0.00000000000E+00  0.00000000000E+00  0.42436163771E+03  0.42436163771E+03  0.00000000000E+00 0. -1.
          2   -1    0    0  503    0 -0.00000000000E+00 -0.00000000000E+00 -0.18962504860E+03  0.18962504860E+03  0.00000000000E+00 0. -1.
         24    2    1    2    0    0 -0.32718993344E+02 -0.58356320978E+02  0.64918203678E+01  0.10485780072E+03  0.80479947300E+02 0.  0.
         23    2    1    2    0    0 -0.73416717213E+02 -0.12885008633E+03  0.16570044274E+02  0.17585455998E+03  0.93047841382E+02 0.  0.
        -13    1    3    3    0    0 -0.40686774601E+02  0.12899511382E+01  0.16371627229E+02  0.43876050182E+02  0.00000000000E+00 0.  1.
         14    1    3    3    0    0  0.79677812571E+01 -0.59646272116E+02 -0.98798068617E+01  0.60981750542E+02  0.00000000000E+00 0. -1.
        -11    1    4    4    0    0 -0.34809081539E+02 -0.55613011476E+00 -0.15475557817E+02  0.38098219487E+02  0.00000000000E+00 0.  1.
         11    1    4    4    0    0 -0.38607635673E+02 -0.12829395621E+03  0.32045602091E+02  0.13775634049E+03  0.00000000000E+00 0. -1.
         21    1    1    2  503  502 -0.25209713500E+02 -0.39190818243E+01  0.20576203185E+02  0.32776042998E+02  0.00000000000E+00 0.  1.
          1    1    1    2  501    0  0.13134542406E+03  0.19112548913E+03  0.19109852128E+03  0.30049828261E+03  0.00000000000E+00 0. -1.
<scales pt_clust_5="13000.00000" pt_clust_6="13000.00000" pt_clust_7="13000.00000" pt_clust_8="13000.00000" pt_clust_9="25.51252" pt_clust_10="13000.00000"></scales>
<clustering>
<clus scale="   25.513">  1  9  2 -1</clus>
<clus scale="   80.480">  5  6 -1 -1</clus>
<clus scale="   93.048">  7  8 -1 -1</clus>
<clus scale="  106.117">  2  5  1 -1</clus>
<clus scale="  194.812">  7 10 -1 -1</clus>
<clus scale="   25.513">  1  5  2 -1</clus>
</clustering>
</event>
<event>
10    4  0.2759992E-005  0.3148336E+03  0.7546771E-02  0.1089266E+00
          2   -1    0    0  503    0 -0.00000000000E+00  0.00000000000E+00  0.90369658796E+03  0.90369658796E+03  0.00000000000E+00 0. -1.
         21   -1    0    0  501  502  0.00000000000E+00 -0.00000000000E+00 -0.12331713820E+03  0.12331713820E+03  0.00000000000E+00 0. -1.
         24    2    1    2    0    0 -0.13893074731E+03  0.12227004270E+03  0.23674907728E+03  0.31163656157E+03  0.82556071980E+02 0.  0.
         23    2    1    2    0    0  0.78550366484E+02 -0.16647184071E+03  0.40159538982E+03  0.45129820051E+03  0.92239768159E+02 0.  0.
        -13    1    3    3    0    0 -0.27501182887E+02  0.25897407454E+02  0.11329050940E+03  0.11942248655E+03  0.00000000000E+00 0.  1.
         14    1    3    3    0    0 -0.11142956443E+03  0.96372635247E+02  0.12345856788E+03  0.19221407502E+03  0.00000000000E+00 0. -1.
        -11    1    4    4    0    0  0.10472749603E+02 -0.35895645718E+02  0.20282597405E+02  0.42538918924E+02  0.00000000000E+00 0.  1.
         11    1    4    4    0    0  0.68077616881E+02 -0.13057619499E+03  0.38131279242E+03  0.40875928158E+03  0.00000000000E+00 0. -1.
         21    1    1    2  503  502 -0.69832657484E+02  0.40185197787E+02  0.14681175542E+02  0.81896197029E+02  0.00000000000E+00 0. -1.
          1    1    1    2  501    0  0.13021303831E+03  0.40166002204E+01  0.12735380712E+03  0.18218276706E+03  0.00000000000E+00 0. -1.
<scales pt_clust_5="13000.00000" pt_clust_6="13000.00000" pt_clust_7="13000.00000" pt_clust_8="13000.00000" pt_clust_9="80.56954" pt_clust_10="13000.00000"></scales>
<clustering>
<clus scale="   80.570">  2  9  1 -1</clus>
<clus scale="   82.556">  5  6 -1 -1</clus>
<clus scale="   92.240">  7  8 -1 -1</clus>
<clus scale="  110.086">  7 10 -1 -1</clus>
<clus scale="  233.235">  1  5  2 -1</clus>
<clus scale="   80.570">  2  5  1 -1</clus>
</clustering>
</event>
<event>
10    4  0.2759992E-005  0.4251532E+03  0.7546771E-02  0.1093641E+00
          2   -1    0    0  502    0 -0.00000000000E+00  0.00000000000E+00  0.38158479637E+03  0.38158479637E+03  0.00000000000E+00 0. -1.
         21   -1    0    0  503  502  0.00000000000E+00 -0.00000000000E+00 -0.23498612525E+03  0.23498612525E+03  0.00000000000E+00 0. -1.
         24    2    1    2    0    0 -0.39680495871E+01  0.30110534369E+02  0.94783806471E+02  0.12721109511E+03  0.79223121958E+02 0.  0.
         23    2    1    2    0    0 -0.98606324091E+02  0.16110218968E+03  0.71043178703E+02  0.22102270517E+03  0.90148656614E+02 0.  0.
        -11    1    3    3    0    0  0.56994908782E+01 -0.25953479853E+02  0.41409640474E+02  0.49201886519E+02  0.00000000000E+00 0.  1.
         12    1    3    3    0    0 -0.96675404653E+01  0.56064014223E+02  0.53374165996E+02  0.78009208592E+02  0.00000000000E+00 0. -1.
        -13    1    4    4    0    0 -0.32829250635E+02  0.26785711033E+02 -0.19016901865E+02  0.46442185234E+02  0.00000000000E+00 0. -1.
         13    1    4    4    0    0 -0.65777073456E+02  0.13431647865E+03  0.90060080568E+02  0.17458051993E+03  0.00000000000E+00 0.  1.
         21    1    1    2  503  501 -0.23529106998E+02 -0.19047440830E+02 -0.44093802352E+02  0.53485393185E+02  0.00000000000E+00 0. -1.
          1    1    1    2  501    0  0.12610348068E+03 -0.17216528322E+03  0.24865488302E+02  0.21485172816E+03  0.00000000000E+00 0. -1.
<scales pt_clust_5="13000.00000" pt_clust_6="13000.00000" pt_clust_7="13000.00000" pt_clust_8="13000.00000" pt_clust_9="30.27249" pt_clust_10="13000.00000"></scales>
<clustering>
<clus scale="   30.272">  2  9  1 -1</clus>
<clus scale="   79.223">  5  6 -1 -1</clus>
<clus scale="   84.392">  1  5  2 -1</clus>
<clus scale="   90.149">  7  8 -1 -1</clus>
<clus scale="  202.279">  7 10 -1 -1</clus>
<clus scale="   30.272">  2  5  1 -1</clus>
</clustering>
</event>
<event>
10    4  0.2759992E-005  0.1927792E+03  0.7546771E-02  0.1169851E+00
         21   -1    0    0  501  502  0.00000000000E+00  0.00000000000E+00  0.18033967382E+03  0.18033967382E+03  0.00000000000E+00 0.  1.
         -3   -1    0    0    0  501 -0.00000000000E+00 -0.00000000000E+00 -0.82667929798E+03  0.82667929798E+03  0.00000000000E+00 0.  1.
         24    2    1    2    0    0  0.12000477922E+03 -0.72440528476E+02 -0.24010953128E+03  0.28963487046E+03  0.81160298013E+02 0.  0.
         23    2    1    2    0    0 -0.90146696974E+01  0.67125072235E+00 -0.18932128821E+03  0.20838395474E+03  0.86600274673E+02 0.  0.
        -13    1    3    3    0    0  0.55266912819E+02 -0.76988920919E+02 -0.11795489051E+03  0.15131120842E+03  0.00000000000E+00 0.  1.
         14    1    3    3    0    0  0.64737866405E+02  0.45483924430E+01 -0.12215464077E+03  0.13832366205E+03  0.00000000000E+00 0. -1.
        -11    1    4    4    0    0  0.37227689603E+02  0.12605379804E+02 -0.83948516495E+02  0.92693850362E+02  0.00000000000E+00 0.  1.
         11    1    4    4    0    0 -0.46242359300E+02 -0.11934129082E+02 -0.10537277172E+03  0.11569010438E+03  0.00000000000E+00 0. -1.
         21    1    1    2  503  502 -0.18345666905E+02  0.63300196722E+02  0.13219540554E+03  0.14771290954E+03  0.00000000000E+00 0.  1.
         -4    1    1    2    0  503 -0.92644442621E+02  0.84690810322E+01 -0.34910421020E+03  0.36128723706E+03  0.00000000000E+00 0.  1.
<scales pt_clust_5="13000.00000" pt_clust_6="13000.00000" pt_clust_7="13000.00000" pt_clust_8="13000.00000" pt_clust_9="65.90507" pt_clust_10="13000.00000"></scales>
<clustering>
<clus scale="   65.905">  1  9  2 -1</clus>
<clus scale="   81.160">  5  6 -1 -1</clus>
<clus scale="   86.600">  7  8 -1 -1</clus>
<clus scale="   97.098">  7 10 -1 -1</clus>
<clus scale="  139.806">  2  5  1 -1</clus>
<clus scale="   65.905">  1  5  2 -1</clus>
</clustering>
</event>
<event>
10    4  0.2759992E-005  0.9002777E+03  0.7546771E-02  0.9965695E-01
          2   -1    0    0  503    0 -0.00000000000E+00  0.00000000000E+00  0.17039626508E+04  0.17039626508E+04  0.00000000000E+00 0. -1.
         21   -1    0    0  501  502  0.00000000000E+00 -0.00000000000E+00 -0.32119180956E+03  0.32119180956E+03  0.00000000000E+00 0. -1.
         24    2    1    2    0    0  0.13212459068E+03 -0.58094407068E+02  0.67173531813E+02  0.17791433158E+03  0.79431469904E+02 0.  0.
         23    2    1    2    0    0 -0.43146044918E+03  0.13335970049E+03  0.10717706613E+04  0.11669800698E+04  0.95954176964E+02 0.  0.
        -11    1    3    3    0    0  0.38922455079E+02 -0.88896788376E+01  0.60271245393E+02  0.72295275921E+02  0.00000000000E+00 0.  1.
         12    1    3    3    0    0  0.93202135603E+02 -0.49204728231E+02  0.69022864193E+01  0.10561905566E+03  0.00000000000E+00 0. -1.
        -11    1    4    4    0    0 -0.88089950211E+02 -0.11714535659E+02  0.19919527584E+03  0.21811883823E+03  0.00000000000E+00 0.  1.
         11    1    4    4    0    0 -0.34337049897E+03  0.14507423615E+03  0.87257538544E+03  0.94886123160E+03  0.00000000000E+00 0. -1.
         21    1    1    2  503  502 -0.44265790669E+02  0.85608121667E+02 -0.12047279394E+03  0.15427865957E+03  0.00000000000E+00 0. -1.
          1    1    1    2  501    0  0.34360164917E+03 -0.16087341509E+03  0.36429944214E+03  0.52598139942E+03  0.00000000000E+00 0. -1.
<scales pt_clust_5="13000.00000" pt_clust_6="13000.00000" pt_clust_7="13000.00000" pt_clust_8="13000.00000" pt_clust_9="96.37536" pt_clust_10="13000.00000"></scales>
<clustering>
<clus scale="   79.431">  5  6 -1 -1</clus>
<clus scale="   95.954">  7  8 -1 -1</clus>
<clus scale="   96.375">  2  9  1 -1</clus>
<clus scale="  146.507">  1  5  2 -1</clus>
<clus scale="  376.459">  7 10 -1 -1</clus>
<clus scale="   96.375">  2  5  1 -1</clus>
</clustering>
</event>
<event>
10    4  0.2759992E-005  0.3891498E+03  0.7546771E-02  0.1088165E+00
          2   -1    0    0  503    0 -0.00000000000E+00  0.00000000000E+00  0.11249239070E+04  0.11249239070E+04  0.00000000000E+00 0. -1.
         21   -1    0    0  501  502  0.00000000000E+00 -0.00000000000E+00 -0.83946589247E+02  0.83946589247E+02  0.00000000000E+00 0. -1.
         24    2    1    2    0    0  0.89725372270E+02 -0.24412880481E+02  0.22064397026E+03  0.25174945915E+03  0.77765014037E+02 0.  0.
         23    2    1    2    0    0  0.31496295826E+02  0.14270813625E+03  0.16979629214E+03  0.24146044702E+03  0.90081839729E+02 0.  0.
        -11    1    3    3    0    0  0.88737434136E+02 -0.30491758157E+02  0.22528109337E+03  0.24404026423E+03  0.00000000000E+00 0.  1.
         12    1    3    3    0    0  0.98793813385E+00  0.60788776755E+01 -0.46371231156E+01  0.77091949216E+01  0.00000000000E+00 0. -1.
        -13    1    4    4    0    0 -0.25157868678E+02  0.10937476117E+02  0.19172850372E+02  0.33468566321E+02  0.00000000000E+00 0.  1.
         13    1    4    4    0    0  0.56654164504E+02  0.13177066013E+03  0.15062344177E+03  0.20799188070E+03  0.00000000000E+00 0. -1.
         21    1    1    2  503  502  0.17956613293E+02 -0.41656049024E+02 -0.65444434745E+00  0.45366228393E+02  0.00000000000E+00 0. -1.
          1    1    1    2  501    0 -0.13917828139E+03 -0.76639206743E+02  0.65119149967E+03  0.67029436166E+03  0.00000000000E+00 0. -1.
<scales pt_clust_5="13000.00000" pt_clust_6="13000.00000" pt_clust_7="13000.00000" pt_clust_8="13000.00000" pt_clust_9="45.36151" pt_clust_10="13000.00000"></scales>
<clustering>
<clus scale="   45.362">  2  9  1 -1</clus>
<clus scale="   77.765">  5  6 -1 -1</clus>
<clus scale="   90.082">  7  8 -1 -1</clus>
<clus scale="  127.160">  1  5  2 -1</clus>
<clus scale="  127.040">  7 10 -1 -1</clus>
<clus scale="   45.362">  2  5  1 -1</clus>
</clustering>
</event>
<event>
10    4  0.2759992E-005  0.2103093E+03  0.7546771E-02  0.1175569E+00
          2   -1    0    0  503    0 -0.00000000000E+00  0.00000000000E+00  0.61393660821E+03  0.61393660821E+03  0.00000000000E+00 0. -1.
         21   -1    0    0  501  502  0.00000000000E+00 -0.00000000000E+00 -0.11139744964E+03  0.11139744964E+03  0.00000000000E+00 0. -1.
         24    2    1    2    0    0  0.13701574225E+02 -0.25758121356E+02  0.28683847653E+02  0.90880078133E+02  0.81149316283E+02 0.  0.
         23    2    1    2    0    0 -0.59756190982E+02  0.89975261765E+02  0.28325942023E+03  0.31681144958E+03  0.92017636053E+02 0.  0.
        -11    1    3    3    0    0  0.29752568765E+01  0.23949992870E+02  0.31813227221E+02  0.39931638311E+02  0.00000000000E+00 0.  1.
         12    1    3    3    0    0  0.10726317349E+02 -0.49708114227E+02 -0.31293795680E+01  0.50948439822E+02  0.00000000000E+00 0. -1.
        -13    1    4    4    0    0  0.33956576349E+01  0.36675126969E+02  0.18402075575E+03  0.18767054637E+03  0.00000000000E+00 0.  1.
         13    1    4    4    0    0 -0.63151848616E+02  0.53300134796E+02  0.99238664477E+02  0.12914090320E+03  0.00000000000E+00 0. -1.
         21    1    1    2  503  502  0.46886566316E+02  0.13904462898E+01 -0.49823921101E+02  0.68430304367E+02  0.00000000000E+00 0. -1.
          1    1    1    2  501    0 -0.83194955984E+00 -0.65607586699E+02  0.24041981179E+03  0.24921222577E+03  0.00000000000E+00 0. -1.
<scales pt_clust_5="13000.00000" pt_clust_6="13000.00000" pt_clust_7="13000.00000" pt_clust_8="13000.00000" pt_clust_9="46.90718" pt_clust_10="13000.00000"></scales>
<clustering>
<clus scale="   46.907">  2  9  1 -1</clus>
<clus scale="   81.149">  5  6 -1 -1</clus>
<clus scale="   92.018">  7  8 -1 -1</clus>
<clus scale="   65.565">  7 10 -1 -1</clus>
<clus scale="   94.536">  1  5  2 -1</clus>
<clus scale="   46.907">  2  5  1 -1</clus>
</clustering>
</event>
<event>
10    4  0.2759992E-005  0.2839029E+03  0.7546771E-02  0.1140969E+00
          2   -1    0    0  502    0 -0.00000000000E+00  0.00000000000E+00  0.55827099562E+03  0.55827099562E+03  0.00000000000E+00 0. -1.
         21   -1    0    0  503  502  0.00000000000E+00 -0.00000000000E+00 -0.83366604563E+02  0.83366604563E+02  0.00000000000E+00 0. -1.
         24    2    1    2    0    0 -0.29232829480E+02  0.35214946371E+01  0.19092108272E+03  0.20981401104E+03  0.81878569593E+02 0.  0.
         23    2    1    2    0    0  0.71162923754E+02 -0.96469245774E+02  0.15931010666E+03  0.21872080148E+03  0.89936654470E+02 0.  0.
        -13    1    3    3    0    0  0.11103812189E+02 -0.29503941754E+02  0.10175670180E+03  0.10652794743E+03  0.00000000000E+00 0.  1.
         14    1    3    3    0    0 -0.40336641669E+02  0.33025436391E+02  0.89164380921E+02  0.10328606360E+03  0.00000000000E+00 0. -1.
        -11    1    4    4    0    0  0.30739728590E+02  0.11255320100E+02  0.21370863463E+02  0.39093822396E+02  0.00000000000E+00 0.  1.
         11    1    4    4    0    0  0.40423195163E+02 -0.10772456587E+03  0.13793924320E+03  0.17962697908E+03  0.00000000000E+00 0. -1.
         21    1    1    2  503  501  0.16116536745E+02 -0.27465418833E+02  0.23896748749E+01  0.31934347251E+02  0.00000000000E+00 0. -1.
          1    1    1    2  501    0 -0.58046631019E+02  0.12041316997E+03  0.12228352680E+03  0.18116844041E+03  0.00000000000E+00 0. -1.
<scales pt_clust_5="13000.00000" pt_clust_6="13000.00000" pt_clust_7="13000.00000" pt_clust_8="13000.00000" pt_clust_9="31.84481" pt_clust_10="13000.00000"></scales>
<clustering>
<clus scale="   31.845">  2  9  1 -1</clus>
<clus scale="   81.879">  5  6 -1 -1</clus>
<clus scale="   86.220">  1  5  2 -1</clus>
<clus scale="   89.937">  7  8 -1 -1</clus>
<clus scale="  124.532">  7 10 -1 -1</clus>
<clus scale="   31.845">  2  5  1 -1</clus>
</clustering>
</event>
<event>
10    4  0.2759992E-005  0.1376312E+03  0.7546771E-02  0.1237735E+00
         21   -1    0    0  501  502  0.00000000000E+00  0.00000000000E+00  0.48202814947E+02  0.48202814947E+02  0.00000000000E+00 0.  1.
          2   -1    0    0  503    0 -0.00000000000E+00 -0.00000000000E+00 -0.11810139414E+04  0.11810139414E+04  0.00000000000E+00 0. -1.
         24    2    1    2    0    0  0.34004560661E+02 -0.16650725918E+02 -0.10005437731E+04  0.10044854578E+04  0.80434049064E+02 0.  0.
         23    2    1    2    0    0  0.17326787450E+02  0.42867905129E+02 -0.97789211969E+02  0.14097795787E+03  0.90411170622E+02 0.  0.
        -11    1    3    3    0    0  0.56218004601E+01 -0.26285004481E+02 -0.10325810435E+03  0.10669930747E+03  0.00000000000E+00 0.  1.
         12    1    3    3    0    0  0.28382760201E+02  0.96342785628E+01 -0.89728566876E+03  0.89778615035E+03  0.00000000000E+00 0. -1.
        -11    1    4    4    0    0  0.11382815071E+02 -0.18783765235E+02  0.35115611779E+01  0.22242512836E+02  0.00000000000E+00 0.  1.
         11    1    4    4    0    0  0.59439723793E+01  0.61651670364E+02 -0.10130077315E+03  0.11873544503E+03  0.00000000000E+00 0. -1.
         21    1    1    2  503  502 -0.17232274732E+02 -0.16515005381E+02  0.10840725272E+02  0.26214843497E+02  0.00000000000E+00 0.  1.
          1    1    1    2  501    0 -0.34099073379E+02 -0.97021738295E+01 -0.45318866680E+02  0.57538497196E+02  0.00000000000E+00 0. -1.
<scales pt_clust_5="13000.00000" pt_clust_6="13000.00000" pt_clust_7="13000.00000" pt_clust_8="13000.00000" pt_clust_9="23.86832" pt_clust_10="13000.00000"></scales>
<clustering>
<clus scale="   23.868">  1  9  2 -1</clus>
<clus scale="   80.434">  5  6 -1 -1</clus>
<clus scale="   88.681">  2  5  1 -1</clus>
<clus scale="   90.411">  7  8 -1 -1</clus>
<clus scale="   32.241">  7 10 -1 -1</clus>
<clus scale="   23.868">  1  5  2 -1</clus>
</clustering>
</event>
<event>
10    4  0.2759992E-005  0.1724868E+03  0.7546771E-02  0.1198504E+00
         21   -1    0    0  501  502  0.00000000000E+00  0.00000000000E+00  0.26148585234E+03  0.26148585234E+03  0.00000000000E+00 0.  1.
          2   -1    0    0  503    0 -0.00000000000E+00 -0.00000000000E+00 -0.40920143698E+03  0.40920143698E+03  0.00000000000E+00 0. -1.
         24    2    1    2    0    0 -0.63615021906E+02  0.20809439923E+02 -0.33970233793E+03  0.35537209067E+03  0.80073345337E+02 0.  0.
         23    2    1    2    0    0  0.68366769776E+02 -0.35721994309E+02  0.45622736760E+02  0.12817504432E+03  0.91636956460E+02 0.  0.
        -11    1    3    3    0    0 -0.27299476888E+02  0.23670520804E+02 -0.41805654106E+02  0.55256381610E+02  0.00000000000E+00 0.  1.
         12    1    3    3    0    0 -0.36315545018E+02 -0.28610808810E+01 -0.29789668382E+03  0.30011570906E+03  0.00000000000E+00 0. -1.
        -11    1    4    4    0    0  0.74469604638E+02 -0.59364876523E+02  0.38661148020E+02  0.10278421545E+03  0.00000000000E+00 0.  1.
         11    1    4    4    0    0 -0.61028348619E+01  0.23642882214E+02  0.69615887403E+01  0.25390828867E+02  0.00000000000E+00 0. -1.
         21    1    1    2  503  502  0.35335788619E+02 -0.10302650943E+01  0.13893739339E+03  0.14336414714E+03  0.00000000000E+00 0.  1.
          1    1    1    2  501    0 -0.40087536489E+02  0.15942819480E+02  0.74266231371E+01  0.43776007195E+02  0.00000000000E+00 0. -1.
<scales pt_clust_5="13000.00000" pt_clust_6="13000.00000" pt_clust_7="13000.00000" pt_clust_8="13000.00000" pt_clust_9="35.35080" pt_clust_10="13000.00000"></scales>
<clustering>
<clus scale="   35.351">  1  9  2 -1</clus>
<clus scale="   80.073">  5  6 -1 -1</clus>
<clus scale="   91.637">  7  8 -1 -1</clus>
<clus scale="   36.167">  7 10 -1 -1</clus>
<clus scale="  102.963">  2  5  1 -1</clus>
<clus scale="   35.351">  1  5  2 -1</clus>
</clustering>
</event>
<event>
10    4  0.2759992E-005  0.9164249E+03  0.7546771E-02  0.9673040E-01
          2   -1    0    0  503    0 -0.00000000000E+00  0.00000000000E+00  0.27428992306E+04  0.27428992306E+04  0.00000000000E+00 0. -1.
         21   -1    0    0  501  502  0.00000000000E+00 -0.00000000000E+00 -0.22496318081E+03  0.22496318081E+03  0.00000000000E+00 0. -1.
         24    2    1    2    0    0 -0.25354521711E+03  0.25101965626E+03  0.11053523269E+04  0.11642407699E+04  0.79729283510E+02 0.  0.
         23    2    1    2    0    0 -0.30891946472E+03 -0.41065636938E+02  0.57545925853E+03  0.66069729979E+03  0.90829188592E+02 0.  0.
        -13    1    3    3    0    0 -0.24141276415E+03  0.23988890930E+03  0.10893694138E+04  0.11412942352E+04  0.00000000000E+00 0.  1.
         14    1    3    3    0    0 -0.12132452965E+02  0.11130746952E+02  0.15982913087E+02  0.22946534671E+02  0.00000000000E+00 0. -1.
        -13    1    4    4    0    0 -0.17949021479E+03 -0.66106800298E+02  0.30902271214E+03  0.36343071261E+03  0.00000000000E+00 0. -1.
         13    1    4    4    0    0 -0.12942924993E+03  0.25041163359E+02  0.26643654639E+03  0.29726658718E+03  0.00000000000E+00 0.  1.
         21    1    1    2  503  502  0.10684599446E+02 -0.18471145927E+02 -0.64900943969E+02  0.68318931675E+02  0.00000000000E+00 0. -1.
          1    1    1    2  501    0  0.55178008238E+03 -0.19148287339E+03  0.90202540829E+03  0.10746054101E+04  0.00000000000E+00 0. -1.
<scales pt_clust_5="13000.00000" pt_clust_6="13000.00000" pt_clust_7="13000.00000" pt_clust_8="13000.00000" pt_clust_9="21.33879" pt_clust_10="13000.00000"></scales>
<clustering>
<clus scale="   21.339">  2  9  1 -1</clus>
<clus scale="   79.729">  5  6 -1 -1</clus>
<clus scale="   90.829">  7  8 -1 -1</clus>
<clus scale="  361.852">  1  5  2 -1</clus>
<clus scale="  403.090">  7 10 -1 -1</clus>
<clus scale="   21.339">  2  5  1 -1</clus>
</clustering>
</event>
<event>
10    4  0.2759992E-005  0.3593414E+03  0.7546771E-02  0.1084190E+00
          2   -1    0    0  503    0 -0.00000000000E+00  0.00000000000E+00  0.79899867471E+03  0.79899867471E+03  0.00000000000E+00 0. -1.
         21   -1    0    0  501  502  0.00000000000E+00 -0.00000000000E+00 -0.10093251001E+03  0.10093251001E+03  0.00000000000E+00 0. -1.
         24    2    1    2    0    0  0.77180975642E+02 -0.14275415858E+03  0.28299564364E+03  0.33543434607E+03  0.78064162137E+02 0.  0.
         23    2    1    2    0    0  0.53637006428E+02 -0.33351213460E+02  0.73252899031E+02  0.14273686371E+03  0.10496948675E+03 0.  0.
        -13    1    3    3    0    0  0.38306058996E+02 -0.26590322911E+02  0.13775880078E+03  0.14543688191E+03  0.00000000000E+00 0.  1.
         14    1    3    3    0    0  0.38874916646E+02 -0.11616383567E+03  0.14523684287E+03  0.18999746416E+03  0.00000000000E+00 0. -1.
        -13    1    4    4    0    0  0.25450203370E+02 -0.51842095379E+02 -0.45636676983E+01  0.57932225641E+02  0.00000000000E+00 0.  1.
         13    1    4    4    0    0  0.28186803057E+02  0.18490881919E+02  0.77816566729E+02  0.84804638070E+02  0.00000000000E+00 0. -1.
         21    1    1    2  503  502  0.17021559542E+02  0.12123068871E+02  0.99163563241E+01  0.23130854088E+02  0.00000000000E+00 0.  1.
          1    1    1    2  501    0 -0.14783954161E+03  0.16398230317E+03  0.33190126570E+03  0.39862912085E+03  0.00000000000E+00 0. -1.
<scales pt_clust_5="13000.00000" pt_clust_6="13000.00000" pt_clust_7="13000.00000" pt_clust_8="13000.00000" pt_clust_9="20.89742" pt_clust_10="13000.00000"></scales>
<clustering>
<clus scale="   20.897">  2  9  1 -1</clus>
<clus scale="   78.064">  5  6 -1 -1</clus>
<clus scale="  104.969">  7  8 -1 -1</clus>
<clus scale="  179.532">  1  5  2 -1</clus>
<clus scale="  102.250">  7 10 -1 -1</clus>
<clus scale="   20.897">  2  5  1 -1</clus>
</clustering>
</event>
<event>
10    4  0.2759992E-005  0.3347455E+03  0.7546771E-02  0.1118945E+00
          2   -1    0    0  502    0 -0.00000000000E+00  0.00000000000E+00  0.14977014276E+04  0.14977014276E+04  0.00000000000E+00 0. -1.
         21   -1    0    0  503  502  0.00000000000E+00 -0.00000000000E+00 -0.51308000627E+02  0.51308000627E+02  0.00000000000E+00 0. -1.
         24    2    1    2    0    0 -0.29399270262E+02 -0.33455824915E+02  0.14155330948E+03  0.16792904231E+03  0.78607979961E+02 0.  0.
         23    2    1    2    0    0 -0.23355384398E+02 -0.15758074248E+03  0.41588771559E+03  0.45450503459E+03  0.90747287092E+02 0.  0.
        -11    1    3    3    0    0 -0.53449512717E+02 -0.30581009775E+02  0.12251755015E+03  0.13712256803E+03  0.00000000000E+00 0.  1.
         12    1    3    3    0    0  0.24050242456E+02 -0.28748151403E+01  0.19035759333E+02  0.30806474281E+02  0.00000000000E+00 0. -1.
        -11    1    4    4    0    0 -0.27771148417E+02 -0.10650497780E+03  0.36887630050E+03  0.38494710293E+03  0.00000000000E+00 0. -1.
         11    1    4    4    0    0  0.44157640188E+01 -0.51075764679E+02  0.47011415087E+02  0.69557931667E+02  0.00000000000E+00 0.  1.
         21    1    1    2  503  501 -0.52073190489E+02  0.10659961844E+03  0.30386413252E+03  0.32620316806E+03  0.00000000000E+00 0. -1.
          1    1    1    2  501    0  0.10482784515E+03  0.84436948952E+02  0.58508826933E+03  0.60037218321E+03  0.00000000000E+00 0. -1.
<scales pt_clust_5="13000.00000" pt_clust_6="13000.00000" pt_clust_7="13000.00000" pt_clust_8="13000.00000" pt_clust_9="115.01863" pt_clust_10="13000.00000"></scales>
<clustering>
<clus scale="   78.608">  5  6 -1 -1</clus>
<clus scale="   90.348">  1  5  2 -1</clus>
<clus scale="   90.747">  7  8 -1 -1</clus>
<clus scale="  115.019">  2  9  1 -1</clus>
<clus scale="  125.255">  7 10 -1 -1</clus>
<clus scale="  115.019">  2  5  1 -1</clus>
</clustering>
</event>
<event>
10    4  0.2759992E-005  0.1781485E+03  0.7546771E-02  0.1201254E+00
         21   -1    0    0  501  502  0.00000000000E+00  0.00000000000E+00  0.10731199741E+03  0.10731199741E+03  0.00000000000E+00 0.  1.
          2   -1    0    0  503    0 -0.00000000000E+00 -0.00000000000E+00 -0.37000662091E+03  0.37000662091E+03  0.00000000000E+00 0. -1.
         24    2    1    2    0    0 -0.47778478326E+01  0.34702442668E+02 -0.81623683961E+02  0.12011130919E+03  0.80853036156E+02 0.  0.
         23    2    1    2    0    0 -0.35265710856E+02  0.47737231352E+02 -0.91152844200E+02  0.14289244684E+03  0.92665509974E+02 0.  0.
        -13    1    3    3    0    0 -0.10420366722E+02 -0.21382989897E+02 -0.39086451965E+01  0.24105887390E+02  0.00000000000E+00 0.  1.
         14    1    3    3    0    0  0.56425188896E+01  0.56085432565E+02 -0.77715038764E+02  0.96005421803E+02  0.00000000000E+00 0. -1.
        -13    1    4    4    0    0 -0.57861757598E+02  0.60645643796E+02 -0.73126043801E+02  0.11123531537E+03  0.00000000000E+00 0.  1.
         13    1    4    4    0    0  0.22596046742E+02 -0.12908412445E+02 -0.18026800399E+02  0.31657131469E+02  0.00000000000E+00 0. -1.
         21    1    1    2  503  502  0.70649555960E+02 -0.17376701264E+02  0.26543172814E+02  0.77445784438E+02  0.00000000000E+00 0.  1.
          1    1    1    2  501    0 -0.30605997271E+02 -0.65062972756E+02 -0.11646126816E+03  0.13686907786E+03  0.00000000000E+00 0. -1.
<scales pt_clust_5="13000.00000" pt_clust_6="13000.00000" pt_clust_7="13000.00000" pt_clust_8="13000.00000" pt_clust_9="72.75513" pt_clust_10="13000.00000"></scales>
<clustering>
<clus scale="   72.755">  1  9  2 -1</clus>
<clus scale="   80.853">  5  6 -1 -1</clus>
<clus scale="   88.037">  2  5  1 -1</clus>
<clus scale="   92.666">  7  8 -1 -1</clus>
<clus scale="   54.262">  7 10 -1 -1</clus>
<clus scale="   72.755">  1  5  2 -1</clus>
</clustering>
</event>
<event>
10    4  0.2759992E-005  0.4717755E+03  0.7546771E-02  0.1028821E+00
         21   -1    0    0  503  502  0.00000000000E+00  0.00000000000E+00  0.56332809861E+03  0.56332809861E+03  0.00000000000E+00 0. -1.
          2   -1    0    0  502    0 -0.00000000000E+00 -0.00000000000E+00 -0.79733274898E+03  0.79733274898E+03  0.00000000000E+00 0. -1.
         24    2    1    2    0    0  0.25568031422E+03  0.26335512375E+03 -0.58856181543E+03  0.69835536734E+03  0.81036190836E+02 0.  0.
         23    2    1    2    0    0 -0.81364576896E+02 -0.12203953725E+03 -0.33122860764E+02  0.17516674658E+03  0.89846659245E+02 0.  0.
        -11    1    3    3    0    0  0.75895403595E+02  0.46703632149E+02 -0.95802974279E+02  0.13084170369E+03  0.00000000000E+00 0.  1.
         12    1    3    3    0    0  0.17978491062E+03  0.21665149160E+03 -0.49275884115E+03  0.56751366365E+03  0.00000000000E+00 0. -1.
        -11    1    4    4    0    0 -0.28895076657E+02 -0.10567265664E+03 -0.45833408829E+02  0.11875326177E+03  0.00000000000E+00 0.  1.
         11    1    4    4    0    0 -0.52469500239E+02 -0.16366880606E+02  0.12710548065E+02  0.56413484808E+02  0.00000000000E+00 0. -1.
         21    1    1    2  503  501 -0.20951327433E+02  0.44058870224E+02  0.10605113279E+03  0.11673467751E+03  0.00000000000E+00 0.  1.
          1    1    1    2  501    0 -0.15336440989E+03 -0.18537445673E+03  0.28162889304E+03  0.37040405616E+03  0.00000000000E+00 0. -1.
<scales pt_clust_5="13000.00000" pt_clust_6="13000.00000" pt_clust_7="13000.00000" pt_clust_8="13000.00000" pt_clust_9="48.78670" pt_clust_10="13000.00000"></scales>
<clustering>
<clus scale="   48.787">  1  9  2 -1</clus>
<clus scale="   81.036">  5  6 -1 -1</clus>
<clus scale="   89.847">  7  8 -1 -1</clus>
<clus scale="  227.981">  7 10 -1 -1</clus>
<clus scale="  377.952">  2  5  1 -1</clus>
<clus scale="   48.787">  1  5  2 -1</clus>
</clustering>
</event>
<event>
10    4  0.2759992E-005  0.3646209E+03  0.7546771E-02  0.1110177E+00
          2   -1    0    0  502    0 -0.00000000000E+00  0.00000000000E+00  0.76486228197E+03  0.76486228197E+03  0.00000000000E+00 0. -1.
         21   -1    0    0  503  502  0.00000000000E+00 -0.00000000000E+00 -0.15042271716E+03  0.15042271716E+03  0.00000000000E+00 0. -1.
         24    2    1    2    0    0 -0.31418994112E+02 -0.37492663549E+01  0.12503494545E+03  0.15197954177E+03  0.80391749219E+02 0.  0.
         23    2    1    2    0    0  0.16408470892E+03  0.69918259929E+02  0.47262464029E+03  0.51308210912E+03  0.89815618436E+02 0.  0.
        -13    1    3    3    0    0  0.23618293728E+02 -0.17361207434E+02  0.35982290714E+02  0.46410780722E+02  0.00000000000E+00 0.  1.
         14    1    3    3    0    0 -0.55037287840E+02  0.13611941079E+02  0.89052654739E+02  0.10556876105E+03  0.00000000000E+00 0. -1.
        -13    1    4    4    0    0  0.18898832492E+02  0.49459801055E+02  0.13371254935E+03  0.14381405927E+03  0.00000000000E+00 0. -1.
         13    1    4    4    0    0  0.14518587643E+03  0.20458458874E+02  0.33891209094E+03  0.36926804985E+03  0.00000000000E+00 0.  1.
         21    1    1    2  503  501 -0.64509438041E+01 -0.25368495238E+02 -0.81199811042E+02  0.85314620904E+02  0.00000000000E+00 0. -1.
          1    1    1    2  501    0 -0.12621477100E+03 -0.40800498336E+02  0.97979790101E+02  0.16490872734E+03  0.00000000000E+00 0. -1.
<scales pt_clust_5="13000.00000" pt_clust_6="13000.00000" pt_clust_7="13000.00000" pt_clust_8="13000.00000" pt_clust_9="26.17585" pt_clust_10="13000.00000"></scales>
<clustering>
<clus scale="   26.176">  2  9  1 -1</clus>
<clus scale="   80.392">  5  6 -1 -1</clus>
<clus scale="   87.242">  1  5  2 -1</clus>
<clus scale="   89.816">  7  8 -1 -1</clus>
<clus scale="  148.076">  7 10 -1 -1</clus>
<clus scale="   26.176">  2  5  1 -1</clus>
</clustering>
</event>
<event>
10    4  0.2759992E-005  0.2509986E+03  0.7546771E-02  0.1145656E+00
          4   -1    0    0  502    0 -0.00000000000E+00  0.00000000000E+00  0.74756318274E+03  0.74756318274E+03  0.00000000000E+00 0. -1.
         21   -1    0    0  503  502  0.00000000000E+00 -0.00000000000E+00 -0.64504944043E+02  0.64504944043E+02  0.00000000000E+00 0. -1.
         24    2    1    2    0    0 -0.70729208989E+02 -0.57723491062E+02  0.93846471641E+02  0.15288739054E+03  0.78947903852E+02 0.  0.
         23    2    1    2    0    0  0.77684297398E+02 -0.74372246452E+02  0.34581098912E+03  0.37272333475E+03  0.88155334325E+02 0.  0.
        -13    1    3    3    0    0 -0.23889995775E+02 -0.18703822995E+02  0.86277147843E+02  0.91456607922E+02  0.00000000000E+00 0.  1.
         14    1    3    3    0    0 -0.46839213214E+02 -0.39019668067E+02  0.75693237988E+01  0.61430782620E+02  0.00000000000E+00 0. -1.
        -13    1    4    4    0    0 -0.17060299285E+00 -0.59508290102E+02  0.16029353406E+03  0.17098328210E+03  0.00000000000E+00 0.  1.
         13    1    4    4    0    0  0.77854900391E+02 -0.14863956350E+02  0.18551745506E+03  0.20174005265E+03  0.00000000000E+00 0. -1.
         21    1    1    2  503  501  0.10406123445E+02  0.25078161047E+02  0.96981129667E+01  0.28831492534E+02  0.00000000000E+00 0.  1.
          3    1    1    2  501    0 -0.17361211855E+02  0.10701757647E+03  0.23370266498E+03  0.25762590896E+03  0.00000000000E+00 0. -1.
<scales pt_clust_5="13000.00000" pt_clust_6="13000.00000" pt_clust_7="13000.00000" pt_clust_8="13000.00000" pt_clust_9="27.15146" pt_clust_10="13000.00000"></scales>
<clustering>
<clus scale="   27.151">  2  9  1 -1</clus>
<clus scale="   78.948">  5  6 -1 -1</clus>
<clus scale="   88.155">  7  8 -1 -1</clus>
<clus scale="  111.506">  1  5  2 -1</clus>
<clus scale="  102.858">  7 10 -1 -1</clus>
<clus scale="   27.151">  2  5  1 -1</clus>
</clustering>
</event>
<event>
10    4  0.2759992E-005  0.2454243E+03  0.7546771E-02  0.1157812E+00
         21   -1    0    0  503  502  0.00000000000E+00  0.00000000000E+00  0.21829520874E+03  0.21829520874E+03  0.00000000000E+00 0. -1.
         -3   -1    0    0    0  501 -0.00000000000E+00 -0.00000000000E+00 -0.18677825196E+03  0.18677825196E+03  0.00000000000E+00 0.  1.
         24    2    1    2    0    0 -0.96533132048E+01  0.32717151419E+02 -0.64527354714E+01  0.85754832721E+02  0.78413360387E+02 0.  0.
         23    2    1    2    0    0 -0.22690706774E+02  0.49764415135E+02 -0.52651987378E+02  0.11743673930E+03  0.89597939567E+02 0.  0.
        -11    1    3    3    0    0  0.20960503890E+02 -0.67612382849E+01 -0.24215963060E+02  0.32733315343E+02  0.00000000000E+00 0.  1.
         12    1    3    3    0    0 -0.30613817095E+02  0.39478389704E+02  0.17763227588E+02  0.53021517378E+02  0.00000000000E+00 0. -1.
        -11    1    4    4    0    0  0.33559592349E+02  0.70908286824E+01 -0.19182882240E+02  0.39300242507E+02  0.00000000000E+00 0.  1.
         11    1    4    4    0    0 -0.56250299123E+02  0.42673586453E+02 -0.33469105138E+02  0.78136496792E+02  0.00000000000E+00 0. -1.
         21    1    1    2  503  501 -0.40276501144E+02  0.23544492498E+02  0.46858301187E+02  0.66122916312E+02  0.00000000000E+00 0. -1.
         -4    1    1    2    0  502  0.72620521123E+02 -0.10602605905E+03  0.43763378447E+02  0.13575897237E+03  0.00000000000E+00 0.  1.
<scales pt_clust_5="13000.00000" pt_clust_6="13000.00000" pt_clust_7="13000.00000" pt_clust_8="13000.00000" pt_clust_9="46.65340" pt_clust_10="13000.00000"></scales>
<clustering>
<clus scale="   46.653">  1  9  2 -1</clus>
<clus scale="   78.413">  5  6 -1 -1</clus>
<clus scale="   89.504">  2  5  1 -1</clus>
<clus scale="   89.598">  7  8 -1 -1</clus>
<clus scale="   93.664">  7 10 -1 -1</clus>
<clus scale="   46.653">  1  5  2 -1</clus>
</clustering>
</event>
<event>
10    4  0.2759992E-005  0.7633083E+03  0.7546771E-02  0.9711093E-01
         21   -1    0    0  501  502  0.00000000000E+00  0.00000000000E+00  0.82114621881E+03  0.82114621881E+03  0.00000000000E+00 0. -1.
          2   -1    0    0  503    0 -0.00000000000E+00 -0.00000000000E+00 -0.12498330227E+04  0.12498330227E+04  0.00000000000E+00 0. -1.
         24    2    1    2    0    0  0.50789751322E+03 -0.20828238870E+03  0.36560203578E+03  0.66460239118E+03  0.81792740597E+02 0.  0.
         23    2    1    2    0    0  0.40094828096E+02 -0.90084964296E+02 -0.11977453615E+03  0.18056614078E+03  0.92386663830E+02 0.  0.
        -13    1    3    3    0    0  0.84706858115E+02 -0.67873955168E+02  0.83924633359E+02  0.13720593896E+03  0.00000000000E+00 0.  1.
         14    1    3    3    0    0  0.42319065511E+03 -0.14040843353E+03  0.28167740242E+03  0.52739645222E+03  0.00000000000E+00 0. -1.
        -11    1    4    4    0    0 -0.29178053581E+02 -0.18417229227E+02 -0.21872830869E+02  0.40853076670E+02  0.00000000000E+00 0.  1.
         11    1    4    4    0    0  0.69272881677E+02 -0.71667735069E+02 -0.97901705280E+02  0.13971306411E+03  0.00000000000E+00 0. -1.
         21    1    1    2  503  502 -0.15136339409E+02 -0.22379185783E+02  0.17270966588E+03  0.17481008385E+03  0.00000000000E+00 0. -1.
          1    1    1    2  501    0 -0.53285600191E+03  0.32074653878E+03 -0.84722396943E+03  0.10510006257E+04  0.00000000000E+00 0. -1.
<scales pt_clust_5="13000.00000" pt_clust_6="13000.00000" pt_clust_7="13000.00000" pt_clust_8="13000.00000" pt_clust_9="27.01734" pt_clust_10="13000.00000"></scales>
<clustering>
<clus scale="   27.017">  1  9  2 -1</clus>
<clus scale="   81.793">  5  6 -1 -1</clus>
<clus scale="   92.387">  7  8 -1 -1</clus>
<clus scale="  551.070">  2  5  1 -1</clus>
<clus scale="  162.801">  7 10 -1 -1</clus>
<clus scale="   27.017">  1  5  2 -1</clus>
</clustering>
</event>
<event>
10    4  0.2759992E-005  0.1647855E+03  0.7546771E-02  0.1192901E+00
         21   -1    0    0  503  502  0.00000000000E+00  0.00000000000E+00  0.52346596020E+02  0.52346596020E+02  0.00000000000E+00 0. -1.
          2   -1    0    0  502    0 -0.00000000000E+00 -0.00000000000E+00 -0.65003383459E+03  0.65003383459E+03  0.00000000000E+00 0. -1.
         24    2    1    2    0    0 -0.53012009983E+02  0.10472342148E+03 -0.27913576604E+03  0.31339873202E+03  0.80775745983E+02 0.  0.
         23    2    1    2    0    0  0.17527008940E+02 -0.73411998057E+02 -0.20703276384E+03  0.23785677584E+03  0.89536378131E+02 0.  0.
        -11    1    3    3    0    0  0.19263139780E+01  0.21514750013E+02 -0.56848438617E+01  0.22336351613E+02  0.00000000000E+00 0.  1.
         12    1    3    3    0    0 -0.54938323961E+02  0.83208671466E+02 -0.27345092218E+03  0.29106238041E+03  0.00000000000E+00 0. -1.
        -11    1    4    4    0    0  0.34790318808E+02 -0.24410908508E+02 -0.26703955331E+02  0.50193226309E+02  0.00000000000E+00 0. -1.
         11    1    4    4    0    0 -0.17263309868E+02 -0.49001089549E+02 -0.18032880851E+03  0.18766354953E+03  0.00000000000E+00 0.  1.
         21    1    1    2  503  501 -0.18587145292E+00 -0.26045217506E+02  0.72233083808E+01  0.27028949056E+02  0.00000000000E+00 0. -1.
          1    1    1    2  501    0  0.35670872496E+02 -0.52662059158E+01 -0.11874201707E+03  0.12409597370E+03  0.00000000000E+00 0. -1.
<scales pt_clust_5="13000.00000" pt_clust_6="13000.00000" pt_clust_7="13000.00000" pt_clust_8="13000.00000" pt_clust_9="26.04588" pt_clust_10="13000.00000"></scales>
<clustering>
<clus scale="   26.046">  1  9  2 -1</clus>
<clus scale="   80.776">  5  6 -1 -1</clus>
<clus scale="   89.536">  7  8 -1 -1</clus>
<clus scale="   36.386">  7 10 -1 -1</clus>
<clus scale="  133.487">  2  5  1 -1</clus>
<clus scale="   26.046">  1  5  2 -1</clus>
</clustering>
</event>
<event>
10    4  0.2759992E-005  0.2091665E+03  0.7546771E-02  0.1149643E+00
          2   -1    0    0  502    0 -0.00000000000E+00  0.00000000000E+00  0.87794461980E+03  0.87794461980E+03  0.00000000000E+00 0. -1.
         21   -1    0    0  503  502  0.00000000000E+00 -0.00000000000E+00 -0.69950227380E+02  0.69950227380E+02  0.00000000000E+00 0.  1.
         24    2    1    2    0    0 -0.16598024153E+03  0.12168758874E+02  0.25654514793E+03  0.31630735653E+03  0.80854261476E+02 0.  0.
         23    2    1    2    0    0  0.56416477777E+02  0.16009016641E+02  0.35626521094E+03  0.37207921576E+03  0.89882894358E+02 0.  0.
        -11    1    3    3    0    0 -0.16945893997E+03  0.79793068903E+01  0.25956011356E+03  0.31008297958E+03  0.00000000000E+00 0.  1.
         12    1    3    3    0    0  0.34786984395E+01  0.41894519841E+01 -0.30149656255E+01  0.62243769554E+01  0.00000000000E+00 0. -1.
        -11    1    4    4    0    0  0.68459209680E+01 -0.32264583821E+02  0.67330378342E+02  0.74974994836E+02  0.00000000000E+00 0.  1.
         11    1    4    4    0    0  0.49570556809E+02  0.48273600462E+02  0.28893483260E+03  0.29710422093E+03  0.00000000000E+00 0. -1.
         21    1    1    2  503  501  0.16856121267E+02 -0.13211202648E+02 -0.17083713541E+02  0.27395583001E+02  0.00000000000E+00 0.  1.
          1    1    1    2  501    0  0.92707642485E+02 -0.14966572868E+02  0.21226774709E+03  0.23211269188E+03  0.00000000000E+00 0. -1.
<scales pt_clust_5="13000.00000" pt_clust_6="13000.00000" pt_clust_7="13000.00000" pt_clust_8="13000.00000" pt_clust_9="21.41646" pt_clust_10="13000.00000"></scales>
<clustering>
<clus scale="   21.416">  2  9  1 -1</clus>
<clus scale="   80.854">  5  6 -1 -1</clus>
<clus scale="   89.883">  7  8 -1 -1</clus>
<clus scale="   97.830">  7 10 -1 -1</clus>
<clus scale="  175.240">  1  5  2 -1</clus>
<clus scale="   21.416">  2  5  1 -1</clus>
</clustering>
</event>
<event>
10    4  0.2759992E-005  0.1836134E+03  0.7546771E-02  0.1179152E+00
         21   -1    0    0  501  502  0.00000000000E+00  0.00000000000E+00  0.23505976515E+03  0.23505976515E+03  0.00000000000E+00 0.  1.
          2   -1    0    0  503    0 -0.00000000000E+00 -0.00000000000E+00 -0.30971332448E+03  0.30971332448E+03  0.00000000000E+00 0. -1.
         24    2    1    2    0    0  0.13478415922E+02  0.11831402024E+03  0.30440094335E+02  0.14580779022E+03  0.78443847838E+02 0.  0.
         23    2    1    2    0    0 -0.64642636793E+01 -0.65599484596E+02 -0.82101923028E+02  0.13921841458E+03  0.91082172296E+02 0.  0.
        -13    1    3    3    0    0  0.14501688464E+02  0.91287359369E+02  0.56431877048E+02  0.10829698840E+03  0.00000000000E+00 0.  1.
         14    1    3    3    0    0 -0.10232725413E+01  0.27026660870E+02 -0.25991782713E+02  0.37510801818E+02  0.00000000000E+00 0. -1.
        -13    1    4    4    0    0  0.41636038461E+02 -0.20579825955E+02 -0.30982434757E+02  0.55830101187E+02  0.00000000000E+00 0. -1.
         13    1    4    4    0    0 -0.48100302140E+02 -0.45019658641E+02 -0.51119488272E+02  0.83388313397E+02  0.00000000000E+00 0.  1.
         21    1    1    2  503  502  0.42150925909E+02 -0.31859317684E+02  0.10693287795E+03  0.11927429339E+03  0.00000000000E+00 0.  1.
          1    1    1    2  501    0 -0.49165078152E+02 -0.20855217958E+02 -0.12992460859E+03  0.14047259143E+03  0.00000000000E+00 0. -1.
<scales pt_clust_5="13000.00000" pt_clust_6="13000.00000" pt_clust_7="13000.00000" pt_clust_8="13000.00000" pt_clust_9="52.83670" pt_clust_10="13000.00000"></scales>
<clustering>
<clus scale="   52.837">  1  9  2 -1</clus>
<clus scale="   78.444">  5  6 -1 -1</clus>
<clus scale="   91.082">  7  8 -1 -1</clus>
<clus scale="   52.303">  7 10 -1 -1</clus>
<clus scale="  131.014">  2  5  1 -1</clus>
<clus scale="   52.837">  1  5  2 -1</clus>
</clustering>
</event>
<event>
10    4  0.2759992E-005  0.3009290E+03  0.7546771E-02  0.1118516E+00
          2   -1    0    0  502    0 -0.00000000000E+00  0.00000000000E+00  0.10163601195E+04  0.10163601195E+04  0.00000000000E+00 0. -1.
         21   -1    0    0  503  502  0.00000000000E+00 -0.00000000000E+00 -0.53264639093E+02  0.53264639093E+02  0.00000000000E+00 0. -1.
         24    2    1    2    0    0  0.73363578139E+02  0.72062716765E+02  0.21782264406E+03  0.25400363934E+03  0.80597114018E+02 0.  0.
         23    2    1    2    0    0  0.97888301198E+02  0.30635302296E+01  0.29673533555E+03  0.32600975576E+03  0.92946203578E+02 0.  0.
        -13    1    3    3    0    0  0.32167612508E+02 -0.12418794631E+01  0.12356658222E+03  0.12769102474E+03  0.00000000000E+00 0.  1.
         14    1    3    3    0    0  0.41195965631E+02  0.73304596228E+02  0.94256061845E+02  0.12631261460E+03  0.00000000000E+00 0. -1.
        -13    1    4    4    0    0  0.42452668468E+02 -0.43925667127E+02  0.11360844716E+03  0.12899059097E+03  0.00000000000E+00 0.  1.
         13    1    4    4    0    0  0.55435632729E+02  0.46989197356E+02  0.18312688839E+03  0.19701916479E+03  0.00000000000E+00 0. -1.
         21    1    1    2  503  501 -0.29032820751E+02  0.38272965671E+01  0.37656602653E+02  0.47702962205E+02  0.00000000000E+00 0. -1.
          1    1    1    2  501    0 -0.14221905859E+03 -0.78953543562E+02  0.41088089814E+03  0.44190840128E+03  0.00000000000E+00 0. -1.
<scales pt_clust_5="13000.00000" pt_clust_6="13000.00000" pt_clust_7="13000.00000" pt_clust_8="13000.00000" pt_clust_9="29.28400" pt_clust_10="13000.00000"></scales>
<clustering>
<clus scale="   29.284">  2  9  1 -1</clus>
<clus scale="   80.597">  5  6 -1 -1</clus>
<clus scale="   92.946">  7  8 -1 -1</clus>
<clus scale="  125.703">  1  5  2 -1</clus>
<clus scale="  118.047">  7 10 -1 -1</clus>
<clus scale="   29.284">  2  5  1 -1</clus>
</clustering>
</event>
<event>
10    4  0.2759992E-005  0.2516207E+03  0.7546771E-02  0.1145577E+00
          2   -1    0    0  502    0 -0.00000000000E+00  0.00000000000E+00  0.38001049551E+03  0.38001049551E+03  0.00000000000E+00 0. -1.
         21   -1    0    0  503  502  0.00000000000E+00 -0.00000000000E+00 -0.26638172151E+03  0.26638172151E+03  0.00000000000E+00 0.  1.
         24    2    1    2    0    0  0.68915651663E+02  0.48763827766E+02  0.19361422847E+03  0.22644671739E+03  0.81635582989E+02 0.  0.
         23    2    1    2    0    0  0.39491759625E+02 -0.24152636693E+02 -0.51001256634E+02  0.11390927792E+03  0.90726217157E+02 0.  0.
        -13    1    3    3    0    0  0.71167287325E+02  0.34916995379E+01  0.13133726507E+03  0.14942038665E+03  0.00000000000E+00 0.  1.
         14    1    3    3    0    0 -0.22516356615E+01  0.45272128228E+02  0.62276963399E+02  0.77026330742E+02  0.00000000000E+00 0. -1.
        -13    1    4    4    0    0  0.65246426928E+02 -0.29417957565E+02 -0.22246322389E+02  0.74949391685E+02  0.00000000000E+00 0.  1.
         13    1    4    4    0    0 -0.25754667303E+02  0.52653208715E+01 -0.28754934244E+02  0.38959886231E+02  0.00000000000E+00 0. -1.
         21    1    1    2  503  501 -0.51362475837E+02 -0.31341763573E+02 -0.15569316101E+03  0.16691545900E+03  0.00000000000E+00 0.  1.
          1    1    1    2  501    0 -0.57044935451E+02  0.67305725005E+01  0.12670896318E+03  0.13912076271E+03  0.00000000000E+00 0. -1.
<scales pt_clust_5="13000.00000" pt_clust_6="13000.00000" pt_clust_7="13000.00000" pt_clust_8="13000.00000" pt_clust_9="60.16984" pt_clust_10="13000.00000"></scales>
<clustering>
<clus scale="   60.170">  2  9  1 -1</clus>
<clus scale="   81.636">  5  6 -1 -1</clus>
<clus scale="   90.726">  7  8 -1 -1</clus>
<clus scale="   60.276">  7 10 -1 -1</clus>
<clus scale="  110.889">  1  5  2 -1</clus>
<clus scale="   60.170">  2  5  1 -1</clus>
</clustering>
</event>
<event>
10    4  0.2759992E-005  0.2312498E+03  0.7546771E-02  0.1166925E+00
          2   -1    0    0  502    0 -0.00000000000E+00  0.00000000000E+00  0.32873775347E+03  0.32873775347E+03  0.00000000000E+00 0. -1.
         21   -1    0    0  503  502  0.00000000000E+00 -0.00000000000E+00 -0.17826239591E+03  0.17826239591E+03  0.00000000000E+00 0.  1.
         24    2    1    2    0    0  0.51298195686E+02  0.19469449524E+02  0.54730379849E+01  0.10065327741E+03  0.84205485355E+02 0.  0.
         23    2    1    2    0    0  0.21421721662E+02 -0.69456548269E+02  0.49431597826E+02  0.12699849707E+03  0.91662604911E+02 0.  0.
        -11    1    3    3    0    0  0.20281971968E+02 -0.85350728217E+01 -0.35733703204E+02  0.41965502495E+02  0.00000000000E+00 0.  1.
         12    1    3    3    0    0  0.31016223718E+02  0.28004522345E+02  0.41206741189E+02  0.58687774918E+02  0.00000000000E+00 0. -1.
        -11    1    4    4    0    0  0.44153996422E+02 -0.79493472278E+02  0.31045001142E+02  0.96086313441E+02  0.00000000000E+00 0.  1.
         11    1    4    4    0    0 -0.22732274759E+02  0.10036924010E+02  0.18386596685E+02  0.30912183633E+02  0.00000000000E+00 0. -1.
         21    1    1    2  503  501 -0.66081740923E+02 -0.47485966204E+02 -0.56168791501E+02  0.98876926573E+02  0.00000000000E+00 0.  1.
          1    1    1    2  501    0 -0.66381764251E+01  0.97473064949E+02  0.15173951325E+03  0.18047144832E+03  0.00000000000E+00 0. -1.
<scales pt_clust_5="13000.00000" pt_clust_6="13000.00000" pt_clust_7="13000.00000" pt_clust_8="13000.00000" pt_clust_9="81.37391" pt_clust_10="13000.00000"></scales>
<clustering>
<clus scale="   81.374">  2  9  1 -1</clus>
<clus scale="   84.205">  5  6 -1 -1</clus>
<clus scale="   86.617">  1  5  2 -1</clus>
<clus scale="   91.663">  7  8 -1 -1</clus>
<clus scale="   89.161">  7 10 -1 -1</clus>
<clus scale="   81.374">  2  5  1 -1</clus>
</clustering>
</event>
<event>
10    4  0.2759992E-005  0.5526928E+03  0.7546771E-02  0.1037072E+00
          2   -1    0    0  502    0 -0.00000000000E+00  0.00000000000E+00  0.96688575382E+03  0.96688575382E+03  0.00000000000E+00 0. -1.
         21   -1    0    0  503  502  0.00000000000E+00 -0.00000000000E+00 -0.17837749849E+03  0.17837749849E+03  0.00000000000E+00 0.  1.
         24    2    1    2    0    0  0.15457309940E+03  0.11681045833E+01  0.11449922427E+03  0.20824870741E+03  0.79769945775E+02 0.  0.
         23    2    1    2    0    0 -0.18942899921E+03  0.16997515635E+03  0.13321342296E+03  0.30149457861E+03  0.91532864890E+02 0.  0.
        -11    1    3    3    0    0  0.49162273660E+02 -0.35073920184E+02  0.25264551145E+02  0.65463016835E+02  0.00000000000E+00 0.  1.
         12    1    3    3    0    0  0.10541082574E+03  0.36242024768E+02  0.89234673129E+02  0.14278569057E+03  0.00000000000E+00 0. -1.
        -11    1    4    4    0    0 -0.19423640273E+03  0.14533176149E+03  0.13241391637E+03  0.27637392477E+03  0.00000000000E+00 0.  1.
         11    1    4    4    0    0  0.48074035166E+01  0.24643394853E+02  0.79950659068E+00  0.25120653838E+02  0.00000000000E+00 0. -1.
         21    1    1    2  503  501  0.34773221088E+02  0.76579192298E+02  0.10853708457E+03  0.13730931623E+03  0.00000000000E+00 0. -1.
          1    1    1    2  501    0  0.82678721606E-01 -0.24772245323E+03  0.43225852353E+03  0.49821065006E+03  0.00000000000E+00 0. -1.
<scales pt_clust_5="13000.00000" pt_clust_6="13000.00000" pt_clust_7="13000.00000" pt_clust_8="13000.00000" pt_clust_9="84.10444" pt_clust_10="13000.00000"></scales>
<clustering>
<clus scale="   79.770">  5  6 -1 -1</clus>
<clus scale="   84.104">  2  9  1 -1</clus>
<clus scale="   91.533">  7  8 -1 -1</clus>
<clus scale="  184.280">  1  5  2 -1</clus>
<clus scale="  242.387">  7 10 -1 -1</clus>
<clus scale="   84.104">  2  5  1 -1</clus>
</clustering>
</event>
<event>
10    4  0.2759992E-005  0.4957800E+03  0.7546771E-02  0.1047895E+00
         21   -1    0    0  501  502  0.00000000000E+00  0.00000000000E+00  0.30898627197E+03  0.30898627197E+03  0.00000000000E+00 0.  1.
          2   -1    0    0  503    0 -0.00000000000E+00 -0.00000000000E+00 -0.55195454081E+03  0.55195454081E+03  0.00000000000E+00 0. -1.
         24    2    1    2    0    0 -0.10628587342E+03 -0.15926509338E+03  0.24872340279E+01  0.20780355632E+03  0.80709818677E+02 0.  0.
         23    2    1    2    0    0  0.15141048092E+03 -0.12718772857E+03 -0.34733236658E+02  0.22056751377E+03  0.91333336567E+02 0.  0.
        -13    1    3    3    0    0 -0.87864546944E+02 -0.10455545401E+03 -0.32386271358E+02  0.14035986658E+03  0.00000000000E+00 0.  1.
         14    1    3    3    0    0 -0.18421326473E+02 -0.54709639368E+02  0.34873505385E+02  0.67443689747E+02  0.00000000000E+00 0. -1.
        -13    1    4    4    0    0  0.17725396747E+02  0.14150274874E+02  0.12775825303E+01  0.22716782034E+02  0.00000000000E+00 0.  1.
         13    1    4    4    0    0  0.13368508417E+03 -0.14133800345E+03 -0.36010819188E+02  0.19785073173E+03  0.00000000000E+00 0. -1.
         21    1    1    2  503  502  0.59611695855E+01  0.61391890777E+02  0.53569763740E+02  0.81695895755E+02  0.00000000000E+00 0.  1.
          1    1    1    2  501    0 -0.51085777090E+02  0.22506093117E+03 -0.26429202995E+03  0.35087384693E+03  0.00000000000E+00 0. -1.
<scales pt_clust_5="13000.00000" pt_clust_6="13000.00000" pt_clust_7="13000.00000" pt_clust_8="13000.00000" pt_clust_9="61.68063" pt_clust_10="13000.00000"></scales>
<clustering>
<clus scale="   61.681">  1  9  2 -1</clus>
<clus scale="   80.710">  5  6 -1 -1</clus>
<clus scale="   91.333">  7  8 -1 -1</clus>
<clus scale="  186.620">  2  5  1 -1</clus>
<clus scale="  187.517">  7 10 -1 -1</clus>
<clus scale="   61.681">  1  5  2 -1</clus>
</clustering>
</event>
<event>
10    4  0.2759992E-005  0.4475326E+03  0.7546771E-02  0.1070023E+00
          2   -1    0    0  502    0 -0.00000000000E+00  0.00000000000E+00  0.31515985026E+04  0.31515985026E+04  0.00000000000E+00 0. -1.
         21   -1    0    0  503  502  0.00000000000E+00 -0.00000000000E+00 -0.32374292112E+02  0.32374292112E+02  0.00000000000E+00 0. -1.
         24    2    1    2    0    0 -0.73643871547E+02  0.90712579119E+02  0.95375898204E+03  0.96445312967E+03  0.82833879961E+02 0.  0.
         23    2    1    2    0    0  0.21325035400E+03  0.56273535351E+02  0.99074509721E+03  0.10190685570E+04  0.91007977231E+02 0.  0.
        -11    1    3    3    0    0 -0.20472225521E+01  0.47364300902E+02  0.17846911278E+03  0.18465858317E+03  0.00000000000E+00 0.  1.
         12    1    3    3    0    0 -0.71596648995E+02  0.43348278217E+02  0.77528986926E+03  0.77979454650E+03  0.00000000000E+00 0. -1.
        -11    1    4    4    0    0  0.13171163192E+03  0.71750760896E+02  0.73659995825E+03  0.75171512168E+03  0.00000000000E+00 0. -1.
         11    1    4    4    0    0  0.81538722080E+02 -0.15477225545E+02  0.25414513897E+03  0.26735343531E+03  0.00000000000E+00 0.  1.
         21    1    1    2  503  501  0.27881294464E+02 -0.37858302053E+02  0.20149126957E+03  0.20690420326E+03  0.00000000000E+00 0. -1.
          1    1    1    2  501    0 -0.16748777691E+03 -0.10912781242E+03  0.97322886163E+03  0.99354690477E+03  0.00000000000E+00 0. -1.
<scales pt_clust_5="13000.00000" pt_clust_6="13000.00000" pt_clust_7="13000.00000" pt_clust_8="13000.00000" pt_clust_9="47.01721" pt_clust_10="13000.00000"></scales>
<clustering>
<clus scale="   47.017">  2  9  1 -1</clus>
<clus scale="   82.834">  5  6 -1 -1</clus>
<clus scale="   91.008">  7  8 -1 -1</clus>
<clus scale="  136.409">  1  5  2 -1</clus>
<clus scale="  207.563">  7 10 -1 -1</clus>
<clus scale="   47.017">  2  5  1 -1</clus>
</clustering>
</event>
<event>
10    4  0.2759992E-005  0.3924345E+03  0.7546771E-02  0.1063745E+00
         21   -1    0    0  503  502  0.00000000000E+00  0.00000000000E+00  0.31376824722E+03  0.31376824722E+03  0.00000000000E+00 0.  1.
          2   -1    0    0  502    0 -0.00000000000E+00 -0.00000000000E+00 -0.74929718914E+03  0.74929718914E+03  0.00000000000E+00 0. -1.
         24    2    1    2    0    0 -0.16692498332E+03 -0.91112359026E+02 -0.14419334228E+03  0.25050747092E+03  0.76137119762E+02 0.  0.
         23    2    1    2    0    0 -0.36921886092E+02 -0.18513912637E+02 -0.13658276265E+03  0.16690390186E+03  0.86579851995E+02 0.  0.
        -11    1    3    3    0    0 -0.99462373845E+02 -0.83337584642E+02 -0.61772963943E+02  0.14371435523E+03  0.00000000000E+00 0.  1.
         12    1    3    3    0    0 -0.67462609476E+02 -0.77747743834E+01 -0.82420378332E+02  0.10679311569E+03  0.00000000000E+00 0. -1.
        -11    1    4    4    0    0 -0.64035626607E+02 -0.10788925575E+02 -0.75210647108E+02  0.99366009422E+02  0.00000000000E+00 0.  1.
         11    1    4    4    0    0  0.27113740515E+02 -0.77249870611E+01 -0.61372115538E+02  0.67537892442E+02  0.00000000000E+00 0. -1.
         21    1    1    2  503  501 -0.10182145773E+03 -0.21592520930E+02  0.15791465940E+03  0.18913192715E+03  0.00000000000E+00 0.  1.
          1    1    1    2  501    0  0.30566832715E+03  0.13121879259E+03 -0.31266749639E+03  0.45652213643E+03  0.00000000000E+00 0. -1.
<scales pt_clust_5="13000.00000" pt_clust_6="13000.00000" pt_clust_7="13000.00000" pt_clust_8="13000.00000" pt_clust_9="104.08576" pt_clust_10="13000.00000"></scales>
<clustering>
<clus scale="   76.137">  5  6 -1 -1</clus>
<clus scale="   86.580">  7  8 -1 -1</clus>
<clus scale="  104.086">  1  9  2 -1</clus>
<clus scale="  240.613">  2  5  1 -1</clus>
<clus scale="  141.435">  7 10 -1 -1</clus>
<clus scale="  104.086">  1  5  2 -1</clus>
</clustering>
</event>
<event>
10    4  0.2759992E-005  0.2251318E+03  0.7546771E-02  0.1157266E+00
          2   -1    0    0  502    0 -0.00000000000E+00  0.00000000000E+00  0.35327999043E+03  0.35327999043E+03  0.00000000000E+00 0. -1.
         21   -1    0    0  503  502  0.00000000000E+00 -0.00000000000E+00 -0.17749992253E+03  0.17749992253E+03  0.00000000000E+00 0.  1.
         24    2    1    2    0    0 -0.61047034268E+02  0.87983250069E+02  0.88517768067E+02  0.16058876509E+03  0.80532996494E+02 0.  0.
         23    2    1    2    0    0  0.16145552955E+01  0.19315667343E+02  0.47033914504E+01  0.95057764644E+02  0.92941674905E+02 0.  0.
        -11    1    3    3    0    0 -0.19873213770E+02 -0.12666582968E+02  0.66979518168E+01  0.24499989963E+02  0.00000000000E+00 0.  1.
         12    1    3    3    0    0 -0.41173820498E+02  0.10064983304E+03  0.81819816251E+02  0.13608877513E+03  0.00000000000E+00 0. -1.
        -13    1    4    4    0    0  0.23528836714E+02  0.27535534759E+02 -0.34097779638E+02  0.49744048969E+02  0.00000000000E+00 0.  1.
         13    1    4    4    0    0 -0.21914281419E+02 -0.82198674154E+01  0.38801171088E+02  0.45313715675E+02  0.00000000000E+00 0. -1.
         21    1    1    2  503  501  0.73629700218E+02 -0.22794602885E+02 -0.67419160881E+02  0.10240248986E+03  0.00000000000E+00 0. -1.
          1    1    1    2  501    0 -0.14197221245E+02 -0.84504314527E+02  0.14997806926E+03  0.17273089337E+03  0.00000000000E+00 0. -1.
<scales pt_clust_5="13000.00000" pt_clust_6="13000.00000" pt_clust_7="13000.00000" pt_clust_8="13000.00000" pt_clust_9="77.07741" pt_clust_10="13000.00000"></scales>
<clustering>
<clus scale="   77.077">  2  9  1 -1</clus>
<clus scale="   80.533">  5  6 -1 -1</clus>
<clus scale="   92.942">  7  8 -1 -1</clus>
<clus scale="   87.457">  7 10 -1 -1</clus>
<clus scale="  117.445">  1  5  2 -1</clus>
<clus scale="   77.077">  2  5  1 -1</clus>
</clustering>
</event>
<event>
10    4  0.2759992E-005  0.4762604E+03  0.7546771E-02  0.1079788E+00
          2   -1    0    0  503    0 -0.00000000000E+00  0.00000000000E+00  0.70229288773E+03  0.70229288773E+03  0.00000000000E+00 0. -1.
         21   -1    0    0  501  502  0.00000000000E+00 -0.00000000000E+00 -0.17382881004E+03  0.17382881004E+03  0.00000000000E+00 0. -1.
         24    2    1    2    0    0 -0.22393972214E+02 -0.55458923842E+01  0.71519233091E+02  0.11039405933E+03  0.80867797797E+02 0.  0.
         23    2    1    2    0    0  0.20773420816E+03  0.12370981101E+03  0.14626177522E+03  0.29700353412E+03  0.91438360710E+02 0.  0.
        -13    1    3    3    0    0  0.85968380490E+01 -0.37691326010E+02  0.40733040128E+02  0.56158011351E+02  0.00000000000E+00 0.  1.
         14    1    3    3    0    0 -0.30990810263E+02  0.32145433625E+02  0.30786192963E+02  0.54236047984E+02  0.00000000000E+00 0. -1.
        -13    1    4    4    0    0  0.17129239509E+03  0.10472278976E+03  0.15661298048E+03  0.25462830354E+03  0.00000000000E+00 0.  1.
         13    1    4    4    0    0  0.36441813074E+02  0.18987021250E+02 -0.10351205263E+02  0.42375230577E+02  0.00000000000E+00 0. -1.
         21    1    1    2  503  502 -0.51109904855E+02 -0.92961399241E+00 -0.46783245928E+02  0.69294723147E+02  0.00000000000E+00 0. -1.
          1    1    1    2  501    0 -0.13423033109E+03 -0.11723430463E+03  0.35746631530E+03  0.39942938117E+03  0.00000000000E+00 0. -1.
<scales pt_clust_5="13000.00000" pt_clust_6="13000.00000" pt_clust_7="13000.00000" pt_clust_8="13000.00000" pt_clust_9="51.11836" pt_clust_10="13000.00000"></scales>
<clustering>
<clus scale="   51.118">  2  9  1 -1</clus>
<clus scale="   80.868">  5  6 -1 -1</clus>
<clus scale="   86.784">  1  5  2 -1</clus>
<clus scale="   91.438">  7  8 -1 -1</clus>
<clus scale="  204.586">  7 10 -1 -1</clus>
<clus scale="   51.118">  2  5  1 -1</clus>
</clustering>
</event>
<event>
10    4  0.2759992E-005  0.1325861E+03  0.7546771E-02  0.1243075E+00
         21   -1    0    0  501  502  0.00000000000E+00  0.00000000000E+00  0.12109092745E+03  0.12109092745E+03  0.00000000000E+00 0. -1.
          2   -1    0    0  503    0 -0.00000000000E+00 -0.00000000000E+00 -0.13273677526E+04  0.13273677526E+04  0.00000000000E+00 0. -1.
         24    2    1    2    0    0 -0.42561101685E+02 -0.90440387976E+01 -0.10962968312E+04  0.10998948077E+04  0.77515184529E+02 0.  0.
         23    2    1    2    0    0  0.19285779310E+02  0.70699817506E+02 -0.17390100643E+03  0.20933346331E+03  0.90600956652E+02 0.  0.
        -13    1    3    3    0    0  0.12806124988E+02 -0.18437573002E+02 -0.12672498753E+03  0.12869795414E+03  0.00000000000E+00 0.  1.
         14    1    3    3    0    0 -0.55367226673E+02  0.93935342047E+01 -0.96957184368E+03  0.97119685354E+03  0.00000000000E+00 0. -1.
        -13    1    4    4    0    0 -0.19313739516E+02 -0.13710267599E+02 -0.37174559234E+02  0.44078791112E+02  0.00000000000E+00 0. -1.
         13    1    4    4    0    0  0.38599518826E+02  0.84410085105E+02 -0.13672644720E+03  0.16525467220E+03  0.00000000000E+00 0.  1.
         21    1    1    2  503  502  0.79687828385E+01 -0.43915178794E+02  0.92242326855E+02  0.10247288076E+03  0.00000000000E+00 0. -1.
          1    1    1    2  501    0  0.15306539536E+02 -0.17740599915E+02 -0.28321314338E+02  0.36757528259E+02  0.00000000000E+00 0. -1.
<scales pt_clust_5="13000.00000" pt_clust_6="13000.00000" pt_clust_7="13000.00000" pt_clust_8="13000.00000" pt_clust_9="44.63232" pt_clust_10="13000.00000"></scales>
<clustering>
<clus scale="   44.632">  1  9  2 -1</clus>
<clus scale="   77.515">  5  6 -1 -1</clus>
<clus scale="   89.006">  2  5  1 -1</clus>
<clus scale="   90.601">  7  8 -1 -1</clus>
<clus scale="   29.378">  7 10 -1 -1</clus>
<clus scale="   44.632">  1  5  2 -1</clus>
</clustering>
</event>
<event>
10    4  0.2759992E-005  0.2411086E+03  0.7546771E-02  0.1157511E+00
          2   -1    0    0  502    0 -0.00000000000E+00  0.00000000000E+00  0.13558201170E+04  0.13558201170E+04  0.00000000000E+00 0. -1.
         21   -1    0    0  503  502  0.00000000000E+00 -0.00000000000E+00 -0.33726265273E+02  0.33726265273E+02  0.00000000000E+00 0. -1.
         24    2    1    2    0    0  0.83983844109E+01  0.49222271123E+02  0.29907504872E+03  0.31288841606E+03  0.77200461810E+02 0.  0.
         23    2    1    2    0    0 -0.79155596201E+02  0.41776692420E+02  0.52230602252E+03  0.53761728082E+03  0.90652407815E+02 0.  0.
        -11    1    3    3    0    0  0.35340145580E+02  0.12598151340E+02  0.70769951421E+02  0.80100095699E+02  0.00000000000E+00 0.  1.
         12    1    3    3    0    0 -0.26941761169E+02  0.36624119783E+02  0.22830509730E+03  0.23278832036E+03  0.00000000000E+00 0. -1.
        -13    1    4    4    0    0 -0.47160114549E+01 -0.26178182994E+02  0.10935436535E+03  0.11254294847E+03  0.00000000000E+00 0.  1.
         13    1    4    4    0    0 -0.74439584746E+02  0.67954875413E+02  0.41295165717E+03  0.42507433236E+03  0.00000000000E+00 0. -1.
         21    1    1    2  503  501  0.18301894522E+02  0.13433264138E+02 -0.21240733622E+01  0.22801833613E+02  0.00000000000E+00 0. -1.
          1    1    1    2  501    0  0.52455317268E+02 -0.10443222768E+03  0.50283685381E+03  0.51623885173E+03  0.00000000000E+00 0. -1.
<scales pt_clust_5="13000.00000" pt_clust_6="13000.00000" pt_clust_7="13000.00000" pt_clust_8="13000.00000" pt_clust_9="22.70269" pt_clust_10="13000.00000"></scales>
<clustering>
<clus scale="   22.703">  2  9  1 -1</clus>
<clus scale="   77.200">  5  6 -1 -1</clus>
<clus scale="   90.652">  7  8 -1 -1</clus>
<clus scale="   95.063">  1  5  2 -1</clus>
<clus scale="   98.508">  7 10 -1 -1</clus>
<clus scale="   22.703">  2  5  1 -1</clus>
</clustering>
</event>
<event>
10    4  0.2759992E-005  0.2822720E+03  0.7546771E-02  0.1114817E+00
          2   -1    0    0  502    0 -0.00000000000E+00  0.00000000000E+00  0.31689237293E+03  0.31689237293E+03  0.00000000000E+00 0. -1.
         21   -1    0    0  503  502  0.00000000000E+00 -0.00000000000E+00 -0.51307712688E+03  0.51307712688E+03  0.00000000000E+00 0. -1.
         24    2    1    2    0    0  0.16107779894E+03 -0.17684922401E+02  0.18963911159E+03  0.26178735718E+03  0.79440631564E+02 0.  0.
         23    2    1    2    0    0  0.17058290672E+02  0.16469750279E+02  0.34561748465E+02  0.10033036727E+03  0.91156075966E+02 0.  0.
        -11    1    3    3    0    0  0.43080528039E+02  0.24839358513E+02  0.27591868670E+02  0.56870351187E+02  0.00000000000E+00 0.  1.
         12    1    3    3    0    0  0.11799727090E+03 -0.42524280914E+02  0.16204724292E+03  0.20491700600E+03  0.00000000000E+00 0. -1.
        -13    1    4    4    0    0  0.31682957248E+02 -0.26239339132E+02 -0.34947990637E+01  0.41285909443E+02  0.00000000000E+00 0. -1.
         13    1    4    4    0    0 -0.14624666576E+02  0.42709089411E+02  0.38056547528E+02  0.59044457831E+02  0.00000000000E+00 0.  1.
         21    1    1    2  503  501 -0.10981287106E+03 -0.49189347457E+02 -0.25368269029E+03  0.28077280122E+03  0.00000000000E+00 0. -1.
          1    1    1    2  501    0 -0.68323218555E+02  0.50404519579E+02 -0.16670292371E+03  0.18707897413E+03  0.00000000000E+00 0. -1.
<scales pt_clust_5="13000.00000" pt_clust_6="13000.00000" pt_clust_7="13000.00000" pt_clust_8="13000.00000" pt_clust_9="120.32647" pt_clust_10="13000.00000"></scales>
<clustering>
<clus scale="   79.441">  5  6 -1 -1</clus>
<clus scale="   91.156">  7  8 -1 -1</clus>
<clus scale="   84.904">  7 10 -1 -1</clus>
<clus scale="  120.326">  2  9  1 -1</clus>
<clus scale="  167.170">  1  5  2 -1</clus>
<clus scale="  120.326">  2  5  1 -1</clus>
</clustering>
</event>
<event>
10    4  0.2759992E-005  0.5647878E+03  0.7546771E-02  0.1033584E+00
         21   -1    0    0  501  502  0.00000000000E+00  0.00000000000E+00  0.41200346325E+03  0.41200346325E+03  0.00000000000E+00 0.  1.
          2   -1    0    0  503    0 -0.00000000000E+00 -0.00000000000E+00 -0.67237171383E+03  0.67237171383E+03  0.00000000000E+00 0. -1.
         24    2    1    2    0    0  0.16160659420E+03  0.16706179267E+02 -0.19904322347E+03  0.26658821236E+03  0.71100509444E+02 0.  0.
         23    2    1    2    0    0  0.14788716837E+03 -0.88077145944E+02 -0.26220549555E+02  0.19565123867E+03  0.89239519100E+02 0.  0.
        -11    1    3    3    0    0  0.50341693749E+02 -0.26838351109E+02 -0.52711416769E+02  0.77672882511E+02  0.00000000000E+00 0.  1.
         12    1    3    3    0    0  0.11126490045E+03  0.43544530377E+02 -0.14633180670E+03  0.18891532984E+03  0.00000000000E+00 0. -1.
        -13    1    4    4    0    0  0.11794185889E+03 -0.10226903384E+03 -0.37676652926E+02  0.16058881511E+03  0.00000000000E+00 0. -1.
         13    1    4    4    0    0  0.29945309477E+02  0.14191887899E+02  0.11456103371E+02  0.35062423565E+02  0.00000000000E+00 0.  1.
         21    1    1    2  503  502  0.10765348280E+03  0.12103214122E+03  0.88045748121E+02  0.18436405650E+03  0.00000000000E+00 0.  1.
          1    1    1    2  501    0 -0.41714724537E+03 -0.49661174541E+02 -0.12315022568E+03  0.43777166955E+03  0.00000000000E+00 0. -1.
<scales pt_clust_5="13000.00000" pt_clust_6="13000.00000" pt_clust_7="13000.00000" pt_clust_8="13000.00000" pt_clust_9="161.98164" pt_clust_10="13000.00000"></scales>
<clustering>
<clus scale="   71.101">  5  6 -1 -1</clus>
<clus scale="   89.240">  7  8 -1 -1</clus>
<clus scale="  161.982">  1  9  2 -1</clus>
<clus scale="  191.313">  2  5  1 -1</clus>
<clus scale="  256.938">  7 10 -1 -1</clus>
<clus scale="  161.982">  1  5  2 -1</clus>
</clustering>
</event>
<event>
10    4  0.2759992E-005  0.5376243E+03  0.7546771E-02  0.1066135E+00
          2   -1    0    0  502    0 -0.00000000000E+00  0.00000000000E+00  0.24092574289E+04  0.24092574289E+04  0.00000000000E+00 0. -1.
         21   -1    0    0  503  502  0.00000000000E+00 -0.00000000000E+00 -0.73338838455E+03  0.73338838455E+03  0.00000000000E+00 0. -1.
         24    2    1    2    0    0 -0.19232915431E+02 -0.25882862977E+02  0.18640487698E+03  0.20595430303E+03  0.81428306752E+02 0.  0.
         23    2    1    2    0    0 -0.27609544565E+03 -0.89946324435E+02  0.12631691298E+04  0.13009625218E+04  0.11219713065E+03 0.  0.
        -13    1    3    3    0    0 -0.14930882794E+02 -0.54220281788E+02  0.14564540763E+03  0.15612608681E+03  0.00000000000E+00 0.  1.
         14    1    3    3    0    0 -0.43020326365E+01  0.28337418811E+02  0.40759469355E+02  0.49828216221E+02  0.00000000000E+00 0. -1.
        -13    1    4    4    0    0 -0.17832934175E+03 -0.11126861987E+03  0.80459454107E+03  0.83159752009E+03  0.00000000000E+00 0.  1.
         13    1    4    4    0    0 -0.97766103894E+02  0.21322295437E+02  0.45857458877E+03  0.46936500169E+03  0.00000000000E+00 0. -1.
         21    1    1    2  503  501  0.94725346075E+02  0.18409967421E+02 -0.68794675966E+03  0.69468162651E+03  0.00000000000E+00 0. -1.
          1    1    1    2  501    0  0.20060301500E+03  0.97419219991E+02  0.91424179719E+03  0.94104736214E+03  0.00000000000E+00 0. -1.
<scales pt_clust_5="13000.00000" pt_clust_6="13000.00000" pt_clust_7="13000.00000" pt_clust_8="13000.00000" pt_clust_9="96.46153" pt_clust_10="13000.00000"></scales>
<clustering>
<clus scale="   81.428">  5  6 -1 -1</clus>
<clus scale="   87.581">  1  5  2 -1</clus>
<clus scale="   96.462">  2  9  1 -1</clus>
<clus scale="  112.197">  7  8 -1 -1</clus>
<clus scale="  249.655">  7 10 -1 -1</clus>
<clus scale="   96.462">  2  5  1 -1</clus>
</clustering>
</event>
<event>
10    4  0.2759992E-005  0.2645965E+03  0.7546771E-02  0.1130496E+00
         21   -1    0    0  501  502  0.00000000000E+00  0.00000000000E+00  0.47815835334E+02  0.47815835334E+02  0.00000000000E+00 0. -1.
          2   -1    0    0  503    0 -0.00000000000E+00 -0.00000000000E+00 -0.11932336090E+04  0.11932336090E+04  0.00000000000E+00 0. -1.
         24    2    1    2    0    0  0.31042107918E+02  0.10968630373E+03 -0.69337145065E+03  0.70731046962E+03  0.80804914289E+02 0.  0.
         23    2    1    2    0    0  0.52031869319E+02 -0.96109265796E+02 -0.11749476835E+03  0.18455106677E+03  0.91157935808E+02 0.  0.
        -11    1    3    3    0    0 -0.74371495259E+01  0.37801302648E+02 -0.82861347663E+02  0.91379716631E+02  0.00000000000E+00 0.  1.
         12    1    3    3    0    0  0.38479257444E+02  0.71885001082E+02 -0.61051010299E+03  0.61593075299E+03  0.00000000000E+00 0. -1.
        -13    1    4    4    0    0 -0.12098656214E+02 -0.37341925852E+02 -0.81409187959E+02  0.90378386757E+02  0.00000000000E+00 0.  1.
         13    1    4    4    0    0  0.64130525534E+02 -0.58767339943E+02 -0.36085580388E+02  0.94172680015E+02  0.00000000000E+00 0. -1.
         21    1    1    2  503  502 -0.20558152734E+02 -0.13209730299E+02 -0.32100257758E+02  0.40343043595E+02  0.00000000000E+00 0. -1.
          1    1    1    2  501    0 -0.62515824504E+02 -0.36730763573E+00 -0.30245129690E+03  0.30884486433E+03  0.00000000000E+00 0. -1.
<scales pt_clust_5="13000.00000" pt_clust_6="13000.00000" pt_clust_7="13000.00000" pt_clust_8="13000.00000" pt_clust_9="24.43634" pt_clust_10="13000.00000"></scales>
<clustering>
<clus scale="   24.436">  1  9  2 -1</clus>
<clus scale="   80.805">  5  6 -1 -1</clus>
<clus scale="   91.158">  7  8 -1 -1</clus>
<clus scale="   64.034">  7 10 -1 -1</clus>
<clus scale="  137.381">  2  5  1 -1</clus>
<clus scale="   24.436">  1  5  2 -1</clus>
</clustering>
</event>
<event>
10    4  0.2759992E-005  0.1911897E+03  0.7546771E-02  0.1190292E+00
         21   -1    0    0  503  502  0.00000000000E+00  0.00000000000E+00  0.19953894990E+03  0.19953894990E+03  0.00000000000E+00 0. -1.
          2   -1    0    0  502    0 -0.00000000000E+00 -0.00000000000E+00 -0.58976247130E+03  0.58976247130E+03  0.00000000000E+00 0. -1.
         24    2    1    2    0    0  0.42943321775E+02 -0.16467450273E+02 -0.41832602971E+03  0.42811677801E+03  0.78562094416E+02 0.  0.
         23    2    1    2    0    0 -0.53759047579E+02  0.48349203852E+02 -0.40637060156E+02  0.12408130078E+03  0.92288232384E+02 0.  0.
        -13    1    3    3    0    0  0.28589526995E+02 -0.92356978944E+01 -0.43052983470E+02  0.52499700524E+02  0.00000000000E+00 0.  1.
         14    1    3    3    0    0  0.14353794780E+02 -0.72317523787E+01 -0.37527304624E+03  0.37561707749E+03  0.00000000000E+00 0. -1.
        -13    1    4    4    0    0 -0.42588431196E+02  0.77575862160E+01  0.22040190943E+02  0.48576996947E+02  0.00000000000E+00 0. -1.
         13    1    4    4    0    0 -0.11170616383E+02  0.40591617636E+02 -0.62677251099E+02  0.75504303837E+02  0.00000000000E+00 0.  1.
         21    1    1    2  503  501 -0.11485964185E+01  0.34728783712E+02  0.13678712166E+03  0.14113158521E+03  0.00000000000E+00 0. -1.
          1    1    1    2  501    0  0.11964322222E+02 -0.66610537290E+02 -0.68047553184E+02  0.95971757193E+02  0.00000000000E+00 0. -1.
<scales pt_clust_5="13000.00000" pt_clust_6="13000.00000" pt_clust_7="13000.00000" pt_clust_8="13000.00000" pt_clust_9="34.74777" pt_clust_10="13000.00000"></scales>
<clustering>
<clus scale="   34.748">  1  9  2 -1</clus>
<clus scale="   78.562">  5  6 -1 -1</clus>
<clus scale="   90.525">  2  5  1 -1</clus>
<clus scale="   92.288">  7  8 -1 -1</clus>
<clus scale="   69.920">  7 10 -1 -1</clus>
<clus scale="   34.748">  1  5  2 -1</clus>
</clustering>
</event>
<event>
10    4  0.2759992E-005  0.2773961E+03  0.7546771E-02  0.1120690E+00
          2   -1    0    0  503    0 -0.00000000000E+00  0.00000000000E+00  0.95346926999E+03  0.95346926999E+03  0.00000000000E+00 0. -1.
         21   -1    0    0  501  502  0.00000000000E+00 -0.00000000000E+00 -0.78174317366E+02  0.78174317366E+02  0.00000000000E+00 0.  1.
         24    2    1    2    0    0  0.87512047090E+02  0.12301087822E+03  0.31642449091E+03  0.36028457870E+03  0.83008943248E+02 0.  0.
         23    2    1    2    0    0  0.19235142546E+02  0.13995623881E+02  0.72984326689E+02  0.11912035435E+03  0.91088301559E+02 0.  0.
        -13    1    3    3    0    0  0.88553176602E+02  0.75304031052E+02  0.16736162746E+03  0.20377015612E+03  0.00000000000E+00 0.  1.
         14    1    3    3    0    0 -0.10411295119E+01  0.47706847163E+02  0.14906286345E+03  0.15651442258E+03  0.00000000000E+00 0. -1.
        -11    1    4    4    0    0 -0.86913657829E+01  0.34203482551E+02  0.76720081077E+02  0.84447551168E+02  0.00000000000E+00 0. -1.
         11    1    4    4    0    0  0.27926508329E+02 -0.20207858670E+02 -0.37357543875E+01  0.34672803180E+02  0.00000000000E+00 0.  1.
         21    1    1    2  503  502 -0.57387059850E+01 -0.68353420746E+02  0.21236151855E+02  0.71805967855E+02  0.00000000000E+00 0.  1.
          1    1    1    2  501    0 -0.10100848365E+03 -0.68653081351E+02  0.46464998318E+03  0.48043268646E+03  0.00000000000E+00 0. -1.
<scales pt_clust_5="13000.00000" pt_clust_6="13000.00000" pt_clust_7="13000.00000" pt_clust_8="13000.00000" pt_clust_9="68.59390" pt_clust_10="13000.00000"></scales>
<clustering>
<clus scale="   68.594">  2  9  1 -1</clus>
<clus scale="   83.009">  5  6 -1 -1</clus>
<clus scale="   91.088">  7  8 -1 -1</clus>
<clus scale="  128.818">  7 10 -1 -1</clus>
<clus scale="  151.988">  1  5  2 -1</clus>
<clus scale="   68.594">  2  5  1 -1</clus>
</clustering>
</event>
<event>
10    4  0.2759992E-005  0.2098339E+03  0.7546771E-02  0.1153521E+00
          2   -1    0    0  502    0 -0.00000000000E+00  0.00000000000E+00  0.11526749086E+04  0.11526749086E+04  0.00000000000E+00 0. -1.
         21   -1    0    0  503  502  0.00000000000E+00 -0.00000000000E+00 -0.19749080825E+03  0.19749080825E+03  0.00000000000E+00 0.  1.
         24    2    1    2    0    0  0.88081217825E+01  0.12220828106E+03  0.63146331703E+03  0.64816777956E+03  0.79769058826E+02 0.  0.
         23    2    1    2    0    0  0.10875421150E+02 -0.49369359445E+02  0.23221409751E+03  0.25443464613E+03  0.90873503472E+02 0.  0.
        -13    1    3    3    0    0 -0.28997486418E+02  0.15322232611E+02  0.13609489421E+03  0.13999087564E+03  0.00000000000E+00 0.  1.
         14    1    3    3    0    0  0.37805608200E+02  0.10688604845E+03  0.49536842281E+03  0.50817690393E+03  0.00000000000E+00 0. -1.
        -11    1    4    4    0    0  0.30202922914E+02 -0.36726060691E+02  0.22539116700E+03  0.23035233502E+03  0.00000000000E+00 0.  1.
         11    1    4    4    0    0 -0.19327501764E+02 -0.12643298754E+02  0.68229305067E+01  0.24082311113E+02  0.00000000000E+00 0. -1.
         21    1    1    2  503  501  0.86984532346E+01  0.65173321076E+02 -0.15234665936E+03  0.16592989329E+03  0.00000000000E+00 0.  1.
          1    1    1    2  501    0 -0.28381996167E+02 -0.13801224269E+03  0.24385334514E+03  0.28163339783E+03  0.00000000000E+00 0. -1.
<scales pt_clust_5="13000.00000" pt_clust_6="13000.00000" pt_clust_7="13000.00000" pt_clust_8="13000.00000" pt_clust_9="65.75123" pt_clust_10="13000.00000"></scales>
<clustering>
<clus scale="   65.751">  2  9  1 -1</clus>
<clus scale="   79.769">  5  6 -1 -1</clus>
<clus scale="   90.874">  7  8 -1 -1</clus>
<clus scale="  108.619">  7 10 -1 -1</clus>
<clus scale="  158.376">  1  5  2 -1</clus>
<clus scale="   65.751">  2  5  1 -1</clus>
</clustering>
</event>
<event>
10    4  0.2759992E-005  0.4131938E+03  0.7546771E-02  0.1083644E+00
          2   -1    0    0  503    0 -0.00000000000E+00  0.00000000000E+00  0.75768066027E+03  0.75768066027E+03  0.00000000000E+00 0. -1.
         21   -1    0    0  501  502  0.00000000000E+00 -0.00000000000E+00 -0.13660140329E+03  0.13660140329E+03  0.00000000000E+00 0. -1.
         24    2    1    2    0    0  0.39713427883E+02  0.78446461912E+02  0.69721597086E+02  0.13787378153E+03  0.80106646361E+02 0.  0.
         23    2    1    2    0    0  0.25227901416E+02  0.16843177040E+02 -0.22951165521E+02  0.98542274145E+02  0.90904808302E+02 0.  0.
        -13    1    3    3    0    0  0.24246268328E+02  0.63150489535E+01 -0.11999678501E+02  0.27780454554E+02  0.00000000000E+00 0.  1.
         14    1    3    3    0    0  0.15467159556E+02  0.72131412959E+02  0.81721275587E+02  0.11009332697E+03  0.00000000000E+00 0. -1.
        -11    1    4    4    0    0 -0.17475899694E+02  0.36504833341E+02  0.93044108524E+01  0.41528086745E+02  0.00000000000E+00 0.  1.
         11    1    4    4    0    0  0.42703801110E+02 -0.19661656301E+02 -0.32255576374E+02  0.57014187400E+02  0.00000000000E+00 0. -1.
         21    1    1    2  503  502 -0.27302598166E+02  0.15622996029E+02 -0.29306164909E+02  0.42992571140E+02  0.00000000000E+00 0. -1.
          1    1    1    2  501    0 -0.37638731133E+02 -0.11091263498E+03  0.60361499032E+03  0.61487343675E+03  0.00000000000E+00 0. -1.
<scales pt_clust_5="13000.00000" pt_clust_6="13000.00000" pt_clust_7="13000.00000" pt_clust_8="13000.00000" pt_clust_9="31.45648" pt_clust_10="13000.00000"></scales>
<clustering>
<clus scale="   31.456">  2  9  1 -1</clus>
<clus scale="   80.107">  5  6 -1 -1</clus>
<clus scale="   90.905">  7  8 -1 -1</clus>
<clus scale="  116.801">  7 10 -1 -1</clus>
<clus scale="  119.824">  1  5  2 -1</clus>
<clus scale="   31.456">  2  5  1 -1</clus>
</clustering>
</event>
<event>
10    4  0.2759992E-005  0.5936857E+03  0.7546771E-02  0.1042322E+00
         -1   -1    0    0    0  501 -0.00000000000E+00  0.00000000000E+00  0.31916211385E+03  0.31916211385E+03  0.00000000000E+00 0.  1.
         21   -1    0    0  503  502  0.00000000000E+00 -0.00000000000E+00 -0.58731778280E+03  0.58731778280E+03  0.00000000000E+00 0.  1.
         24    2    1    2    0    0  0.93591933660E+01 -0.10093009658E+03  0.66200610022E+02  0.14488680301E+03  0.79593881821E+02 0.  0.
         23    2    1    2    0    0  0.12563131743E+03 -0.11956202798E+03  0.11724346935E+03  0.22869410758E+03  0.92068763878E+02 0.  0.
        -11    1    3    3    0    0 -0.22387122986E+02 -0.87885453478E+02  0.62977801246E+02  0.11041394685E+03  0.00000000000E+00 0.  1.
         12    1    3    3    0    0  0.31746316352E+02 -0.13044643098E+02  0.32228087759E+01  0.34472856161E+02  0.00000000000E+00 0. -1.
        -11    1    4    4    0    0  0.21371044529E+02 -0.40682693806E+02 -0.91422035154E+01  0.46854914414E+02  0.00000000000E+00 0. -1.
         11    1    4    4    0    0  0.10426027290E+03 -0.78879334173E+02  0.12638567287E+03  0.18183919316E+03  0.00000000000E+00 0.  1.
         21    1    1    2  503  501 -0.63839265048E+02  0.15199953623E+02 -0.10710310566E+03  0.12560877993E+03  0.00000000000E+00 0. -1.
         -2    1    1    2    0  502 -0.71151245746E+02  0.20529217093E+03 -0.34449664266E+03  0.40729020614E+03  0.00000000000E+00 0.  1.
<scales pt_clust_5="13000.00000" pt_clust_6="13000.00000" pt_clust_7="13000.00000" pt_clust_8="13000.00000" pt_clust_9="65.62386" pt_clust_10="13000.00000"></scales>
<clustering>
<clus scale="   65.624">  2  9  1 -1</clus>
<clus scale="   79.594">  5  6 -1 -1</clus>
<clus scale="   92.069">  7  8 -1 -1</clus>
<clus scale="  127.607">  1  5  2 -1</clus>
<clus scale="  229.144">  7 10 -1 -1</clus>
<clus scale="   65.624">  2  5  1 -1</clus>
</clustering>
</event>
<event>
10    4  0.2759992E-005  0.2101667E+03  0.7546771E-02  0.1168898E+00
         -3   -1    0    0    0  501 -0.00000000000E+00  0.00000000000E+00  0.88257732469E+03  0.88257732469E+03  0.00000000000E+00 0.  1.
         21   -1    0    0  503  502  0.00000000000E+00 -0.00000000000E+00 -0.45776019677E+02  0.45776019677E+02  0.00000000000E+00 0.  1.
         24    2    1    2    0    0 -0.63225321233E+02  0.58484775120E+01  0.10594505550E+03  0.14702774757E+03  0.79756867018E+02 0.  0.
         23    2    1    2    0    0  0.13683456512E+02 -0.37201943366E+02  0.20107452612E+03  0.22485888340E+03  0.92516651558E+02 0.  0.
        -13    1    3    3    0    0 -0.64113748123E+02  0.27915521743E+02  0.10335953315E+03  0.12479199552E+03  0.00000000000E+00 0.  1.
         14    1    3    3    0    0  0.88842689060E+00 -0.22067044231E+02  0.25855223496E+01  0.22235752051E+02  0.00000000000E+00 0. -1.
        -13    1    4    4    0    0  0.18227000262E+02  0.10938384302E+02  0.36118381987E+01  0.21561937874E+02  0.00000000000E+00 0. -1.
         13    1    4    4    0    0 -0.45435437503E+01 -0.48140327668E+02  0.19746268792E+03  0.20329694552E+03  0.00000000000E+00 0.  1.
         21    1    1    2  503  501 -0.22419105196E+02 -0.20596326416E+02  0.14722932905E+02  0.33817003016E+02  0.00000000000E+00 0. -1.
         -4    1    1    2    0  502  0.71960969917E+02  0.51949792270E+02  0.51505879048E+03  0.52264971038E+03  0.00000000000E+00 0.  1.
<scales pt_clust_5="13000.00000" pt_clust_6="13000.00000" pt_clust_7="13000.00000" pt_clust_8="13000.00000" pt_clust_9="30.44380" pt_clust_10="13000.00000"></scales>
<clustering>
<clus scale="   30.444">  2  9  1 -1</clus>
<clus scale="   79.757">  5  6 -1 -1</clus>
<clus scale="   92.517">  7  8 -1 -1</clus>
<clus scale="   85.587">  7 10 -1 -1</clus>
<clus scale="  110.279">  1  5  2 -1</clus>
<clus scale="   30.444">  2  5  1 -1</clus>
</clustering>
</event>
<event>
10    4  0.2759992E-005  0.2265173E+03  0.7546771E-02  0.1164549E+00
         21   -1    0    0  503  502  0.00000000000E+00  0.00000000000E+00  0.25157582705E+02  0.25157582705E+02  0.00000000000E+00 0. -1.
          2   -1    0    0  502    0 -0.00000000000E+00 -0.00000000000E+00 -0.14191276341E+04  0.14191276341E+04  0.00000000000E+00 0. -1.
         24    2    1    2    0    0  0.14022699177E+02  0.53517165693E+02 -0.24589548945E+03  0.26474486269E+03  0.81021771607E+02 0.  0.
         23    2    1    2    0    0 -0.81922693726E+02 -0.27913922685E+02 -0.51544957470E+03  0.53057112452E+03  0.91252064617E+02 0.  0.
        -13    1    3    3    0    0  0.22701899081E+02  0.55841435780E+02 -0.24824408367E+03  0.25545795593E+03  0.00000000000E+00 0.  1.
         14    1    3    3    0    0 -0.86791999038E+01 -0.23242700865E+01  0.23485942186E+01  0.92869067621E+01  0.00000000000E+00 0. -1.
        -13    1    4    4    0    0  0.38559183616E+01  0.21943628156E+02 -0.51190284274E+02  0.55828631786E+02  0.00000000000E+00 0.  1.
         13    1    4    4    0    0 -0.85778612087E+02 -0.49857550840E+02 -0.46425929042E+03  0.47474249274E+03  0.00000000000E+00 0. -1.
         21    1    1    2  503  501 -0.24889978178E+02  0.83605913305E+00 -0.31524482621E+02  0.40174656353E+02  0.00000000000E+00 0. -1.
          1    1    1    2  501    0  0.92789972726E+02 -0.26439302142E+02 -0.60110050462E+03  0.60879457323E+03  0.00000000000E+00 0. -1.
<scales pt_clust_5="13000.00000" pt_clust_6="13000.00000" pt_clust_7="13000.00000" pt_clust_8="13000.00000" pt_clust_9="24.90402" pt_clust_10="13000.00000"></scales>
<clustering>
<clus scale="   24.904">  1  9  2 -1</clus>
<clus scale="   81.022">  5  6 -1 -1</clus>
<clus scale="   91.252">  7  8 -1 -1</clus>
<clus scale="   92.027">  7 10 -1 -1</clus>
<clus scale="   97.349">  2  5  1 -1</clus>
<clus scale="   24.904">  1  5  2 -1</clus>
</clustering>
</event>
<event>
10    4  0.2759992E-005  0.1914135E+03  0.7546771E-02  0.1176151E+00
          2   -1    0    0  503    0 -0.00000000000E+00  0.00000000000E+00  0.51819632309E+03  0.51819632309E+03  0.00000000000E+00 0. -1.
         21   -1    0    0  501  502  0.00000000000E+00 -0.00000000000E+00 -0.90432180158E+02  0.90432180158E+02  0.00000000000E+00 0.  1.
         24    2    1    2    0    0  0.13047570905E+02 -0.66861978857E+02  0.63259639492E+02  0.12125170110E+03  0.77842338789E+02 0.  0.
         23    2    1    2    0    0  0.12981507916E+02  0.16814415072E+02  0.10748822194E+03  0.14234406157E+03  0.90867320332E+02 0.  0.
        -13    1    3    3    0    0  0.35002452383E+02 -0.35381180808E+02  0.30669079320E+01  0.49863870211E+02  0.00000000000E+00 0.  1.
         14    1    3    3    0    0 -0.21954881478E+02 -0.31480798049E+02  0.60192731560E+02  0.71387830890E+02  0.00000000000E+00 0. -1.
        -11    1    4    4    0    0 -0.27198052260E+02 -0.17126887347E+02  0.13962143322E+02  0.35042913164E+02  0.00000000000E+00 0.  1.
         11    1    4    4    0    0  0.40179560175E+02  0.33941302419E+02  0.93526078622E+02  0.10730114840E+03  0.00000000000E+00 0. -1.
         21    1    1    2  503  502 -0.58889441236E+02 -0.57152752440E+02  0.22501278709E+02  0.85092367132E+02  0.00000000000E+00 0.  1.
          1    1    1    2  501    0  0.32860362416E+02  0.10720031622E+03  0.23451500278E+03  0.25994037345E+03  0.00000000000E+00 0. -1.
<scales pt_clust_5="13000.00000" pt_clust_6="13000.00000" pt_clust_7="13000.00000" pt_clust_8="13000.00000" pt_clust_9="82.06341" pt_clust_10="13000.00000"></scales>
<clustering>
<clus scale="   77.842">  5  6 -1 -1</clus>
<clus scale="   82.063">  2  9  1 -1</clus>
<clus scale="   90.867">  7  8 -1 -1</clus>
<clus scale="   97.040">  7 10 -1 -1</clus>
<clus scale="  123.746">  1  5  2 -1</clus>
<clus scale="   82.063">  2  5  1 -1</clus>
</clustering>
</event>
<event>
10    4  0.2759992E-005  0.5585123E+03  0.7546771E-02  0.1064102E+00
         21   -1    0    0  501  502  0.00000000000E+00  0.00000000000E+00  0.29140420155E+03  0.29140420155E+03  0.00000000000E+00 0. -1.
          2   -1    0    0  503    0 -0.00000000000E+00 -0.00000000000E+00 -0.40363645222E+03  0.40363645222E+03  0.00000000000E+00 0. -1.
         24    2    1    2    0    0  0.42849489940E+01  0.17460137747E+02 -0.62985532651E+02  0.10418830288E+03  0.81023502370E+02 0.  0.
         23    2    1    2    0    0  0.63598289422E+02 -0.26232309907E+03  0.11259360044E+02  0.28551900112E+03  0.92391428667E+02 0.  0.
        -11    1    3    3    0    0  0.43690347598E+01  0.27946881470E+02  0.10339741030E+02  0.30116887177E+02  0.00000000000E+00 0.  1.
         12    1    3    3    0    0 -0.84085765807E-01 -0.10486743723E+02 -0.73325273681E+02  0.74071415706E+02  0.00000000000E+00 0. -1.
        -11    1    4    4    0    0  0.33972370851E+02 -0.75438834987E+02  0.43657626106E+02  0.93547464544E+02  0.00000000000E+00 0.  1.
         11    1    4    4    0    0  0.29625918571E+02 -0.18688426408E+03 -0.32398266062E+02  0.19197153658E+03  0.00000000000E+00 0. -1.
         21    1    1    2  503  502 -0.21433758992E+02 -0.18353846595E+02  0.81519820436E+01  0.29372172555E+02  0.00000000000E+00 0. -1.
          1    1    1    2  501    0 -0.46449479424E+02  0.26321680792E+03 -0.68658060113E+02  0.27596117721E+03  0.00000000000E+00 0. -1.
<scales pt_clust_5="13000.00000" pt_clust_6="13000.00000" pt_clust_7="13000.00000" pt_clust_8="13000.00000" pt_clust_9="28.21825" pt_clust_10="13000.00000"></scales>
<clustering>
<clus scale="   28.218">  1  9  2 -1</clus>
<clus scale="   81.024">  5  6 -1 -1</clus>
<clus scale="   82.645">  2  5  1 -1</clus>
<clus scale="   92.391">  7  8 -1 -1</clus>
<clus scale="  270.075">  7 10 -1 -1</clus>
<clus scale="   28.218">  1  5  2 -1</clus>
</clustering>
</event>
<event>
10    4  0.2759992E-005  0.4503400E+03  0.7546771E-02  0.1069391E+00
         21   -1    0    0  503  502  0.00000000000E+00  0.00000000000E+00  0.13025353735E+03  0.13025353735E+03  0.00000000000E+00 0.  1.
          2   -1    0    0  502    0 -0.00000000000E+00 -0.00000000000E+00 -0.81915488368E+03  0.81915488368E+03  0.00000000000E+00 0. -1.
         24    2    1    2    0    0  0.37071631359E+02 -0.93022218414E+02 -0.11813123552E+03  0.17511245425E+03  0.81743157877E+02 0.  0.
         23    2    1    2    0    0 -0.10541208961E+03 -0.18327562198E+02 -0.36883492776E+01  0.14128703799E+03  0.92199864484E+02 0.  0.
        -13    1    3    3    0    0  0.35474751303E+02 -0.44278597864E+02 -0.11546282742E+02  0.57899644679E+02  0.00000000000E+00 0.  1.
         14    1    3    3    0    0  0.15968800565E+01 -0.48743620550E+02 -0.10658495278E+03  0.11721280958E+03  0.00000000000E+00 0. -1.
        -11    1    4    4    0    0 -0.10008227221E+03  0.73016525954E+01  0.24004958733E+02  0.10317952019E+03  0.00000000000E+00 0.  1.
         11    1    4    4    0    0 -0.53298173959E+01 -0.25629214793E+02 -0.27693308011E+02  0.38107517801E+02  0.00000000000E+00 0. -1.
         21    1    1    2  503  501  0.92252461119E+01 -0.32185558163E+02  0.10374303839E+02  0.35051982829E+02  0.00000000000E+00 0.  1.
          1    1    1    2  501    0  0.59115212138E+02  0.14353533877E+03 -0.57745606538E+03  0.59795694596E+03  0.00000000000E+00 0. -1.
<scales pt_clust_5="13000.00000" pt_clust_6="13000.00000" pt_clust_7="13000.00000" pt_clust_8="13000.00000" pt_clust_9="33.48157" pt_clust_10="13000.00000"></scales>
<clustering>
<clus scale="   33.482">  1  9  2 -1</clus>
<clus scale="   81.743">  5  6 -1 -1</clus>
<clus scale="   92.200">  7  8 -1 -1</clus>
<clus scale="  136.219">  2  5  1 -1</clus>
<clus scale="  107.750">  7 10 -1 -1</clus>
<clus scale="   33.482">  1  5  2 -1</clus>
</clustering>
</event>
<event>
10    4  0.2759992E-005  0.2313719E+03  0.7546771E-02  0.1168483E+00
          4   -1    0    0  502    0 -0.00000000000E+00  0.00000000000E+00  0.15912343464E+03  0.15912343464E+03  0.00000000000E+00 0. -1.
         21   -1    0    0  503  502  0.00000000000E+00 -0.00000000000E+00 -0.23006923876E+03  0.23006923876E+03  0.00000000000E+00 0.  1.
         24    2    1    2    0    0 -0.40995711158E+01  0.59529884389E+01 -0.38380912511E+02  0.91104653434E+02  0.82308680451E+02 0.  0.
         23    2    1    2    0    0  0.80548142895E+02 -0.30945540158E+02 -0.29908112499E+02  0.12917479262E+03  0.91356456129E+02 0.  0.
        -11    1    3    3    0    0 -0.40798145986E+02 -0.44825884802E+01 -0.68563836930E+01  0.41612405755E+02  0.00000000000E+00 0.  1.
         12    1    3    3    0    0  0.36698574870E+02  0.10435576919E+02 -0.31524528818E+02  0.49492247679E+02  0.00000000000E+00 0. -1.
        -11    1    4    4    0    0  0.35341915446E+02  0.30092366940E+02  0.27432437417E+01  0.46498676559E+02  0.00000000000E+00 0. -1.
         11    1    4    4    0    0  0.45206227449E+02 -0.61037907098E+02 -0.32651356241E+02  0.82676116064E+02  0.00000000000E+00 0.  1.
         21    1    1    2  503  501  0.11571063251E+02  0.20137961724E+02 -0.59601515210E+02  0.63966926004E+02  0.00000000000E+00 0.  1.
          3    1    1    2  501    0 -0.88019635030E+02  0.48545899952E+01  0.56944736106E+02  0.10494630134E+03  0.00000000000E+00 0. -1.
<scales pt_clust_5="13000.00000" pt_clust_6="13000.00000" pt_clust_7="13000.00000" pt_clust_8="13000.00000" pt_clust_9="23.22557" pt_clust_10="13000.00000"></scales>
<clustering>
<clus scale="   23.226">  2  9  1 -1</clus>
<clus scale="   82.309">  5  6 -1 -1</clus>
<clus scale="   83.442">  1  5  2 -1</clus>
<clus scale="   91.356">  7  8 -1 -1</clus>
<clus scale="   87.623">  7 10 -1 -1</clus>
<clus scale="   23.226">  2  5  1 -1</clus>
</clustering>
</event>
<event>
10    4  0.2759992E-005  0.4457838E+03  0.7546771E-02  0.1086356E+00
         21   -1    0    0  501  502  0.00000000000E+00  0.00000000000E+00  0.73731586586E+02  0.73731586586E+02  0.00000000000E+00 0. -1.
          2   -1    0    0  503    0 -0.00000000000E+00 -0.00000000000E+00 -0.12656325962E+04  0.12656325962E+04  0.00000000000E+00 0. -1.
         24    2    1    2    0    0 -0.38100641768E+02 -0.40076436719E+02 -0.16818971622E+03  0.19359208230E+03  0.78309220436E+02 0.  0.
         23    2    1    2    0    0  0.15016344987E+03 -0.95079821297E+02 -0.70185593894E+03  0.72977786127E+03  0.91568191469E+02 0.  0.
        -13    1    3    3    0    0 -0.30731891602E+02  0.12808360713E+02 -0.27743836383E+02  0.43338478548E+02  0.00000000000E+00 0.  1.
         14    1    3    3    0    0 -0.73687501664E+01 -0.52884797432E+02 -0.14044587984E+03  0.15025360376E+03  0.00000000000E+00 0. -1.
        -11    1    4    4    0    0  0.15296915899E+03 -0.61738399888E+02 -0.54618418465E+03  0.57055092427E+03  0.00000000000E+00 0. -1.
         11    1    4    4    0    0 -0.28057091164E+01 -0.33341421409E+02 -0.15567175428E+03  0.15922693700E+03  0.00000000000E+00 0.  1.
         21    1    1    2  503  502  0.55167904393E+02  0.41972115996E+02 -0.11391664235E+03  0.13334975666E+03  0.00000000000E+00 0. -1.
          1    1    1    2  501    0 -0.16723071249E+03  0.93184142020E+02 -0.20793871212E+03  0.28264448256E+03  0.00000000000E+00 0. -1.
<scales pt_clust_5="13000.00000" pt_clust_6="13000.00000" pt_clust_7="13000.00000" pt_clust_8="13000.00000" pt_clust_9="69.31923" pt_clust_10="13000.00000"></scales>
<clustering>
<clus scale="   69.319">  1  9  2 -1</clus>
<clus scale="   78.309">  5  6 -1 -1</clus>
<clus scale="   88.756">  2  5  1 -1</clus>
<clus scale="   91.568">  7  8 -1 -1</clus>
<clus scale="  179.382">  7 10 -1 -1</clus>
<clus scale="   69.319">  1  5  2 -1</clus>
</clustering>
</event>
<event>
10    4  0.2759992E-005  0.3391504E+03  0.7546771E-02  0.1104564E+00
         21   -1    0    0  503  502  0.00000000000E+00  0.00000000000E+00  0.83330747757E+02  0.83330747757E+02  0.00000000000E+00 0. -1.
          2   -1    0    0  502    0 -0.00000000000E+00 -0.00000000000E+00 -0.93358312385E+03  0.93358312385E+03  0.00000000000E+00 0. -1.
         24    2    1    2    0    0  0.21617663311E+02 -0.10770392159E+03 -0.28111128879E+03  0.31248268493E+03  0.80959333011E+02 0.  0.
         23    2    1    2    0    0  0.48208060969E+01 -0.11219658486E+03 -0.15134427487E+03  0.20896326637E+03  0.90273159527E+02 0.  0.
        -11    1    3    3    0    0  0.47721931897E+02 -0.57023582004E+02 -0.19971416392E+03  0.21310752910E+03  0.00000000000E+00 0.  1.
         12    1    3    3    0    0 -0.26104268586E+02 -0.50680339582E+02 -0.81397124872E+02  0.99375155828E+02  0.00000000000E+00 0. -1.
        -13    1    4    4    0    0  0.46511184636E+02 -0.61150084113E+02 -0.67131501036E+02  0.10202578848E+03  0.00000000000E+00 0. -1.
         13    1    4    4    0    0 -0.41690378539E+02 -0.51046500748E+02 -0.84212773838E+02  0.10693747790E+03  0.00000000000E+00 0.  1.
         21    1    1    2  503  501 -0.16657998704E+02  0.53768285672E+02 -0.12963546686E+02  0.57763059195E+02  0.00000000000E+00 0. -1.
          1    1    1    2  501    0 -0.97804707037E+01  0.16613222077E+03 -0.40483326574E+03  0.43770486111E+03  0.00000000000E+00 0. -1.
<scales pt_clust_5="13000.00000" pt_clust_6="13000.00000" pt_clust_7="13000.00000" pt_clust_8="13000.00000" pt_clust_9="56.28959" pt_clust_10="13000.00000"></scales>
<clustering>
<clus scale="   56.290">  1  9  2 -1</clus>
<clus scale="   80.959">  5  6 -1 -1</clus>
<clus scale="   90.273">  7  8 -1 -1</clus>
<clus scale="  125.159">  2  5  1 -1</clus>
<clus scale="  109.864">  7 10 -1 -1</clus>
<clus scale="   56.290">  1  5  2 -1</clus>
</clustering>
</event>
<event>
10    4  0.2759992E-005  0.2660248E+03  0.7546771E-02  0.1129996E+00
         21   -1    0    0  501  502  0.00000000000E+00  0.00000000000E+00  0.18075596928E+03  0.18075596928E+03  0.00000000000E+00 0. -1.
          2   -1    0    0  503    0 -0.00000000000E+00 -0.00000000000E+00 -0.48866874275E+03  0.48866874275E+03  0.00000000000E+00 0. -1.
         24    2    1    2    0    0  0.60024547569E+02 -0.72916444243E+02  0.10336002120E+03  0.16097303966E+03  0.79430921950E+02 0.  0.
         23    2    1    2    0    0  0.28468597923E+02  0.73109854234E+01 -0.29150555300E+03  0.30662599527E+03  0.90443916146E+02 0.  0.
        -13    1    3    3    0    0  0.44689521043E+02 -0.70614149899E+02  0.34534150437E+02  0.90421894492E+02  0.00000000000E+00 0.  1.
         14    1    3    3    0    0  0.15335026526E+02 -0.23022943444E+01  0.68825870764E+02  0.70551145166E+02  0.00000000000E+00 0. -1.
        -13    1    4    4    0    0  0.35428889399E+02  0.42512897068E+02 -0.21676605084E+03  0.22371873730E+03  0.00000000000E+00 0. -1.
         13    1    4    4    0    0 -0.69602914760E+01 -0.35201911644E+02 -0.74739502161E+02  0.82907257970E+02  0.00000000000E+00 0.  1.
         21    1    1    2  503  502 -0.35575369126E+01 -0.30123430974E+02 -0.42894020309E+02  0.52535456035E+02  0.00000000000E+00 0.  1.
          1    1    1    2  501    0 -0.84935608579E+02  0.95728889793E+02 -0.76873221357E+02  0.14929022107E+03  0.00000000000E+00 0. -1.
<scales pt_clust_5="13000.00000" pt_clust_6="13000.00000" pt_clust_7="13000.00000" pt_clust_8="13000.00000" pt_clust_9="30.33279" pt_clust_10="13000.00000"></scales>
<clustering>
<clus scale="   30.333">  1  9  2 -1</clus>
<clus scale="   79.431">  5  6 -1 -1</clus>
<clus scale="   90.444">  7  8 -1 -1</clus>
<clus scale="  123.913">  7 10 -1 -1</clus>
<clus scale="  136.849">  2  5  1 -1</clus>
<clus scale="   30.333">  1  5  2 -1</clus>
</clustering>
</event>
<event>
10    4  0.2759992E-005  0.6909170E+03  0.7546771E-02  0.9992778E-01
         21   -1    0    0  501  502  0.00000000000E+00  0.00000000000E+00  0.65606793077E+03  0.65606793077E+03  0.00000000000E+00 0.  1.
         -3   -1    0    0    0  501 -0.00000000000E+00 -0.00000000000E+00 -0.46575990481E+03  0.46575990481E+03  0.00000000000E+00 0.  1.
         24    2    1    2    0    0  0.88486471480E+02 -0.27137196923E+03 -0.13455498863E+03  0.32571617773E+03  0.80705527403E+02 0.  0.
         23    2    1    2    0    0  0.10929746079E+03  0.32583048114E+03  0.36252953244E+03  0.50794527665E+03  0.92028825928E+02 0.  0.
        -13    1    3    3    0    0  0.36559827458E+02 -0.24276735053E+02 -0.24715773446E+02  0.50367155028E+02  0.00000000000E+00 0.  1.
         14    1    3    3    0    0  0.51926644022E+02 -0.24709523418E+03 -0.10983921518E+03  0.27534902271E+03  0.00000000000E+00 0. -1.
        -13    1    4    4    0    0  0.25392961471E+02  0.12206665901E+02  0.49521716701E+02  0.56975482532E+02  0.00000000000E+00 0. -1.
         13    1    4    4    0    0  0.83904499315E+02  0.31362381524E+03  0.31300781574E+03  0.45096979412E+03  0.00000000000E+00 0.  1.
         21    1    1    2  503  502  0.25244425601E+02  0.22790178646E+01  0.38206096328E+02  0.45849544632E+02  0.00000000000E+00 0.  1.
         -4    1    1    2    0  503 -0.22302835787E+03 -0.56737529770E+02 -0.75872614188E+02  0.24231683656E+03  0.00000000000E+00 0.  1.
<scales pt_clust_5="13000.00000" pt_clust_6="13000.00000" pt_clust_7="13000.00000" pt_clust_8="13000.00000" pt_clust_9="25.34709" pt_clust_10="13000.00000"></scales>
<clustering>
<clus scale="   25.347">  1  9  2 -1</clus>
<clus scale="   80.706">  5  6 -1 -1</clus>
<clus scale="   92.029">  7  8 -1 -1</clus>
<clus scale="  226.741">  7 10 -1 -1</clus>
<clus scale="  297.497">  2  5  1 -1</clus>
<clus scale="   25.347">  1  5  2 -1</clus>
</clustering>
</event>
<event>
10    4  0.2759992E-005  0.1738999E+03  0.7546771E-02  0.1204453E+00
         21   -1    0    0  503  502  0.00000000000E+00  0.00000000000E+00  0.35241425416E+03  0.35241425416E+03  0.00000000000E+00 0. -1.
         -3   -1    0    0    0  501 -0.00000000000E+00 -0.00000000000E+00 -0.13305358038E+03  0.13305358038E+03  0.00000000000E+00 0.  1.
         24    2    1    2    0    0  0.16620380519E+02 -0.27432699950E+02 -0.55470758308E+02  0.10318140210E+03  0.80874017076E+02 0.  0.
         23    2    1    2    0    0  0.36103260376E+02  0.12277933866E+02  0.16116474569E+03  0.18903251680E+03  0.91131904881E+02 0.  0.
        -11    1    3    3    0    0 -0.13872896608E+02 -0.40739285280E+02 -0.58400891975E+01  0.43431017341E+02  0.00000000000E+00 0.  1.
         12    1    3    3    0    0  0.30493277127E+02  0.13306585330E+02 -0.49630669110E+02  0.59750384764E+02  0.00000000000E+00 0. -1.
        -13    1    4    4    0    0  0.17035162016E+02 -0.19734813385E+02  0.26584811438E+01  0.26205478936E+02  0.00000000000E+00 0.  1.
         13    1    4    4    0    0  0.19068098359E+02  0.32012747251E+02  0.15850626454E+03  0.16282703787E+03  0.00000000000E+00 0. -1.
         21    1    1    2  503  501 -0.39937920862E+02 -0.60346022791E+02  0.84648198006E+02  0.11136425555E+03  0.00000000000E+00 0. -1.
         -4    1    1    2    0  502 -0.12785720032E+02  0.75500788875E+02  0.29018488397E+02  0.81889660070E+02  0.00000000000E+00 0.  1.
<scales pt_clust_5="13000.00000" pt_clust_6="13000.00000" pt_clust_7="13000.00000" pt_clust_8="13000.00000" pt_clust_9="72.36491" pt_clust_10="13000.00000"></scales>
<clustering>
<clus scale="   72.365">  1  9  2 -1</clus>
<clus scale="   80.874">  5  6 -1 -1</clus>
<clus scale="   88.326">  2  5  1 -1</clus>
<clus scale="   91.132">  7  8 -1 -1</clus>
<clus scale="   49.967">  7 10 -1 -1</clus>
<clus scale="   72.365">  1  5  2 -1</clus>
</clustering>
</event>
<event>
10    4  0.2759992E-005  0.1428309E+03  0.7546771E-02  0.1234829E+00
         -1   -1    0    0    0  501 -0.00000000000E+00  0.00000000000E+00  0.80843610436E+03  0.80843610436E+03  0.00000000000E+00 0.  1.
         21   -1    0    0  503  502  0.00000000000E+00 -0.00000000000E+00 -0.52772732591E+02  0.52772732591E+02  0.00000000000E+00 0.  1.
         24    2    1    2    0    0  0.11037414427E+02  0.43705934686E+01  0.21839525033E+02  0.84293723590E+02  0.80545269125E+02 0.  0.
         23    2    1    2    0    0 -0.13601068930E+02  0.22767344731E+02  0.47362711448E+03  0.48292331223E+03  0.90492766909E+02 0.  0.
        -11    1    3    3    0    0 -0.19301281292E+02 -0.16500472185E+02 -0.17166619692E+02  0.30651229559E+02  0.00000000000E+00 0.  1.
         12    1    3    3    0    0  0.30338695719E+02  0.20871065654E+02  0.39006144725E+02  0.53642494030E+02  0.00000000000E+00 0. -1.
        -13    1    4    4    0    0 -0.45841319174E+02  0.36933847586E+02  0.28031495473E+03  0.28642976362E+03  0.00000000000E+00 0.  1.
         13    1    4    4    0    0  0.32240250244E+02 -0.14166502856E+02  0.19331215974E+03  0.19649354861E+03  0.00000000000E+00 0. -1.
         21    1    1    2  503  501 -0.87004264782E+00  0.21834521034E+02 -0.65127661168E+01  0.22801741281E+02  0.00000000000E+00 0.  1.
         -2    1    1    2    0  502  0.34336971512E+01 -0.48972459233E+02  0.26670949838E+03  0.27119005986E+03  0.00000000000E+00 0.  1.
<scales pt_clust_5="13000.00000" pt_clust_6="13000.00000" pt_clust_7="13000.00000" pt_clust_8="13000.00000" pt_clust_9="21.85185" pt_clust_10="13000.00000"></scales>
<clustering>
<clus scale="   21.852">  2  9  1 -1</clus>
<clus scale="   80.545">  5  6 -1 -1</clus>
<clus scale="   84.200">  1  5  2 -1</clus>
<clus scale="   90.493">  7  8 -1 -1</clus>
<clus scale="   40.624">  7 10 -1 -1</clus>
<clus scale="   21.852">  2  5  1 -1</clus>
</clustering>
</event>
<event>
10    4  0.2868835E-005  0.6660875E+03  0.7546771E-02  0.1013489E+00
          2   -1    0    0  502    0 -0.00000000000E+00  0.00000000000E+00  0.25838553276E+04  0.25838553276E+04  0.00000000000E+00 0. -1.
         21   -1    0    0  503  502  0.00000000000E+00 -0.00000000000E+00 -0.85344060158E+02  0.85344060158E+02  0.00000000000E+00 0.  1.
         24    2    1    2    0    0 -0.19126379970E+03 -0.71477768251E+02  0.38872490964E+03  0.44646304654E+03  0.80816360468E+02 0.  0.
         23    2    1    2    0    0 -0.10120811009E+03 -0.81073410734E+02  0.12263347685E+03  0.20158397817E+03  0.93707796551E+02 0.  0.
        -11    1    3    3    0    0 -0.13748665954E+03 -0.81308180589E+02  0.32754696581E+03  0.36441818916E+03  0.00000000000E+00 0.  1.
         12    1    3    3    0    0 -0.53777140155E+02  0.98304123381E+01  0.61177943833E+02  0.82044857375E+02  0.00000000000E+00 0. -1.
        -13    1    4    4    0    0 -0.33226503000E+02  0.14277428972E+02  0.66613659425E+01  0.36772534260E+02  0.00000000000E+00 0.  1.
         13    1    4    4    0    0 -0.67981607086E+02 -0.95350839706E+02  0.11597211091E+03  0.16481144391E+03  0.00000000000E+00 0. -1.
         21    1    1    2  503  501  0.10945367591E+02  0.25089247603E+02  0.33749463262E+02  0.43454547373E+02  0.00000000000E+00 0.  1.
          1    1    1    2  501    0  0.28152654219E+03  0.12746193138E+03  0.19534034177E+04  0.19776978157E+04  0.00000000000E+00 0. -1.
<scales pt_clust_5="13000.00000" pt_clust_6="13000.00000" pt_clust_7="13000.00000" pt_clust_8="13000.00000" pt_clust_9="27.37282" pt_clust_10="13000.00000"></scales>
<clustering>
<clus scale="   27.373">  2  9  1 -1</clus>
<clus scale="   80.816">  5  6 -1 -1</clus>
<clus scale="   93.708">  7  8 -1 -1</clus>
<clus scale="  213.379">  1  5  2 -1</clus>
<clus scale="  132.499">  7 10 -1 -1</clus>
<clus scale="   27.373">  2  5  1 -1</clus>
</clustering>
</event>
<event>
10    4  0.2759992E-005  0.1868970E+03  0.7546771E-02  0.1192183E+00
         21   -1    0    0  503  502  0.00000000000E+00  0.00000000000E+00  0.12787352201E+03  0.12787352201E+03  0.00000000000E+00 0. -1.
          2   -1    0    0  502    0 -0.00000000000E+00 -0.00000000000E+00 -0.45647918268E+03  0.45647918268E+03  0.00000000000E+00 0. -1.
         24    2    1    2    0    0  0.12189310689E+02 -0.47630829663E+02 -0.28521687331E+03  0.30002982230E+03  0.79069300109E+02 0.  0.
         23    2    1    2    0    0 -0.58061045241E+02 -0.52018421091E+01 -0.11919577348E+03  0.16328000689E+03  0.95155578400E+02 0.  0.
        -13    1    3    3    0    0  0.13444723830E+01 -0.23775855993E+02 -0.14152641314E+02  0.27701916727E+02  0.00000000000E+00 0.  1.
         14    1    3    3    0    0  0.10844838306E+02 -0.23854973670E+02 -0.27106423200E+03  0.27232790557E+03  0.00000000000E+00 0. -1.
        -13    1    4    4    0    0 -0.62534006790E+02 -0.33045579423E+02 -0.44811092637E+02  0.83729005416E+02  0.00000000000E+00 0. -1.
         13    1    4    4    0    0  0.44729615484E+01  0.27843737314E+02 -0.74384680838E+02  0.79551001477E+02  0.00000000000E+00 0.  1.
         21    1    1    2  503  501  0.19582900838E+02  0.81798688392E+01  0.64642323376E+02  0.68036976938E+02  0.00000000000E+00 0. -1.
          1    1    1    2  501    0  0.26288833715E+02  0.44652802933E+02  0.11164662733E+02  0.53005898557E+02  0.00000000000E+00 0. -1.
<scales pt_clust_5="13000.00000" pt_clust_6="13000.00000" pt_clust_7="13000.00000" pt_clust_8="13000.00000" pt_clust_9="21.22264" pt_clust_10="13000.00000"></scales>
<clustering>
<clus scale="   21.223">  1  9  2 -1</clus>
<clus scale="   79.069">  5  6 -1 -1</clus>
<clus scale="   92.949">  2  5  1 -1</clus>
<clus scale="   95.156">  7  8 -1 -1</clus>
<clus scale="   56.175">  7 10 -1 -1</clus>
<clus scale="   21.223">  1  5  2 -1</clus>
</clustering>
</event>
<event>
10    4  0.2759992E-005  0.3558536E+03  0.7546771E-02  0.1101041E+00
         21   -1    0    0  501  502  0.00000000000E+00  0.00000000000E+00  0.36935595372E+03  0.36935595372E+03  0.00000000000E+00 0.  1.
          2   -1    0    0  503    0 -0.00000000000E+00 -0.00000000000E+00 -0.54951621756E+03  0.54951621756E+03  0.00000000000E+00 0. -1.
         24    2    1    2    0    0  0.21149431882E+02 -0.85904626816E+02 -0.41624197826E+03  0.43292212426E+03  0.79607021262E+02 0.  0.
         23    2    1    2    0    0  0.15174873460E+03  0.32338788558E+01  0.21945973513E+03  0.28089992393E+03  0.87772749171E+02 0.  0.
        -13    1    3    3    0    0  0.37531477988E+02 -0.33431220238E+02 -0.99812702190E+02  0.11175345115E+03  0.00000000000E+00 0.  1.
         14    1    3    3    0    0 -0.16382046106E+02 -0.52473406578E+02 -0.31642927607E+03  0.32116867311E+03  0.00000000000E+00 0. -1.
        -11    1    4    4    0    0  0.87051493584E+02  0.33859535689E+02  0.16975363866E+03  0.19375429939E+03  0.00000000000E+00 0.  1.
         11    1    4    4    0    0  0.64697241011E+02 -0.30625656833E+02  0.49706096471E+02  0.87145624545E+02  0.00000000000E+00 0. -1.
         21    1    1    2  503  502 -0.37753929388E+02  0.11602570005E+02 -0.25054859205E+02  0.46773120323E+02  0.00000000000E+00 0.  1.
          1    1    1    2  501    0 -0.13514423709E+03  0.71068177956E+02  0.41676838492E+02  0.15827700276E+03  0.00000000000E+00 0. -1.
<scales pt_clust_5="13000.00000" pt_clust_6="13000.00000" pt_clust_7="13000.00000" pt_clust_8="13000.00000" pt_clust_9="39.49659" pt_clust_10="13000.00000"></scales>
<clustering>
<clus scale="   39.497">  1  9  2 -1</clus>
<clus scale="   79.607">  5  6 -1 -1</clus>
<clus scale="   87.773">  7  8 -1 -1</clus>
<clus scale="  118.665">  2  5  1 -1</clus>
<clus scale="  135.652">  7 10 -1 -1</clus>
<clus scale="   39.497">  1  5  2 -1</clus>
</clustering>
</event>
<event>
10    4  0.2759992E-005  0.1286508E+03  0.7546771E-02  0.1241488E+00
         21   -1    0    0  503  502  0.00000000000E+00  0.00000000000E+00  0.13620504363E+03  0.13620504363E+03  0.00000000000E+00 0.  1.
          2   -1    0    0  502    0 -0.00000000000E+00 -0.00000000000E+00 -0.54929924705E+03  0.54929924705E+03  0.00000000000E+00 0. -1.
         24    2    1    2    0    0 -0.46904971273E+02  0.28434152406E+01 -0.10954499307E+03  0.14359070433E+03  0.80062622513E+02 0.  0.
         23    2    1    2    0    0  0.31114173608E+02 -0.28747388896E+02 -0.26130412941E+03  0.27979391633E+03  0.90610614179E+02 0.  0.
        -13    1    3    3    0    0 -0.41013862361E+02 -0.34535865835E+02 -0.76078389960E+02  0.93074079923E+02  0.00000000000E+00 0.  1.
         14    1    3    3    0    0 -0.58911089122E+01  0.37379281076E+02 -0.33466603110E+02  0.50516624409E+02  0.00000000000E+00 0. -1.
        -11    1    4    4    0    0  0.26290402773E+02  0.23827205722E+02 -0.45904667441E+02  0.58018613422E+02  0.00000000000E+00 0.  1.
         11    1    4    4    0    0  0.48237708349E+01 -0.52574594619E+02 -0.21539946197E+03  0.22177530291E+03  0.00000000000E+00 0. -1.
         21    1    1    2  503  501 -0.97258652461E+01  0.45294361522E+02  0.10323407764E+03  0.11315231517E+03  0.00000000000E+00 0.  1.
          1    1    1    2  501    0  0.25516662911E+02 -0.19390387866E+02 -0.14547915859E+03  0.14896735485E+03  0.00000000000E+00 0. -1.
<scales pt_clust_5="13000.00000" pt_clust_6="13000.00000" pt_clust_7="13000.00000" pt_clust_8="13000.00000" pt_clust_9="46.32679" pt_clust_10="13000.00000"></scales>
<clustering>
<clus scale="   46.327">  1  9  2 -1</clus>
<clus scale="   80.063">  5  6 -1 -1</clus>
<clus scale="   90.611">  7  8 -1 -1</clus>
<clus scale="   29.919">  7 10 -1 -1</clus>
<clus scale="  100.607">  2  5  1 -1</clus>
<clus scale="   46.327">  1  5  2 -1</clus>
</clustering>
</event>
<event>
10    4  0.2759992E-005  0.4906283E+03  0.7546771E-02  0.1069870E+00
         -1   -1    0    0    0  501 -0.00000000000E+00  0.00000000000E+00  0.26039202500E+03  0.26039202500E+03  0.00000000000E+00 0.  1.
         21   -1    0    0  501  502  0.00000000000E+00 -0.00000000000E+00 -0.50756925926E+03  0.50756925926E+03  0.00000000000E+00 0.  1.
         24    2    1    2    0    0 -0.68030514815E+02 -0.35931612910E+01  0.42843939588E+02  0.11455149461E+03  0.81519200212E+02 0.  0.
         23    2    1    2    0    0 -0.17160875401E+03 -0.92095420740E+02  0.43778311617E+02  0.21934714487E+03  0.90914786588E+02 0.  0.
        -13    1    3    3    0    0 -0.28646531695E+02  0.23018045170E+02 -0.14992855969E+02  0.39689292154E+02  0.00000000000E+00 0.  1.
         14    1    3    3    0    0 -0.39383983120E+02 -0.26611206461E+02  0.57836795557E+02  0.74862202453E+02  0.00000000000E+00 0. -1.
        -11    1    4    4    0    0 -0.15147067138E+03 -0.97649720610E+02  0.11097519298E+02  0.18056020369E+03  0.00000000000E+00 0.  1.
         11    1    4    4    0    0 -0.20138082625E+02  0.55542998706E+01  0.32680792319E+02  0.38786941172E+02  0.00000000000E+00 0. -1.
         21    1    1    2  503  502  0.36330932136E+02  0.30572039017E+02 -0.13207059459E+03  0.14034681384E+03  0.00000000000E+00 0. -1.
         -2    1    1    2    0  503  0.20330833668E+03  0.65116543013E+02 -0.20172889088E+03  0.29371583096E+03  0.00000000000E+00 0.  1.
<scales pt_clust_5="13000.00000" pt_clust_6="13000.00000" pt_clust_7="13000.00000" pt_clust_8="13000.00000" pt_clust_9="47.48248" pt_clust_10="13000.00000"></scales>
<clustering>
<clus scale="   47.482">  2  9  1 -1</clus>
<clus scale="   81.519">  5  6 -1 -1</clus>
<clus scale="   90.915">  7  8 -1 -1</clus>
<clus scale="  103.966">  1  5  2 -1</clus>
<clus scale="  222.552">  7 10 -1 -1</clus>
<clus scale="   47.482">  2  5  1 -1</clus>
</clustering>
</event>
<event>
10    4  0.2759992E-005  0.1567541E+03  0.7546771E-02  0.1213241E+00
         21   -1    0    0  501  502  0.00000000000E+00  0.00000000000E+00  0.44080410050E+02  0.44080410050E+02  0.00000000000E+00 0. -1.
          2   -1    0    0  503    0 -0.00000000000E+00 -0.00000000000E+00 -0.87914336610E+03  0.87914336610E+03  0.00000000000E+00 0. -1.
         24    2    1    2    0    0  0.65721783374E+02 -0.20023622488E+02 -0.35581901337E+03  0.37122197163E+03  0.80487785902E+02 0.  0.
         23    2    1    2    0    0  0.10837966466E+02  0.10835827759E+02 -0.15852962790E+03  0.18377679909E+03  0.91691833234E+02 0.  0.
        -11    1    3    3    0    0  0.11436594734E+01  0.25839506295E+02 -0.10793795565E+03  0.11099364987E+03  0.00000000000E+00 0.  1.
         12    1    3    3    0    0  0.64578123901E+02 -0.45863128784E+02 -0.24788105772E+03  0.26022832176E+03  0.00000000000E+00 0. -1.
        -13    1    4    4    0    0 -0.40392960476E+02 -0.89058040598E+00 -0.69865392604E+02  0.80706613565E+02  0.00000000000E+00 0.  1.
         13    1    4    4    0    0  0.51230926942E+02  0.11726408165E+02 -0.88664235293E+02  0.10307018552E+03  0.00000000000E+00 0. -1.
         21    1    1    2  503  502 -0.77107215296E+02 -0.62768523693E+02 -0.24172012539E+03  0.26136952622E+03  0.00000000000E+00 0. -1.
          1    1    1    2  501    0  0.54746545601E+00  0.71956318422E+02 -0.78994189386E+02  0.10685547920E+03  0.00000000000E+00 0. -1.
<scales pt_clust_5="13000.00000" pt_clust_6="13000.00000" pt_clust_7="13000.00000" pt_clust_8="13000.00000" pt_clust_9="99.42545" pt_clust_10="13000.00000"></scales>
<clustering>
<clus scale="   80.488">  5  6 -1 -1</clus>
<clus scale="   91.692">  7  8 -1 -1</clus>
<clus scale="   71.958">  7 10 -1 -1</clus>
<clus scale="   99.425">  1  9  2 -1</clus>
<clus scale="   99.924">  2  5  1 -1</clus>
<clus scale="   99.425">  1  5  2 -1</clus>
</clustering>
</event>
<event>
10    4  0.2759992E-005  0.1526361E+03  0.7546771E-02  0.1216045E+00
          2   -1    0    0  502    0 -0.00000000000E+00  0.00000000000E+00  0.25057077176E+03  0.25057077176E+03  0.00000000000E+00 0. -1.
         21   -1    0    0  503  502  0.00000000000E+00 -0.00000000000E+00 -0.11783498657E+03  0.11783498657E+03  0.00000000000E+00 0.  1.
         24    2    1    2    0    0  0.19421458126E+02 -0.48243924604E+02  0.10754767311E+03  0.14445804652E+03  0.81221646839E+02 0.  0.
         23    2    1    2    0    0 -0.59275012383E+02  0.72686131762E+02  0.26732981711E+02  0.13058374357E+03  0.86836979052E+02 0.  0.
        -11    1    3    3    0    0  0.43972390627E+02 -0.20141281419E+01  0.52101927504E+02  0.68207321449E+02  0.00000000000E+00 0.  1.
         12    1    3    3    0    0 -0.24550932501E+02 -0.46229796462E+02  0.55445745606E+02  0.76250725068E+02  0.00000000000E+00 0. -1.
        -13    1    4    4    0    0 -0.26859766601E+02  0.28001987206E+02 -0.31768985077E+02  0.50148048438E+02  0.00000000000E+00 0.  1.
         13    1    4    4    0    0 -0.32415245782E+02  0.44684144556E+02  0.58501966788E+02  0.80435695135E+02  0.00000000000E+00 0. -1.
         21    1    1    2  503  501  0.35276543145E+01 -0.48188541171E+02 -0.94986354703E+01  0.49242298088E+02  0.00000000000E+00 0.  1.
          1    1    1    2  501    0  0.36325899942E+02  0.23746334013E+02  0.79537658378E+01  0.44121670148E+02  0.00000000000E+00 0. -1.
<scales pt_clust_5="13000.00000" pt_clust_6="13000.00000" pt_clust_7="13000.00000" pt_clust_8="13000.00000" pt_clust_9="48.31749" pt_clust_10="13000.00000"></scales>
<clustering>
<clus scale="   48.317">  2  9  1 -1</clus>
<clus scale="   81.222">  5  6 -1 -1</clus>
<clus scale="   86.837">  7  8 -1 -1</clus>
<clus scale="   39.567">  7 10 -1 -1</clus>
<clus scale="  101.989">  1  5  2 -1</clus>
<clus scale="   48.317">  2  5  1 -1</clus>
</clustering>
</event>
<event>
10    4  0.2759992E-005  0.3280595E+03  0.7546771E-02  0.1094969E+00
         21   -1    0    0  501  502  0.00000000000E+00  0.00000000000E+00  0.40270181034E+03  0.40270181034E+03  0.00000000000E+00 0.  1.
          2   -1    0    0  503    0 -0.00000000000E+00 -0.00000000000E+00 -0.38651530179E+03  0.38651530179E+03  0.00000000000E+00 0. -1.
         24    2    1    2    0    0 -0.88284013039E+02  0.10695623203E+03  0.19322702447E+03  0.25134541953E+03  0.81265825572E+02 0.  0.
         23    2    1    2    0    0 -0.42485340991E+02  0.30210132069E+02 -0.40790374327E+02  0.11159518843E+03  0.89844171566E+02 0.  0.
        -11    1    3    3    0    0 -0.28886224778E+02  0.90572008282E+02  0.14365927145E+03  0.17226633141E+03  0.00000000000E+00 0.  1.
         12    1    3    3    0    0 -0.59397788260E+02  0.16384223752E+02  0.49567753025E+02  0.79079088122E+02  0.00000000000E+00 0. -1.
        -11    1    4    4    0    0  0.24051084072E+02 -0.46965999974E+01  0.29042501079E+01  0.24676858901E+02  0.00000000000E+00 0. -1.
         11    1    4    4    0    0 -0.66536425062E+02  0.34906732066E+02 -0.43694624435E+02  0.86918329529E+02  0.00000000000E+00 0.  1.
         21    1    1    2  503  502 -0.30596000498E+02  0.68360419442E+01  0.10069792904E+03  0.10546525318E+03  0.00000000000E+00 0.  1.
          1    1    1    2  501    0  0.16136535453E+03 -0.14400240605E+03 -0.23694807062E+03  0.32081125099E+03  0.00000000000E+00 0. -1.
<scales pt_clust_5="13000.00000" pt_clust_6="13000.00000" pt_clust_7="13000.00000" pt_clust_8="13000.00000" pt_clust_9="31.35039" pt_clust_10="13000.00000"></scales>
<clustering>
<clus scale="   31.350">  1  9  2 -1</clus>
<clus scale="   81.266">  5  6 -1 -1</clus>
<clus scale="   89.844">  7  8 -1 -1</clus>
<clus scale="  177.402">  2  5  1 -1</clus>
<clus scale="   91.041">  7 10 -1 -1</clus>
<clus scale="   31.350">  1  5  2 -1</clus>
</clustering>
</event>
<event>
10    4  0.2759992E-005  0.6415873E+03  0.7546771E-02  0.1022104E+00
         21   -1    0    0  501  502  0.00000000000E+00  0.00000000000E+00  0.40732605132E+03  0.40732605132E+03  0.00000000000E+00 0.  1.
          2   -1    0    0  503    0 -0.00000000000E+00 -0.00000000000E+00 -0.47842817877E+03  0.47842817877E+03  0.00000000000E+00 0. -1.
         24    2    1    2    0    0 -0.84521924250E+02  0.14308415260E+03  0.23353380351E+02  0.18823181904E+03  0.85257298352E+02 0.  0.
         23    2    1    2    0    0 -0.23834957987E+03  0.41874217471E+02 -0.48747766970E+01  0.25884671318E+03  0.91727232399E+02 0.  0.
        -11    1    3    3    0    0 -0.10188267389E+03  0.12823819621E+03  0.17998973114E+02  0.16476977041E+03  0.00000000000E+00 0.  1.
         12    1    3    3    0    0  0.17360749644E+02  0.14845956391E+02  0.53544072367E+01  0.23462048636E+02  0.00000000000E+00 0. -1.
        -11    1    4    4    0    0 -0.12232197953E+03 -0.24865648800E+02  0.16528174202E+01  0.12483468657E+03  0.00000000000E+00 0.  1.
         11    1    4    4    0    0 -0.11602760034E+03  0.66739866272E+02 -0.65275941172E+01  0.13401202661E+03  0.00000000000E+00 0. -1.
         21    1    1    2  503  502 -0.13320725008E+02 -0.22148466566E+02  0.36241953432E+02  0.44513767248E+02  0.00000000000E+00 0.  1.
          1    1    1    2  501    0  0.33619222913E+03 -0.16280990351E+03 -0.12582268453E+03  0.39416193062E+03  0.00000000000E+00 0. -1.
<scales pt_clust_5="13000.00000" pt_clust_6="13000.00000" pt_clust_7="13000.00000" pt_clust_8="13000.00000" pt_clust_9="25.84562" pt_clust_10="13000.00000"></scales>
<clustering>
<clus scale="   25.846">  1  9  2 -1</clus>
<clus scale="   85.257">  5  6 -1 -1</clus>
<clus scale="   91.727">  7  8 -1 -1</clus>
<clus scale="  183.748">  2  5  1 -1</clus>
<clus scale="  285.342">  7 10 -1 -1</clus>
<clus scale="   25.846">  1  5  2 -1</clus>
</clustering>
</event>
<event>
10    4  0.2759992E-005  0.2449887E+03  0.7546771E-02  0.1147467E+00
         21   -1    0    0  503  502  0.00000000000E+00  0.00000000000E+00  0.11102388069E+03  0.11102388069E+03  0.00000000000E+00 0. -1.
          4   -1    0    0  502    0 -0.00000000000E+00 -0.00000000000E+00 -0.40119434143E+03  0.40119434143E+03  0.00000000000E+00 0. -1.
         24    2    1    2    0    0  0.89569783921E+02 -0.24233329033E+02 -0.34146637093E+02  0.12788072107E+03  0.81101698933E+02 0.  0.
         23    2    1    2    0    0 -0.31708487764E+02 -0.97597718106E+02 -0.19373920494E+03  0.23226899800E+03  0.76702445362E+02 0.  0.
        -13    1    3    3    0    0  0.36502688653E+02 -0.16312119426E+02 -0.56948121980E+02  0.69581751315E+02  0.00000000000E+00 0.  1.
         14    1    3    3    0    0  0.53067095268E+02 -0.79212096064E+01  0.22801484887E+02  0.58298969758E+02  0.00000000000E+00 0. -1.
        -11    1    4    4    0    0 -0.53044045323E+02 -0.50124439805E+02 -0.13732527103E+03  0.15551321575E+03  0.00000000000E+00 0. -1.
         11    1    4    4    0    0  0.21335557559E+02 -0.47473278301E+02 -0.56413933908E+02  0.76755782244E+02  0.00000000000E+00 0.  1.
         21    1    1    2  503  501 -0.18167577405E+02  0.27682848561E+02 -0.14249656481E+01  0.33142593446E+02  0.00000000000E+00 0. -1.
          3    1    1    2  501    0 -0.39693718753E+02  0.94148198578E+02 -0.60859653067E+02  0.11892590960E+03  0.00000000000E+00 0. -1.
<scales pt_clust_5="13000.00000" pt_clust_6="13000.00000" pt_clust_7="13000.00000" pt_clust_8="13000.00000" pt_clust_9="33.11195" pt_clust_10="13000.00000"></scales>
<clustering>
<clus scale="   33.112">  1  9  2 -1</clus>
<clus scale="   76.702">  7  8 -1 -1</clus>
<clus scale="   81.102">  5  6 -1 -1</clus>
<clus scale="  112.124">  7 10 -1 -1</clus>
<clus scale="  114.847">  2  5  1 -1</clus>
<clus scale="   33.112">  1  5  2 -1</clus>
</clustering>
</event>
<event>
10    4  0.2759992E-005  0.2622851E+03  0.7546771E-02  0.1144147E+00
         21   -1    0    0  501  502  0.00000000000E+00  0.00000000000E+00  0.20299654648E+03  0.20299654648E+03  0.00000000000E+00 0. -1.
          2   -1    0    0  503    0 -0.00000000000E+00 -0.00000000000E+00 -0.87533830579E+03  0.87533830579E+03  0.00000000000E+00 0. -1.
         24    2    1    2    0    0  0.38278129389E+02 -0.50243266980E+02 -0.61526252662E+03  0.62368067120E+03  0.80249622448E+02 0.  0.
         23    2    1    2    0    0 -0.55523350284E+02  0.27887925052E+02 -0.23454677840E+03  0.25924834268E+03  0.91306807729E+02 0.  0.
        -11    1    3    3    0    0 -0.21687636972E+02 -0.33210883582E+02 -0.22452080953E+03  0.22799761029E+03  0.00000000000E+00 0.  1.
         12    1    3    3    0    0  0.59965766361E+02 -0.17032383399E+02 -0.39074171709E+03  0.39568306092E+03  0.00000000000E+00 0. -1.
        -11    1    4    4    0    0 -0.25666393238E+02  0.51734146233E+02 -0.72148874417E+02  0.92415613983E+02  0.00000000000E+00 0.  1.
         11    1    4    4    0    0 -0.29856957046E+02 -0.23846221181E+02 -0.16239790398E+03  0.16683272870E+03  0.00000000000E+00 0. -1.
         21    1    1    2  503  502 -0.21969127406E+02  0.10964884996E+02  0.13211936741E+03  0.13438154079E+03  0.00000000000E+00 0. -1.
          1    1    1    2  501    0  0.39214348301E+02  0.11390456933E+02  0.45348178300E+02  0.61024297595E+02  0.00000000000E+00 0. -1.
<scales pt_clust_5="13000.00000" pt_clust_6="13000.00000" pt_clust_7="13000.00000" pt_clust_8="13000.00000" pt_clust_9="24.55344" pt_clust_10="13000.00000"></scales>
<clustering>
<clus scale="   24.553">  1  9  2 -1</clus>
<clus scale="   80.250">  5  6 -1 -1</clus>
<clus scale="   91.307">  7  8 -1 -1</clus>
<clus scale="   29.911">  7 10 -1 -1</clus>
<clus scale="  101.310">  2  5  1 -1</clus>
<clus scale="   24.553">  1  5  2 -1</clus>
</clustering>
</event>
<event>
10    4  0.2759992E-005  0.1823606E+03  0.7546771E-02  0.1194914E+00
         -3   -1    0    0    0  501 -0.00000000000E+00  0.00000000000E+00  0.11357553047E+04  0.11357553047E+04  0.00000000000E+00 0.  1.
         21   -1    0    0  503  502  0.00000000000E+00 -0.00000000000E+00 -0.34086857904E+02  0.34086857904E+02  0.00000000000E+00 0. -1.
         24    2    1    2    0    0  0.49169835841E+02  0.96301653642E+01  0.80884503705E+03  0.81443020881E+03  0.80968254383E+02 0.  0.
         23    2    1    2    0    0 -0.80077691634E+02  0.88868335000E+01  0.16898939767E+03  0.20884250773E+03  0.92554654146E+02 0.  0.
        -11    1    3    3    0    0  0.50363091402E+02 -0.11129471551E+02  0.25339322454E+03  0.25858931215E+03  0.00000000000E+00 0.  1.
         12    1    3    3    0    0 -0.11932555606E+01  0.20759636915E+02  0.55545181251E+03  0.55584089666E+03  0.00000000000E+00 0. -1.
        -11    1    4    4    0    0 -0.49667050633E+02 -0.10768078846E+02  0.18540055199E+02  0.54097144910E+02  0.00000000000E+00 0. -1.
         11    1    4    4    0    0 -0.30410641001E+02  0.19654912346E+02  0.15044934247E+03  0.15474536282E+03  0.00000000000E+00 0.  1.
         21    1    1    2  503  501 -0.21716780480E+02 -0.86271021115E+00  0.47010405262E+02  0.51791321920E+02  0.00000000000E+00 0.  1.
         -4    1    1    2    0  502  0.52624636272E+02 -0.17654288653E+02  0.76823606768E+02  0.94778124098E+02  0.00000000000E+00 0.  1.
<scales pt_clust_5="13000.00000" pt_clust_6="13000.00000" pt_clust_7="13000.00000" pt_clust_8="13000.00000" pt_clust_9="21.73391" pt_clust_10="13000.00000"></scales>
<clustering>
<clus scale="   21.734">  2  9  1 -1</clus>
<clus scale="   80.968">  5  6 -1 -1</clus>
<clus scale="   92.555">  7  8 -1 -1</clus>
<clus scale="   49.801">  7 10 -1 -1</clus>
<clus scale="   94.235">  1  5  2 -1</clus>
<clus scale="   21.734">  2  5  1 -1</clus>
</clustering>
</event>
<event>
10    4  0.2759992E-005  0.5758391E+03  0.7546771E-02  0.1019805E+00
         21   -1    0    0  501  502  0.00000000000E+00  0.00000000000E+00  0.26454037317E+03  0.26454037317E+03  0.00000000000E+00 0. -1.
          2   -1    0    0  503    0 -0.00000000000E+00 -0.00000000000E+00 -0.18449735513E+04  0.18449735513E+04  0.00000000000E+00 0. -1.
         24    2    1    2    0    0 -0.17087737075E+02 -0.26030298721E+03 -0.71667882071E+03  0.76670873639E+03  0.78511900245E+02 0.  0.
         23    2    1    2    0    0  0.23957634958E+02 -0.34006989255E+03 -0.48666392573E+03  0.60153626790E+03  0.93715553171E+02 0.  0.
        -11    1    3    3    0    0  0.23492274229E+02 -0.18083053566E+03 -0.45220317809E+03  0.48758515549E+03  0.00000000000E+00 0.  1.
         12    1    3    3    0    0 -0.40580011304E+02 -0.79472451556E+02 -0.26447564262E+03  0.27912358090E+03  0.00000000000E+00 0. -1.
        -13    1    4    4    0    0  0.16478104298E+02 -0.12453020118E+02 -0.96339291804E+01  0.22790748622E+02  0.00000000000E+00 0.  1.
         13    1    4    4    0    0  0.74795306596E+01 -0.32761687244E+03 -0.47702999655E+03  0.57874551928E+03  0.00000000000E+00 0. -1.
         21    1    1    2  503  502  0.72099657337E+02  0.52168454301E+03 -0.30725139731E+03  0.60971841383E+03  0.00000000000E+00 0. -1.
          1    1    1    2  501    0 -0.78969555221E+02  0.78688336752E+02 -0.69839034332E+02  0.13155050630E+03  0.00000000000E+00 0. -1.
<scales pt_clust_5="13000.00000" pt_clust_6="13000.00000" pt_clust_7="13000.00000" pt_clust_8="13000.00000" pt_clust_9="418.58892" pt_clust_10="13000.00000"></scales>
<clustering>
<clus scale="   78.512">  5  6 -1 -1</clus>
<clus scale="   93.716">  7  8 -1 -1</clus>
<clus scale="  111.481">  7 10 -1 -1</clus>
<clus scale="  272.422">  2  5  1 -1</clus>
<clus scale="  418.589">  1  9  2 -1</clus>
<clus scale="  418.589">  1  5  2 -1</clus>
</clustering>
</event>
<event>
10    4  0.2759992E-005  0.2314065E+03  0.7546771E-02  0.1139757E+00
         21   -1    0    0  503  502  0.00000000000E+00  0.00000000000E+00  0.58690208570E+02  0.58690208570E+02  0.00000000000E+00 0.  1.
          2   -1    0    0  502    0 -0.00000000000E+00 -0.00000000000E+00 -0.29610468529E+04  0.29610468529E+04  0.00000000000E+00 0. -1.
         24    2    1    2    0    0 -0.92817565071E+02  0.84116679071E+02 -0.16603493746E+04  0.16669929132E+04  0.80091266470E+02 0.  0.
         23    2    1    2    0    0  0.56699224328E+02 -0.11372417540E+03 -0.79694489402E+03  0.81204038356E+03  0.90224333247E+02 0.  0.
        -11    1    3    3    0    0 -0.68556494552E+01  0.38578308999E+02 -0.22786832970E+03  0.23121258948E+03  0.00000000000E+00 0.  1.
         12    1    3    3    0    0 -0.85961915616E+02  0.45538370071E+02 -0.14324810449E+04  0.14357803237E+04  0.00000000000E+00 0. -1.
        -11    1    4    4    0    0  0.26456853393E+02 -0.12155357138E+03 -0.61951441826E+03  0.63188080382E+03  0.00000000000E+00 0.  1.
         11    1    4    4    0    0  0.30242370934E+02  0.78293959796E+01 -0.17743047576E+03  0.18015957974E+03  0.00000000000E+00 0. -1.
         21    1    1    2  503  501 -0.87732214366E+02  0.96046804153E+02 -0.88209621104E+02  0.15717145823E+03  0.00000000000E+00 0.  1.
          1    1    1    2  501    0  0.12385055511E+03 -0.66439307821E+02 -0.35685275466E+03  0.38353230651E+03  0.00000000000E+00 0. -1.
<scales pt_clust_5="13000.00000" pt_clust_6="13000.00000" pt_clust_7="13000.00000" pt_clust_8="13000.00000" pt_clust_9="130.08432" pt_clust_10="13000.00000"></scales>
<clustering>
<clus scale="   80.091">  5  6 -1 -1</clus>
<clus scale="   90.224">  7  8 -1 -1</clus>
<clus scale="  130.084">  1  9  2 -1</clus>
<clus scale="   76.709">  7 10 -1 -1</clus>
<clus scale="  163.938">  2  5  1 -1</clus>
<clus scale="  130.084">  1  5  2 -1</clus>
</clustering>
</event>
<event>
10    4  0.2759992E-005  0.3490262E+03  0.7546771E-02  0.1094578E+00
         21   -1    0    0  501  502  0.00000000000E+00  0.00000000000E+00  0.83112957074E+03  0.83112957074E+03  0.00000000000E+00 0. -1.
         -1   -1    0    0    0  501 -0.00000000000E+00 -0.00000000000E+00 -0.18483640119E+03  0.18483640119E+03  0.00000000000E+00 0.  1.
         24    2    1    2    0    0  0.70999302636E+02  0.13085564449E+03  0.45150853501E+03  0.48232016241E+03  0.81293795681E+02 0.  0.
         23    2    1    2    0    0 -0.13004412434E+03 -0.45949637555E+02  0.14570934833E+03  0.22254299174E+03  0.96287722577E+02 0.  0.
        -11    1    3    3    0    0  0.21618578775E+02  0.28058579268E+02  0.32508749467E+02  0.48077703884E+02  0.00000000000E+00 0.  1.
         12    1    3    3    0    0  0.49380723861E+02  0.10279706522E+03  0.41899978554E+03  0.43424245853E+03  0.00000000000E+00 0. -1.
        -11    1    4    4    0    0 -0.12107030255E+03 -0.82373238816E+00  0.11665152433E+03  0.16812577085E+03  0.00000000000E+00 0.  1.
         11    1    4    4    0    0 -0.89738217847E+01 -0.45125905166E+02  0.29057823991E+02  0.54417220892E+02  0.00000000000E+00 0. -1.
         21    1    1    2  503  502  0.30568638451E+02 -0.66688162816E+02  0.17020648539E+03  0.18534292645E+03  0.00000000000E+00 0. -1.
         -2    1    1    2    0  503  0.28476183248E+02 -0.18217844121E+02 -0.12113119917E+03  0.12575989134E+03  0.00000000000E+00 0.  1.
<scales pt_clust_5="13000.00000" pt_clust_6="13000.00000" pt_clust_7="13000.00000" pt_clust_8="13000.00000" pt_clust_9="73.36043" pt_clust_10="13000.00000"></scales>
<clustering>
<clus scale="   73.360">  1  9  2 -1</clus>
<clus scale="   81.294">  5  6 -1 -1</clus>
<clus scale="   96.288">  7  8 -1 -1</clus>
<clus scale="   34.024">  7 10 -1 -1</clus>
<clus scale="  148.831">  2  5  1 -1</clus>
<clus scale="   73.360">  1  5  2 -1</clus>
</clustering>
</event>
<event>
10    4  0.2759992E-005  0.3566431E+03  0.7546771E-02  0.1105228E+00
         21   -1    0    0  503  502  0.00000000000E+00  0.00000000000E+00  0.79034361496E+02  0.79034361496E+02  0.00000000000E+00 0.  1.
          2   -1    0    0  502    0 -0.00000000000E+00 -0.00000000000E+00 -0.11075358204E+04  0.11075358204E+04  0.00000000000E+00 0. -1.
         24    2    1    2    0    0  0.40177717782E+02 -0.53369839001E+02 -0.36671391048E+03  0.38127989928E+03  0.80203994505E+02 0.  0.
         23    2    1    2    0    0 -0.16067694091E+03 -0.28283440802E+01 -0.18710924036E+03  0.26489624372E+03  0.96618182742E+02 0.  0.
        -11    1    3    3    0    0 -0.24750830054E+02 -0.14005843085E+02 -0.10256026800E+03  0.10643014517E+03  0.00000000000E+00 0.  1.
         12    1    3    3    0    0  0.64928547836E+02 -0.39363995916E+02 -0.26415364248E+03  0.27484975411E+03  0.00000000000E+00 0. -1.
        -11    1    4    4    0    0 -0.33567899728E+02 -0.24617746508E+02 -0.52578485194E+01  0.41958101796E+02  0.00000000000E+00 0.  1.
         11    1    4    4    0    0 -0.12710904118E+03  0.21789402427E+02 -0.18185139184E+03  0.22293814192E+03  0.00000000000E+00 0. -1.
         21    1    1    2  503  501  0.27915882774E+02  0.19520167917E+01  0.19881222289E+02  0.34327392565E+02  0.00000000000E+00 0.  1.
          1    1    1    2  501    0  0.92583340355E+02  0.54246166289E+02 -0.49455953032E+03  0.50606664631E+03  0.00000000000E+00 0. -1.
<scales pt_clust_5="13000.00000" pt_clust_6="13000.00000" pt_clust_7="13000.00000" pt_clust_8="13000.00000" pt_clust_9="27.98405" pt_clust_10="13000.00000"></scales>
<clustering>
<clus scale="   27.984">  1  9  2 -1</clus>
<clus scale="   80.204">  5  6 -1 -1</clus>
<clus scale="   96.618">  7  8 -1 -1</clus>
<clus scale="  105.811">  2  5  1 -1</clus>
<clus scale="  128.915">  7 10 -1 -1</clus>
<clus scale="   27.984">  1  5  2 -1</clus>
</clustering>
</event>
<event>
10    4  0.2759992E-005  0.4580123E+03  0.7546771E-02  0.1047177E+00
         21   -1    0    0  501  502  0.00000000000E+00  0.00000000000E+00  0.17060743288E+03  0.17060743288E+03  0.00000000000E+00 0.  1.
          2   -1    0    0  503    0 -0.00000000000E+00 -0.00000000000E+00 -0.18958743677E+04  0.18958743677E+04  0.00000000000E+00 0. -1.
         24    2    1    2    0    0 -0.21634895181E+03 -0.26378104500E+01 -0.86117373767E+03  0.89169353883E+03  0.81751659053E+02 0.  0.
         23    2    1    2    0    0  0.20148494621E+03  0.14109004603E+03 -0.32663889826E+03  0.41859691817E+03  0.89598132854E+02 0.  0.
        -13    1    3    3    0    0 -0.19924925676E+03  0.22460342646E+02 -0.76481786704E+03  0.79066497523E+03  0.00000000000E+00 0.  1.
         14    1    3    3    0    0 -0.17099695046E+02 -0.25098153096E+02 -0.96355870624E+02  0.10102856360E+03  0.00000000000E+00 0. -1.
        -13    1    4    4    0    0  0.80537881647E+02  0.43885524816E+02 -0.58465499767E+02  0.10876812185E+03  0.00000000000E+00 0. -1.
         13    1    4    4    0    0  0.12094706457E+03  0.97204521209E+02 -0.26817339849E+03  0.30982879632E+03  0.00000000000E+00 0.  1.
         21    1    1    2  503  502 -0.52116861024E+02  0.14584660668E+02  0.91020034164E+02  0.10589393821E+03  0.00000000000E+00 0.  1.
          1    1    1    2  501    0  0.66980866618E+02 -0.15303689624E+03 -0.62847433309E+03  0.65029740539E+03  0.00000000000E+00 0. -1.
<scales pt_clust_5="13000.00000" pt_clust_6="13000.00000" pt_clust_7="13000.00000" pt_clust_8="13000.00000" pt_clust_9="54.11912" pt_clust_10="13000.00000"></scales>
<clustering>
<clus scale="   54.119">  1  9  2 -1</clus>
<clus scale="   81.752">  5  6 -1 -1</clus>
<clus scale="   89.598">  7  8 -1 -1</clus>
<clus scale="  161.996">  7 10 -1 -1</clus>
<clus scale="  241.623">  2  5  1 -1</clus>
<clus scale="   54.119">  1  5  2 -1</clus>
</clustering>
</event>
<event>
10    4  0.2759992E-005  0.3269783E+03  0.7546771E-02  0.1089730E+00
         21   -1    0    0  501  502  0.00000000000E+00  0.00000000000E+00  0.23483040540E+04  0.23483040540E+04  0.00000000000E+00 0. -1.
          2   -1    0    0  503    0 -0.00000000000E+00 -0.00000000000E+00 -0.31219660721E+03  0.31219660721E+03  0.00000000000E+00 0. -1.
         24    2    1    2    0    0  0.57208914227E+02 -0.18071858290E+03 -0.54850212167E+02  0.21284482781E+03  0.79764082628E+02 0.  0.
         23    2    1    2    0    0 -0.76551853815E+02 -0.10331726986E+02 -0.85465363467E+02  0.14774735720E+03  0.92509579514E+02 0.  0.
        -13    1    3    3    0    0  0.23839836263E+02 -0.13364695399E+02 -0.29686140922E+02  0.40351206165E+02  0.00000000000E+00 0.  1.
         14    1    3    3    0    0  0.33369077964E+02 -0.16735388750E+03 -0.25164071245E+02  0.17249362164E+03  0.00000000000E+00 0. -1.
        -11    1    4    4    0    0  0.10684970418E+02 -0.26073058072E+02 -0.62451640275E+01  0.28861306689E+02  0.00000000000E+00 0. -1.
         11    1    4    4    0    0 -0.87236824234E+02  0.15741331086E+02 -0.79220199440E+02  0.11888605051E+03  0.00000000000E+00 0.  1.
         21    1    1    2  503  502  0.16515589827E+03  0.20668564637E+03  0.21295927534E+04  0.21459638213E+04  0.00000000000E+00 0. -1.
          1    1    1    2  501    0 -0.14581295868E+03 -0.15635336480E+02  0.46830269027E+02  0.15394465487E+03  0.00000000000E+00 0. -1.
<scales pt_clust_5="13000.00000" pt_clust_6="13000.00000" pt_clust_7="13000.00000" pt_clust_8="13000.00000" pt_clust_9="259.82645" pt_clust_10="13000.00000"></scales>
<clustering>
<clus scale="   79.764">  5  6 -1 -1</clus>
<clus scale="   92.510">  7  8 -1 -1</clus>
<clus scale="  146.649">  7 10 -1 -1</clus>
<clus scale="  205.656">  2  5  1 -1</clus>
<clus scale="  259.826">  1  9  2 -1</clus>
<clus scale="  259.826">  1  5  2 -1</clus>
</clustering>
</event>
<event>
10    4  0.2759992E-005  0.3010955E+03  0.7546771E-02  0.1118950E+00
         21   -1    0    0  503  502  0.00000000000E+00  0.00000000000E+00  0.12646218073E+03  0.12646218073E+03  0.00000000000E+00 0. -1.
          2   -1    0    0  502    0 -0.00000000000E+00 -0.00000000000E+00 -0.19943984591E+04  0.19943984591E+04  0.00000000000E+00 0. -1.
         24    2    1    2    0    0  0.72501807446E+02  0.58425603896E+02 -0.10746541397E+04  0.10817998566E+04  0.82093522844E+02 0.  0.
         23    2    1    2    0    0 -0.96879839858E+01  0.97421751665E+02 -0.36884137160E+03  0.39249312990E+03  0.91771699796E+02 0.  0.
        -11    1    3    3    0    0  0.78208322116E+01  0.41446385832E+02 -0.19016172251E+03  0.19478308197E+03  0.00000000000E+00 0.  1.
         12    1    3    3    0    0  0.64680975235E+02  0.16979218063E+02 -0.88449241718E+03  0.88701677462E+03  0.00000000000E+00 0. -1.
        -13    1    4    4    0    0 -0.45278625370E+02  0.48441488258E+02 -0.25584812472E+03  0.26430095464E+03  0.00000000000E+00 0.  1.
         13    1    4    4    0    0  0.35590641385E+02  0.48980263407E+02 -0.11299324687E+03  0.12819217525E+03  0.00000000000E+00 0. -1.
         21    1    1    2  503  501 -0.40570212369E+02 -0.28168920553E+03 -0.10643841524E+03  0.30384846039E+03  0.00000000000E+00 0. -1.
          1    1    1    2  501    0 -0.22243611092E+02  0.12584184997E+03 -0.31800235181E+03  0.34271919292E+03  0.00000000000E+00 0. -1.
<scales pt_clust_5="13000.00000" pt_clust_6="13000.00000" pt_clust_7="13000.00000" pt_clust_8="13000.00000" pt_clust_9="269.70709" pt_clust_10="13000.00000"></scales>
<clustering>
<clus scale="   82.094">  5  6 -1 -1</clus>
<clus scale="   91.772">  7  8 -1 -1</clus>
<clus scale="  124.135">  2  5  1 -1</clus>
<clus scale="  146.961">  7 10 -1 -1</clus>
<clus scale="  269.707">  1  9  2 -1</clus>
<clus scale="  269.707">  1  5  2 -1</clus>
</clustering>
</event>
<event>
10    4  0.2759992E-005  0.1483783E+03  0.7546771E-02  0.1214294E+00
          2   -1    0    0  503    0 -0.00000000000E+00  0.00000000000E+00  0.78071073149E+03  0.78071073149E+03  0.00000000000E+00 0. -1.
         21   -1    0    0  501  502  0.00000000000E+00 -0.00000000000E+00 -0.10673463321E+03  0.10673463321E+03  0.00000000000E+00 0. -1.
         24    2    1    2    0    0  0.64631361116E+02  0.12723083036E+02  0.15392232022E+03  0.18558540083E+03  0.80067288317E+02 0.  0.
         23    2    1    2    0    0 -0.41031684506E+02 -0.42380380870E+02  0.38269913182E+03  0.39793921232E+03  0.91745819466E+02 0.  0.
        -13    1    3    3    0    0  0.66215699168E+02 -0.19051537977E+02  0.83127211306E+02  0.10797042732E+03  0.00000000000E+00 0.  1.
         14    1    3    3    0    0 -0.15843380514E+01  0.31774621013E+02  0.70795108915E+02  0.77614973516E+02  0.00000000000E+00 0. -1.
        -13    1    4    4    0    0 -0.47978173500E+02 -0.63257276716E+02  0.34730184546E+03  0.35626108411E+03  0.00000000000E+00 0. -1.
         13    1    4    4    0    0  0.69464889936E+01  0.20876895847E+02  0.35397286359E+02  0.41678128210E+02  0.00000000000E+00 0.  1.
         21    1    1    2  503  502  0.20800572352E+02  0.27206345087E+02 -0.77385469077E+02  0.84624818153E+02  0.00000000000E+00 0. -1.
          1    1    1    2  501    0 -0.44400248962E+02  0.24509527469E+01  0.21474011532E+03  0.21929593340E+03  0.00000000000E+00 0. -1.
<scales pt_clust_5="13000.00000" pt_clust_6="13000.00000" pt_clust_7="13000.00000" pt_clust_8="13000.00000" pt_clust_9="34.24688" pt_clust_10="13000.00000"></scales>
<clustering>
<clus scale="   34.247">  2  9  1 -1</clus>
<clus scale="   80.067">  5  6 -1 -1</clus>
<clus scale="   91.746">  7  8 -1 -1</clus>
<clus scale="   42.835">  7 10 -1 -1</clus>
<clus scale="  115.214">  1  5  2 -1</clus>
<clus scale="   34.247">  2  5  1 -1</clus>
</clustering>
</event>
<event>
10    4  0.2759992E-005  0.2317465E+03  0.7546771E-02  0.1145610E+00
         -1   -1    0    0    0  501 -0.00000000000E+00  0.00000000000E+00  0.53458359698E+03  0.53458359698E+03  0.00000000000E+00 0.  1.
         21   -1    0    0  503  502  0.00000000000E+00 -0.00000000000E+00 -0.40494512878E+03  0.40494512878E+03  0.00000000000E+00 0.  1.
         24    2    1    2    0    0 -0.53838353270E+02 -0.82444918317E+02  0.44937076447E+02  0.13971958399E+03  0.88354334759E+02 0.  0.
         23    2    1    2    0    0 -0.57293660593E+02  0.16333954334E+02  0.16503751564E+03  0.19764414428E+03  0.90975076752E+02 0.  0.
        -13    1    3    3    0    0 -0.71865391158E+02 -0.77369291758E+02  0.18319742494E+02  0.10717394608E+03  0.00000000000E+00 0.  1.
         14    1    3    3    0    0  0.18027037888E+02 -0.50756265592E+01  0.26617333953E+02  0.32545637906E+02  0.00000000000E+00 0. -1.
        -13    1    4    4    0    0 -0.34059384587E+02 -0.34717468338E+02  0.10363531103E+03  0.11447978851E+03  0.00000000000E+00 0. -1.
         13    1    4    4    0    0 -0.23234276006E+02  0.51051422672E+02  0.61402204613E+02  0.83164355765E+02  0.00000000000E+00 0.  1.
         21    1    1    2  503  501  0.39862078425E+02 -0.40897446308E+02 -0.32275126072E+03  0.32776510294E+03  0.00000000000E+00 0.  1.
         -2    1    1    2    0  502  0.71269935438E+02  0.10700841029E+03  0.24241513683E+03  0.27439989456E+03  0.00000000000E+00 0.  1.
<scales pt_clust_5="13000.00000" pt_clust_6="13000.00000" pt_clust_7="13000.00000" pt_clust_8="13000.00000" pt_clust_9="57.11030" pt_clust_10="13000.00000"></scales>
<clustering>
<clus scale="   57.110">  2  9  1 -1</clus>
<clus scale="   88.354">  5  6 -1 -1</clus>
<clus scale="   90.975">  7  8 -1 -1</clus>
<clus scale="  126.670">  7 10 -1 -1</clus>
<clus scale="  141.823">  1  5  2 -1</clus>
<clus scale="   57.110">  2  5  1 -1</clus>
</clustering>
</event>
<event>
10    4  0.2759992E-005  0.2064504E+03  0.7546771E-02  0.1180632E+00
         21   -1    0    0  503  502  0.00000000000E+00  0.00000000000E+00  0.18602956714E+03  0.18602956714E+03  0.00000000000E+00 0.  1.
          4   -1    0    0  502    0 -0.00000000000E+00 -0.00000000000E+00 -0.25079245504E+03  0.25079245504E+03  0.00000000000E+00 0. -1.
         24    2    1    2    0    0  0.51971704510E+01  0.36617764345E+02 -0.16083374432E+03  0.18411501057E+03  0.81627033245E+02 0.  0.
         23    2    1    2    0    0 -0.61110250369E+01  0.64432756914E+02  0.88596474775E+02  0.14540451116E+03  0.95415993064E+02 0.  0.
        -13    1    3    3    0    0 -0.32838771395E+02  0.70756409035E+01 -0.31286905532E+02  0.45905555859E+02  0.00000000000E+00 0.  1.
         14    1    3    3    0    0  0.38035941846E+02  0.29542123441E+02 -0.12954683879E+03  0.13820945471E+03  0.00000000000E+00 0. -1.
        -11    1    4    4    0    0  0.13366446948E+02 -0.22370253804E+02  0.15981699823E+02  0.30569672692E+02  0.00000000000E+00 0. -1.
         11    1    4    4    0    0 -0.19477471985E+02  0.86803010718E+02  0.72614774952E+02  0.11483483847E+03  0.00000000000E+00 0.  1.
         21    1    1    2  503  501  0.12017629731E+02 -0.19366168530E+02 -0.64776816861E+01  0.23694561990E+02  0.00000000000E+00 0.  1.
          3    1    1    2  501    0 -0.11103775145E+02 -0.81684352730E+02  0.13952063337E+02  0.83607938467E+02  0.00000000000E+00 0. -1.
<scales pt_clust_5="13000.00000" pt_clust_6="13000.00000" pt_clust_7="13000.00000" pt_clust_8="13000.00000" pt_clust_9="22.79194" pt_clust_10="13000.00000"></scales>
<clustering>
<clus scale="   22.792">  1  9  2 -1</clus>
<clus scale="   81.627">  5  6 -1 -1</clus>
<clus scale="   89.153">  2  5  1 -1</clus>
<clus scale="   95.416">  7  8 -1 -1</clus>
<clus scale="   68.350">  7 10 -1 -1</clus>
<clus scale="   22.792">  1  5  2 -1</clus>
</clustering>
</event>
<event>
10    4  0.2759992E-005  0.2230774E+03  0.7546771E-02  0.1157117E+00
         21   -1    0    0  503  502  0.00000000000E+00  0.00000000000E+00  0.14450003907E+03  0.14450003907E+03  0.00000000000E+00 0.  1.
         -1   -1    0    0    0  501 -0.00000000000E+00 -0.00000000000E+00 -0.28240367008E+03  0.28240367008E+03  0.00000000000E+00 0.  1.
         24    2    1    2    0    0 -0.86230588726E+02 -0.15636603984E+02 -0.50015511354E+02  0.12775902874E+03  0.78361982061E+02 0.  0.
         23    2    1    2    0    0  0.13694471639E+02  0.41465901114E+02  0.81544356295E+01  0.94024642854E+02  0.82868444746E+02 0.  0.
        -13    1    3    3    0    0 -0.43077836375E+02  0.31714562366E+02 -0.23290578655E+02  0.58343504411E+02  0.00000000000E+00 0.  1.
         14    1    3    3    0    0 -0.43152752351E+02 -0.47351166351E+02 -0.26724932699E+02  0.69415524330E+02  0.00000000000E+00 0. -1.
        -11    1    4    4    0    0 -0.28146487949E+02  0.64069021293E+01 -0.17449518494E+02  0.33730681499E+02  0.00000000000E+00 0. -1.
         11    1    4    4    0    0  0.41840959588E+02  0.35058998985E+02  0.25603954123E+02  0.60293961355E+02  0.00000000000E+00 0.  1.
         21    1    1    2  503  501 -0.16310932563E+02  0.23759177756E+02  0.31018396934E+02  0.42340122780E+02  0.00000000000E+00 0.  1.
         -2    1    1    2    0  502  0.88847049650E+02 -0.49588474886E+02 -0.12706095223E+03  0.16277991477E+03  0.00000000000E+00 0.  1.
<scales pt_clust_5="13000.00000" pt_clust_6="13000.00000" pt_clust_7="13000.00000" pt_clust_8="13000.00000" pt_clust_9="28.81918" pt_clust_10="13000.00000"></scales>
<clustering>
<clus scale="   28.819">  1  9  2 -1</clus>
<clus scale="   78.362">  5  6 -1 -1</clus>
<clus scale="   82.868">  7  8 -1 -1</clus>
<clus scale="   97.495">  7 10 -1 -1</clus>
<clus scale="  121.141">  2  5  1 -1</clus>
<clus scale="   28.819">  1  5  2 -1</clus>
</clustering>
</event>
<event>
10    4  0.2759992E-005  0.1055571E+04  0.7546771E-02  0.9898471E-01
         21   -1    0    0  503  502  0.00000000000E+00  0.00000000000E+00  0.44730423360E+03  0.44730423360E+03  0.00000000000E+00 0.  1.
          2   -1    0    0  502    0 -0.00000000000E+00 -0.00000000000E+00 -0.91419074293E+03  0.91419074293E+03  0.00000000000E+00 0. -1.
         24    2    1    2    0    0  0.22160014280E+01 -0.51755823813E+02 -0.18837938491E+02  0.11560667086E+03  0.10161918352E+03 0.  0.
         23    2    1    2    0    0  0.42190559303E+03 -0.11422461026E+03 -0.53545476635E+03  0.69723418849E+03  0.91499266525E+02 0.  0.
        -11    1    3    3    0    0 -0.11210644654E+02 -0.22609717337E+02  0.40747521818E+02  0.47929514977E+02  0.00000000000E+00 0.  1.
         12    1    3    3    0    0  0.13426646082E+02 -0.29146106476E+02 -0.59585460308E+02  0.67677155879E+02  0.00000000000E+00 0. -1.
        -13    1    4    4    0    0  0.19577711005E+03 -0.60443129698E+01 -0.23119866931E+03  0.30301490925E+03  0.00000000000E+00 0. -1.
         13    1    4    4    0    0  0.22612848297E+03 -0.10818029729E+03 -0.30425609705E+03  0.39421927924E+03  0.00000000000E+00 0.  1.
         21    1    1    2  503  501  0.29232044489E+02  0.27015726372E+02  0.62155795910E+02  0.73808569026E+02  0.00000000000E+00 0. -1.
          1    1    1    2  501    0 -0.45335363894E+03  0.13896470770E+03  0.25250399606E+02  0.47484554816E+03  0.00000000000E+00 0. -1.
<scales pt_clust_5="13000.00000" pt_clust_6="13000.00000" pt_clust_7="13000.00000" pt_clust_8="13000.00000" pt_clust_9="39.80404" pt_clust_10="13000.00000"></scales>
<clustering>
<clus scale="   39.804">  1  9  2 -1</clus>
<clus scale="   91.499">  7  8 -1 -1</clus>
<clus scale="  101.619">  5  6 -1 -1</clus>
<clus scale="  112.675">  2  5  1 -1</clus>
<clus scale="  456.021">  7 10 -1 -1</clus>
<clus scale="   39.804">  1  5  2 -1</clus>
</clustering>
</event>
<event>
10    4  0.2759992E-005  0.3366901E+03  0.7546771E-02  0.1077358E+00
          2   -1    0    0  502    0 -0.00000000000E+00  0.00000000000E+00  0.13522003376E+04  0.13522003376E+04  0.00000000000E+00 0. -1.
         21   -1    0    0  503  502  0.00000000000E+00 -0.00000000000E+00 -0.17190239685E+03  0.17190239685E+03  0.00000000000E+00 0. -1.
         24    2    1    2    0    0 -0.25773300198E+03  0.19649946786E+02  0.25886740831E+02  0.27222067277E+03  0.81372910817E+02 0.  0.
         23    2    1    2    0    0  0.37931635633E+02 -0.79760961602E+02  0.27192370800E+03  0.29969672226E+03  0.89861017044E+02 0.  0.
        -13    1    3    3    0    0 -0.14826564426E+03 -0.67419982439E+01  0.50840367756E+02  0.15688498590E+03  0.00000000000E+00 0.  1.
         14    1    3    3    0    0 -0.10946735772E+03  0.26391945030E+02 -0.24953626925E+02  0.11533568687E+03  0.00000000000E+00 0. -1.
        -11    1    4    4    0    0 -0.24529536256E+02 -0.50555206976E+02  0.10495197211E+03  0.11904807244E+03  0.00000000000E+00 0.  1.
         11    1    4    4    0    0  0.62461171890E+02 -0.29205754626E+02  0.16697173588E+03  0.18064864982E+03  0.00000000000E+00 0. -1.
         21    1    1    2  503  501  0.26363982313E+02  0.73840025482E+02  0.40681260701E+02  0.88331047196E+02  0.00000000000E+00 0. -1.
          1    1    1    2  501    0  0.19343738403E+03 -0.13729010665E+02  0.84180623126E+03  0.86385429226E+03  0.00000000000E+00 0. -1.
<scales pt_clust_5="13000.00000" pt_clust_6="13000.00000" pt_clust_7="13000.00000" pt_clust_8="13000.00000" pt_clust_9="78.40541" pt_clust_10="13000.00000"></scales>
<clustering>
<clus scale="   78.405">  2  9  1 -1</clus>
<clus scale="   81.373">  5  6 -1 -1</clus>
<clus scale="   89.861">  7  8 -1 -1</clus>
<clus scale="  195.574">  7 10 -1 -1</clus>
<clus scale="  262.292">  1  5  2 -1</clus>
<clus scale="   78.405">  2  5  1 -1</clus>
</clustering>
</event>
<event>
10    4  0.2759992E-005  0.5369468E+03  0.7546771E-02  0.1049473E+00
          2   -1    0    0  502    0 -0.00000000000E+00  0.00000000000E+00  0.26293148655E+04  0.26293148655E+04  0.00000000000E+00 0. -1.
         21   -1    0    0  503  502  0.00000000000E+00 -0.00000000000E+00 -0.60748764974E+02  0.60748764974E+02  0.00000000000E+00 0. -1.
         24    2    1    2    0    0  0.35323153438E+02 -0.10478037381E+03  0.11815310331E+04  0.11900773440E+04  0.89676366880E+02 0.  0.
         23    2    1    2    0    0  0.13396378090E+03  0.16843870034E+03  0.25716030200E+03  0.34771349979E+03  0.91953067651E+02 0.  0.
        -11    1    3    3    0    0  0.16095128043E+02 -0.44691564576E+02  0.16804887127E+03  0.17463336516E+03  0.00000000000E+00 0.  1.
         12    1    3    3    0    0  0.19228025396E+02 -0.60088809237E+02  0.10134821618E+04  0.10154439789E+04  0.00000000000E+00 0. -1.
        -11    1    4    4    0    0 -0.11207623444E+02  0.24929430093E+02  0.49358320324E+02  0.56421016414E+02  0.00000000000E+00 0.  1.
         11    1    4    4    0    0  0.14517140434E+03  0.14350927025E+03  0.20780198167E+03  0.29129248338E+03  0.00000000000E+00 0. -1.
         21    1    1    2  503  501 -0.28457450756E+02  0.25408248165E+02  0.73243585320E+02  0.82583463047E+02  0.00000000000E+00 0.  1.
          1    1    1    2  501    0 -0.14082948358E+03 -0.89066574690E+02  0.10566311801E+04  0.10696893236E+04  0.00000000000E+00 0. -1.
<scales pt_clust_5="13000.00000" pt_clust_6="13000.00000" pt_clust_7="13000.00000" pt_clust_8="13000.00000" pt_clust_9="38.14978" pt_clust_10="13000.00000"></scales>
<clustering>
<clus scale="   38.150">  2  9  1 -1</clus>
<clus scale="   89.676">  5  6 -1 -1</clus>
<clus scale="   91.953">  7  8 -1 -1</clus>
<clus scale="  140.421">  1  5  2 -1</clus>
<clus scale="  201.912">  7 10 -1 -1</clus>
<clus scale="   38.150">  2  5  1 -1</clus>
</clustering>
</event>
<event>
10    4  0.2759992E-005  0.2952365E+03  0.7546771E-02  0.1124641E+00
         21   -1    0    0  503  502  0.00000000000E+00  0.00000000000E+00  0.24840037216E+03  0.24840037216E+03  0.00000000000E+00 0.  1.
         -3   -1    0    0    0  501 -0.00000000000E+00 -0.00000000000E+00 -0.92522851806E+03  0.92522851806E+03  0.00000000000E+00 0.  1.
         24    2    1    2    0    0  0.64932711122E+02  0.40848320218E+02 -0.29460929922E+03  0.31468188973E+03  0.79656828331E+02 0.  0.
         23    2    1    2    0    0 -0.16959609157E+03 -0.80442972678E+02 -0.34682560750E+03  0.40472400665E+03  0.90992381035E+02 0.  0.
        -11    1    3    3    0    0  0.64259278916E+02 -0.45669403379E+01 -0.19043959755E+03  0.20104067297E+03  0.00000000000E+00 0.  1.
         12    1    3    3    0    0  0.67343220592E+00  0.45415260556E+02 -0.10416970166E+03  0.11364121676E+03  0.00000000000E+00 0. -1.
        -11    1    4    4    0    0 -0.14772031177E+02  0.18076981429E+02 -0.58093608082E+02  0.62608765063E+02  0.00000000000E+00 0. -1.
         11    1    4    4    0    0 -0.15482406039E+03 -0.98519954107E+02 -0.28873199942E+03  0.34211524158E+03  0.00000000000E+00 0.  1.
         21    1    1    2  503  501  0.40701619920E+02 -0.22840359059E+02  0.19845786493E+03  0.20387208739E+03  0.00000000000E+00 0.  1.
         -4    1    1    2    0  502  0.63961760525E+02  0.62435011519E+02 -0.23385110411E+03  0.25035090646E+03  0.00000000000E+00 0.  1.
<scales pt_clust_5="13000.00000" pt_clust_6="13000.00000" pt_clust_7="13000.00000" pt_clust_8="13000.00000" pt_clust_9="46.67230" pt_clust_10="13000.00000"></scales>
<clustering>
<clus scale="   46.672">  1  9  2 -1</clus>
<clus scale="   79.657">  5  6 -1 -1</clus>
<clus scale="   90.992">  7  8 -1 -1</clus>
<clus scale="   92.016">  7 10 -1 -1</clus>
<clus scale="  114.258">  2  5  1 -1</clus>
<clus scale="   46.672">  1  5  2 -1</clus>
</clustering>
</event>
<event>
10    4  0.2759992E-005  0.3279483E+03  0.7546771E-02  0.1107679E+00
          2   -1    0    0  503    0 -0.00000000000E+00  0.00000000000E+00  0.96921393889E+03  0.96921393889E+03  0.00000000000E+00 0. -1.
         21   -1    0    0  501  502  0.00000000000E+00 -0.00000000000E+00 -0.11230061609E+03  0.11230061609E+03  0.00000000000E+00 0.  1.
         24    2    1    2    0    0  0.62362224482E+02  0.63896817657E+02  0.10084551640E+03  0.15688634413E+03  0.80446606188E+02 0.  0.
         23    2    1    2    0    0  0.44160024055E+02  0.50086786467E+02  0.12734397386E+03  0.17020527208E+03  0.91074436938E+02 0.  0.
        -11    1    3    3    0    0  0.27026040551E+02  0.75124090587E+02  0.84851833096E+02  0.11650695015E+03  0.00000000000E+00 0.  1.
         12    1    3    3    0    0  0.35336183931E+02 -0.11227272930E+02  0.15993683308E+02  0.40379393978E+02  0.00000000000E+00 0. -1.
        -13    1    4    4    0    0 -0.26557441431E+01  0.28799817477E+02  0.11324449924E+03  0.11687942108E+03  0.00000000000E+00 0. -1.
         13    1    4    4    0    0  0.46815768198E+02  0.21286968990E+02  0.14099474617E+02  0.53325851003E+02  0.00000000000E+00 0.  1.
         21    1    1    2  503  502 -0.64547419486E+01  0.34192358646E+02 -0.45280228857E+02  0.57105868427E+02  0.00000000000E+00 0.  1.
          1    1    1    2  501    0 -0.10006750659E+03 -0.14817596277E+03  0.67400406139E+03  0.69731707034E+03  0.00000000000E+00 0. -1.
<scales pt_clust_5="13000.00000" pt_clust_6="13000.00000" pt_clust_7="13000.00000" pt_clust_8="13000.00000" pt_clust_9="34.79628" pt_clust_10="13000.00000"></scales>
<clustering>
<clus scale="   34.796">  2  9  1 -1</clus>
<clus scale="   80.447">  5  6 -1 -1</clus>
<clus scale="   91.074">  7  8 -1 -1</clus>
<clus scale="  127.799">  1  5  2 -1</clus>
<clus scale="   95.139">  7 10 -1 -1</clus>
<clus scale="   34.796">  2  5  1 -1</clus>
</clustering>
</event>
<event>
10    4  0.2759992E-005  0.2417044E+03  0.7546771E-02  0.1145767E+00
         -3   -1    0    0    0  501 -0.00000000000E+00  0.00000000000E+00  0.30960989637E+03  0.30960989637E+03  0.00000000000E+00 0.  1.
         21   -1    0    0  503  502  0.00000000000E+00 -0.00000000000E+00 -0.30082188464E+03  0.30082188464E+03  0.00000000000E+00 0.  1.
         24    2    1    2    0    0 -0.93874114509E+02  0.17610814865E+02  0.22780643803E+03  0.25986654770E+03  0.80699189782E+02 0.  0.
         23    2    1    2    0    0 -0.68933227368E+01 -0.79872898204E+02 -0.31334550247E+02  0.12558464257E+03  0.91446435924E+02 0.  0.
        -11    1    3    3    0    0 -0.92193741217E+02  0.27954948049E+02  0.22981966563E+03  0.24919519207E+03  0.00000000000E+00 0.  1.
         12    1    3    3    0    0 -0.16803732917E+01 -0.10344133184E+02 -0.20132275973E+01  0.10671355635E+02  0.00000000000E+00 0. -1.
        -11    1    4    4    0    0  0.15425774919E+02 -0.68170149595E+02 -0.56571765725E+02  0.89919344442E+02  0.00000000000E+00 0.  1.
         11    1    4    4    0    0 -0.22319097656E+02 -0.11702748610E+02  0.25237215478E+02  0.35665298124E+02  0.00000000000E+00 0. -1.
         21    1    1    2  503  501  0.16145360480E+02  0.27771088248E+02 -0.39872171890E+02  0.51202500903E+02  0.00000000000E+00 0.  1.
         -4    1    1    2    0  502  0.84622076765E+02  0.34490995091E+02 -0.14781170417E+03  0.17377808984E+03  0.00000000000E+00 0.  1.
<scales pt_clust_5="13000.00000" pt_clust_6="13000.00000" pt_clust_7="13000.00000" pt_clust_8="13000.00000" pt_clust_9="32.12329" pt_clust_10="13000.00000"></scales>
<clustering>
<clus scale="   32.123">  2  9  1 -1</clus>
<clus scale="   80.699">  5  6 -1 -1</clus>
<clus scale="   91.446">  7  8 -1 -1</clus>
<clus scale="  108.110">  7 10 -1 -1</clus>
<clus scale="  124.539">  1  5  2 -1</clus>
<clus scale="   32.123">  2  5  1 -1</clus>
</clustering>
</event>
<event>
10    4  0.2759992E-005  0.1654309E+03  0.7546771E-02  0.1207206E+00
         21   -1    0    0  503  502  0.00000000000E+00  0.00000000000E+00  0.86719983087E+02  0.86719983087E+02  0.00000000000E+00 0.  1.
          2   -1    0    0  502    0 -0.00000000000E+00 -0.00000000000E+00 -0.36437811521E+03  0.36437811521E+03  0.00000000000E+00 0. -1.
         24    2    1    2    0    0  0.26437920571E+02  0.54601295945E+02 -0.16016794386E+03  0.18895209032E+03  0.79805119093E+02 0.  0.
         23    2    1    2    0    0 -0.46085658106E+02 -0.56516155464E+01 -0.57396101770E+02  0.11819723449E+03  0.92306257112E+02 0.  0.
        -11    1    3    3    0    0 -0.19318929829E+02 -0.92791860757E+01 -0.29215104160E+02  0.36233225844E+02  0.00000000000E+00 0.  1.
         12    1    3    3    0    0  0.45756850400E+02  0.63880482021E+02 -0.13095283970E+03  0.15271886448E+03  0.00000000000E+00 0. -1.
        -13    1    4    4    0    0 -0.68067705300E+02  0.11452718197E+02 -0.20569831674E+02  0.72024268368E+02  0.00000000000E+00 0.  1.
         13    1    4    4    0    0  0.21982047194E+02 -0.17104333743E+02 -0.36826270096E+02  0.46172966125E+02  0.00000000000E+00 0. -1.
         21    1    1    2  503  501 -0.88027574258E+01 -0.18730315960E+02  0.34735826300E+02  0.40433784178E+02  0.00000000000E+00 0.  1.
          1    1    1    2  501    0  0.28450494961E+02 -0.30219364439E+02 -0.94829912794E+02  0.10351498931E+03  0.00000000000E+00 0. -1.
<scales pt_clust_5="13000.00000" pt_clust_6="13000.00000" pt_clust_7="13000.00000" pt_clust_8="13000.00000" pt_clust_9="20.69573" pt_clust_10="13000.00000"></scales>
<clustering>
<clus scale="   20.696">  1  9  2 -1</clus>
<clus scale="   79.805">  5  6 -1 -1</clus>
<clus scale="   92.306">  7  8 -1 -1</clus>
<clus scale="   42.211">  7 10 -1 -1</clus>
<clus scale="   96.698">  2  5  1 -1</clus>
<clus scale="   20.696">  1  5  2 -1</clus>
</clustering>
</event>
<event>
10    4  0.2759992E-005  0.3589500E+03  0.7546771E-02  0.1100567E+00
          2   -1    0    0  503    0 -0.00000000000E+00  0.00000000000E+00  0.84721753975E+03  0.84721753975E+03  0.00000000000E+00 0. -1.
         21   -1    0    0  501  502  0.00000000000E+00 -0.00000000000E+00 -0.13220380943E+03  0.13220380943E+03  0.00000000000E+00 0. -1.
         24    2    1    2    0    0 -0.42833514813E+02 -0.56389445718E+01  0.52435657860E+03  0.53712644902E+03  0.10811333422E+03 0.  0.
         23    2    1    2    0    0 -0.91519008743E+02  0.89084460442E+02  0.14524311217E+03  0.21358478240E+03  0.90615272365E+02 0.  0.
        -11    1    3    3    0    0 -0.18555792799E+02 -0.17191583717E+02  0.20517384034E+02  0.32570401359E+02  0.00000000000E+00 0.  1.
         12    1    3    3    0    0 -0.24277722015E+02  0.11552639146E+02  0.50383919456E+03  0.50455604767E+03  0.00000000000E+00 0. -1.
        -11    1    4    4    0    0 -0.72029020576E+02  0.76805912134E+01  0.75534268844E+02  0.10465465616E+03  0.00000000000E+00 0.  1.
         11    1    4    4    0    0 -0.19489988167E+02  0.81403869229E+02  0.69708843331E+02  0.10893012624E+03  0.00000000000E+00 0. -1.
         21    1    1    2  503  502 -0.31984547295E+02 -0.57284335643E+01  0.30404835871E+02  0.44500340011E+02  0.00000000000E+00 0. -1.
          1    1    1    2  501    0  0.16633707085E+03 -0.77717082306E+02  0.15009203673E+02  0.18420977774E+03  0.00000000000E+00 0. -1.
<scales pt_clust_5="13000.00000" pt_clust_6="13000.00000" pt_clust_7="13000.00000" pt_clust_8="13000.00000" pt_clust_9="32.49348" pt_clust_10="13000.00000"></scales>
<clustering>
<clus scale="   32.493">  2  9  1 -1</clus>
<clus scale="   90.615">  7  8 -1 -1</clus>
<clus scale="  108.113">  5  6 -1 -1</clus>
<clus scale="  117.051">  1  5  2 -1</clus>
<clus scale="  154.157">  7 10 -1 -1</clus>
<clus scale="   32.493">  2  5  1 -1</clus>
</clustering>
</event>
<event>
10    4  0.2759992E-005  0.6153171E+03  0.7546771E-02  0.1051576E+00
         21   -1    0    0  503  502  0.00000000000E+00  0.00000000000E+00  0.25869883451E+03  0.25869883451E+03  0.00000000000E+00 0.  1.
         -1   -1    0    0    0  501 -0.00000000000E+00 -0.00000000000E+00 -0.67752065290E+03  0.67752065290E+03  0.00000000000E+00 0.  1.
         24    2    1    2    0    0 -0.22506833128E+02  0.28101180309E+02 -0.41812862460E+02  0.97407393961E+02  0.80272355509E+02 0.  0.
         23    2    1    2    0    0 -0.14603904019E+03  0.13796032599E+03  0.44165064246E+02  0.22534385708E+03  0.92026345229E+02 0.  0.
        -13    1    3    3    0    0 -0.26865134119E+02  0.54740572416E+02 -0.29483051262E+02  0.67731204119E+02  0.00000000000E+00 0.  1.
         14    1    3    3    0    0  0.43583009916E+01 -0.26639392107E+02 -0.12329811198E+02  0.29676189842E+02  0.00000000000E+00 0. -1.
        -13    1    4    4    0    0 -0.62780226382E+02  0.73783115058E+02  0.66975100594E+02  0.11777507797E+03  0.00000000000E+00 0.  1.
         13    1    4    4    0    0 -0.83258813810E+02  0.64177210930E+02 -0.22810036348E+02  0.10756877910E+03  0.00000000000E+00 0. -1.
         21    1    1    2  503  501  0.53383141001E+02  0.30758532346E+02  0.56854309305E+02  0.83834715612E+02  0.00000000000E+00 0.  1.
         -2    1    1    2    0  502  0.11516273232E+03 -0.19682003864E+03 -0.47802832948E+03  0.52963352076E+03  0.00000000000E+00 0.  1.
<scales pt_clust_5="13000.00000" pt_clust_6="13000.00000" pt_clust_7="13000.00000" pt_clust_8="13000.00000" pt_clust_9="61.61045" pt_clust_10="13000.00000"></scales>
<clustering>
<clus scale="   61.610">  1  9  2 -1</clus>
<clus scale="   80.272">  5  6 -1 -1</clus>
<clus scale="   87.881">  2  5  1 -1</clus>
<clus scale="   92.026">  7  8 -1 -1</clus>
<clus scale="  198.667">  7 10 -1 -1</clus>
<clus scale="   61.610">  1  5  2 -1</clus>
</clustering>
</event>
<event>
10    4  0.2759992E-005  0.3582185E+03  0.7546771E-02  0.1062782E+00
         21   -1    0    0  503  502  0.00000000000E+00  0.00000000000E+00  0.25357881858E+03  0.25357881858E+03  0.00000000000E+00 0. -1.
          2   -1    0    0  502    0 -0.00000000000E+00 -0.00000000000E+00 -0.55981287222E+03  0.55981287222E+03  0.00000000000E+00 0. -1.
         24    2    1    2    0    0 -0.22439191312E+03 -0.20297691374E+03 -0.19207875126E+03  0.36695882356E+03  0.78823685015E+02 0.  0.
         23    2    1    2    0    0  0.10144392514E+03  0.13774285993E+03 -0.30776693747E+02  0.19609879701E+03  0.90794096194E+02 0.  0.
        -11    1    3    3    0    0 -0.38383864278E+02 -0.81613772661E+01 -0.46273410317E+02  0.60672544187E+02  0.00000000000E+00 0.  1.
         12    1    3    3    0    0 -0.18600804884E+03 -0.19481553648E+03 -0.14580534095E+03  0.30628627938E+03  0.00000000000E+00 0. -1.
        -13    1    4    4    0    0  0.67474263330E+01  0.84966634178E+02 -0.12003298220E+02  0.86075175596E+02  0.00000000000E+00 0.  1.
         13    1    4    4    0    0  0.94696498806E+02  0.52776225751E+02 -0.18773395527E+02  0.11002362142E+03  0.00000000000E+00 0. -1.
         21    1    1    2  503  501 -0.27302330711E+02 -0.16342258945E+02  0.31167747536E+02  0.44541162717E+02  0.00000000000E+00 0.  1.
          1    1    1    2  501    0  0.15025031869E+03  0.81576312761E+02 -0.11454635616E+03  0.20579290751E+03  0.00000000000E+00 0. -1.
<scales pt_clust_5="13000.00000" pt_clust_6="13000.00000" pt_clust_7="13000.00000" pt_clust_8="13000.00000" pt_clust_9="31.81960" pt_clust_10="13000.00000"></scales>
<clustering>
<clus scale="   31.820">  1  9  2 -1</clus>
<clus scale="   78.824">  5  6 -1 -1</clus>
<clus scale="   90.794">  7  8 -1 -1</clus>
<clus scale="  164.244">  7 10 -1 -1</clus>
<clus scale="  324.941">  2  5  1 -1</clus>
<clus scale="   31.820">  1  5  2 -1</clus>
</clustering>
</event>
<event>
10    4  0.2759992E-005  0.1602007E+03  0.7546771E-02  0.1218482E+00
         21   -1    0    0  503  502  0.00000000000E+00  0.00000000000E+00  0.77031360369E+02  0.77031360369E+02  0.00000000000E+00 0.  1.
          2   -1    0    0  502    0 -0.00000000000E+00 -0.00000000000E+00 -0.41449807634E+03  0.41449807634E+03  0.00000000000E+00 0. -1.
         24    2    1    2    0    0  0.88946717188E+01 -0.20190280513E+02 -0.10399247272E+03  0.13355005689E+03  0.80835763748E+02 0.  0.
         23    2    1    2    0    0  0.39832626037E+02  0.33657494600E+02 -0.99728539062E+02  0.14674154358E+03  0.94169177908E+02 0.  0.
        -13    1    3    3    0    0 -0.33026537118E+02  0.40203951665E+01 -0.28185755351E+02  0.43604501327E+02  0.00000000000E+00 0.  1.
         14    1    3    3    0    0  0.41921208837E+02 -0.24210675679E+02 -0.75806717367E+02  0.89945555561E+02  0.00000000000E+00 0. -1.
        -11    1    4    4    0    0  0.45637327583E+02 -0.22239546350E+02 -0.39147665842E+02  0.64108523862E+02  0.00000000000E+00 0.  1.
         11    1    4    4    0    0 -0.58047015464E+01  0.55897040950E+02 -0.60580873220E+02  0.82633019714E+02  0.00000000000E+00 0. -1.
         21    1    1    2  503  501 -0.89277902626E+02 -0.35092506897E+02 -0.34630751185E+02  0.10198684653E+03  0.00000000000E+00 0.  1.
          1    1    1    2  501    0  0.40550604870E+02  0.21625292810E+02 -0.99114953007E+02  0.10925098972E+03  0.00000000000E+00 0. -1.
<scales pt_clust_5="13000.00000" pt_clust_6="13000.00000" pt_clust_7="13000.00000" pt_clust_8="13000.00000" pt_clust_9="95.85650" pt_clust_10="13000.00000"></scales>
<clustering>
<clus scale="   80.836">  5  6 -1 -1</clus>
<clus scale="   83.793">  2  5  1 -1</clus>
<clus scale="   94.169">  7  8 -1 -1</clus>
<clus scale="   46.032">  7 10 -1 -1</clus>
<clus scale="   95.856">  1  9  2 -1</clus>
<clus scale="   95.856">  1  5  2 -1</clus>
</clustering>
</event>
<event>
10    4  0.2759992E-005  0.2559279E+03  0.7546771E-02  0.1143297E+00
         21   -1    0    0  503  502  0.00000000000E+00  0.00000000000E+00  0.12061651868E+03  0.12061651868E+03  0.00000000000E+00 0.  1.
         -1   -1    0    0    0  501 -0.00000000000E+00 -0.00000000000E+00 -0.11920191715E+04  0.11920191715E+04  0.00000000000E+00 0.  1.
         24    2    1    2    0    0 -0.60512303058E+02 -0.43950541605E+02 -0.68753266415E+02  0.13081841172E+03  0.82419999228E+02 0.  0.
         23    2    1    2    0    0  0.90023460254E+02 -0.38430064623E+02 -0.25262708404E+03  0.28459118319E+03  0.87124076450E+02 0.  0.
        -11    1    3    3    0    0 -0.79501323227E+02 -0.33740637070E+02 -0.40801278768E+02  0.95517722616E+02  0.00000000000E+00 0.  1.
         12    1    3    3    0    0  0.18989020169E+02 -0.10209904536E+02 -0.27951987647E+02  0.35300689101E+02  0.00000000000E+00 0. -1.
        -11    1    4    4    0    0  0.39846081946E+02 -0.55478434872E+02 -0.19344377437E+03  0.20514887478E+03  0.00000000000E+00 0. -1.
         11    1    4    4    0    0  0.50177378308E+02  0.17048370249E+02 -0.59183309674E+02  0.79442308413E+02  0.00000000000E+00 0.  1.
         21    1    1    2  503  501 -0.13098093403E+03  0.27432612321E+02  0.45318755147E+01  0.13389955636E+03  0.00000000000E+00 0.  1.
         -2    1    1    2    0  502  0.10146977683E+03  0.54947993908E+02 -0.75455417786E+03  0.76332653888E+03  0.00000000000E+00 0.  1.
<scales pt_clust_5="13000.00000" pt_clust_6="13000.00000" pt_clust_7="13000.00000" pt_clust_8="13000.00000" pt_clust_9="136.83619" pt_clust_10="13000.00000"></scales>
<clustering>
<clus scale="   82.420">  5  6 -1 -1</clus>
<clus scale="   87.124">  7  8 -1 -1</clus>
<clus scale="  111.294">  2  5  1 -1</clus>
<clus scale="   64.241">  7 10 -1 -1</clus>
<clus scale="  136.836">  1  9  2 -1</clus>
<clus scale="  136.836">  1  5  2 -1</clus>
</clustering>
</event>
<event>
10    4  0.2759992E-005  0.1522892E+03  0.7546771E-02  0.1226199E+00
          2   -1    0    0  503    0 -0.00000000000E+00  0.00000000000E+00  0.47445261702E+03  0.47445261702E+03  0.00000000000E+00 0. -1.
         21   -1    0    0  501  502  0.00000000000E+00 -0.00000000000E+00 -0.67250825240E+02  0.67250825240E+02  0.00000000000E+00 0. -1.
         24    2    1    2    0    0 -0.30070657825E+02  0.16582842156E+02  0.41245376714E+02  0.95613516881E+02  0.79129819879E+02 0.  0.
         23    2    1    2    0    0  0.28538732319E+02 -0.49487417254E+02  0.29685726464E+03  0.31544330398E+03  0.90093167052E+02 0.  0.
        -13    1    3    3    0    0 -0.10273105555E+02 -0.30268766674E+02  0.29311951429E+02  0.43369637193E+02  0.00000000000E+00 0.  1.
         14    1    3    3    0    0 -0.19797552270E+02  0.46851608830E+02  0.11933425285E+02  0.52243879688E+02  0.00000000000E+00 0. -1.
        -11    1    4    4    0    0  0.27899869857E+01 -0.71879556347E+02  0.21662245244E+03  0.22825367806E+03  0.00000000000E+00 0. -1.
         11    1    4    4    0    0  0.25748745333E+02  0.22392139093E+02  0.80234812201E+02  0.87189625922E+02  0.00000000000E+00 0.  1.
         21    1    1    2  503  502  0.40405864642E+02  0.12667128372E+02 -0.69125825068E+01  0.42905405669E+02  0.00000000000E+00 0. -1.
          1    1    1    2  501    0 -0.38873939136E+02  0.20237446726E+02  0.76011732939E+02  0.87741215733E+02  0.00000000000E+00 0. -1.
<scales pt_clust_5="13000.00000" pt_clust_6="13000.00000" pt_clust_7="13000.00000" pt_clust_8="13000.00000" pt_clust_9="42.34489" pt_clust_10="13000.00000"></scales>
<clustering>
<clus scale="   42.345">  2  9  1 -1</clus>
<clus scale="   79.130">  5  6 -1 -1</clus>
<clus scale="   83.003">  1  5  2 -1</clus>
<clus scale="   90.093">  7  8 -1 -1</clus>
<clus scale="   43.171">  7 10 -1 -1</clus>
<clus scale="   42.345">  2  5  1 -1</clus>
</clustering>
</event>
<event>
10    4  0.2759992E-005  0.3282712E+03  0.7546771E-02  0.1105042E+00
          2   -1    0    0  503    0 -0.00000000000E+00  0.00000000000E+00  0.38290206257E+03  0.38290206257E+03  0.00000000000E+00 0. -1.
         21   -1    0    0  501  502  0.00000000000E+00 -0.00000000000E+00 -0.97647050310E+03  0.97647050310E+03  0.00000000000E+00 0. -1.
         24    2    1    2    0    0 -0.12530299534E+03 -0.10663897251E+02  0.19144449676E+03  0.24288947012E+03  0.80806806703E+02 0.  0.
         23    2    1    2    0    0  0.77998231824E+02 -0.60664334677E+02 -0.90239459862E+02  0.17056729352E+03  0.10576462468E+03 0.  0.
        -11    1    3    3    0    0 -0.73571402842E+02 -0.46045975540E+02  0.11275761823E+03  0.14229287982E+03  0.00000000000E+00 0.  1.
         12    1    3    3    0    0 -0.51731592497E+02  0.35382078289E+02  0.78686878531E+02  0.10059659030E+03  0.00000000000E+00 0. -1.
        -11    1    4    4    0    0 -0.18879788971E+02 -0.16891231329E+02  0.72244581930E+01  0.26342986231E+02  0.00000000000E+00 0. -1.
         11    1    4    4    0    0  0.96878020796E+02 -0.43773103348E+02 -0.97463918055E+02  0.14422430729E+03  0.00000000000E+00 0.  1.
         21    1    1    2  503  502  0.10820655114E+03  0.78282435549E+00 -0.79888736470E+03  0.80618254261E+03  0.00000000000E+00 0. -1.
          1    1    1    2  501    0 -0.60901787620E+02  0.70545407573E+02  0.10411388727E+03  0.13973325942E+03  0.00000000000E+00 0. -1.
<scales pt_clust_5="13000.00000" pt_clust_6="13000.00000" pt_clust_7="13000.00000" pt_clust_8="13000.00000" pt_clust_9="108.20938" pt_clust_10="13000.00000"></scales>
<clustering>
<clus scale="   80.807">  5  6 -1 -1</clus>
<clus scale="  105.765">  7  8 -1 -1</clus>
<clus scale="   93.197">  7 10 -1 -1</clus>
<clus scale="  108.209">  2  9  1 -1</clus>
<clus scale="  136.337">  1  5  2 -1</clus>
<clus scale="  108.209">  2  5  1 -1</clus>
</clustering>
</event>
<event>
10    4  0.2759992E-005  0.4946299E+03  0.7546771E-02  0.1075923E+00
          2   -1    0    0  503    0 -0.00000000000E+00  0.00000000000E+00  0.30705516858E+03  0.30705516858E+03  0.00000000000E+00 0. -1.
         21   -1    0    0  501  502  0.00000000000E+00 -0.00000000000E+00 -0.70722409523E+03  0.70722409523E+03  0.00000000000E+00 0. -1.
         24    2    1    2    0    0  0.23809485330E+01 -0.29551768623E+02 -0.10266323355E+03  0.13392804017E+03  0.80734159287E+02 0.  0.
         23    2    1    2    0    0  0.10129101559E+02 -0.65772079431E+02 -0.18447322869E+03  0.21100423124E+03  0.77870715713E+02 0.  0.
        -13    1    3    3    0    0  0.25359714289E+02  0.19281638271E+02 -0.42329698733E+02  0.52978298180E+02  0.00000000000E+00 0.  1.
         14    1    3    3    0    0 -0.22978765756E+02 -0.48833406894E+02 -0.60333534815E+02  0.80949741987E+02  0.00000000000E+00 0. -1.
        -11    1    4    4    0    0  0.44063867375E+02 -0.40489469608E+02 -0.10038676092E+03  0.11686968522E+03  0.00000000000E+00 0. -1.
         11    1    4    4    0    0 -0.33934765816E+02 -0.25282609822E+02 -0.84086467774E+02  0.94134546013E+02  0.00000000000E+00 0.  1.
         21    1    1    2  503  502 -0.16025543846E+03  0.33859078143E+02 -0.34825711464E+03  0.38485225818E+03  0.00000000000E+00 0. -1.
          1    1    1    2  501    0  0.14774538837E+03  0.61464769911E+02  0.23522465024E+03  0.28449473423E+03  0.00000000000E+00 0. -1.
<scales pt_clust_5="13000.00000" pt_clust_6="13000.00000" pt_clust_7="13000.00000" pt_clust_8="13000.00000" pt_clust_9="163.27322" pt_clust_10="13000.00000"></scales>
<clustering>
<clus scale="   77.871">  7  8 -1 -1</clus>
<clus scale="   80.734">  5  6 -1 -1</clus>
<clus scale="   86.006">  1  5  2 -1</clus>
<clus scale="  153.927">  7 10 -1 -1</clus>
<clus scale="  163.273">  2  9  1 -1</clus>
<clus scale="  163.273">  2  5  1 -1</clus>
</clustering>
</event>
<event>
10    4  0.2759992E-005  0.8037354E+03  0.7546771E-02  0.9849774E-01
         21   -1    0    0  503  502  0.00000000000E+00  0.00000000000E+00  0.26998862345E+03  0.26998862345E+03  0.00000000000E+00 0. -1.
          2   -1    0    0  502    0 -0.00000000000E+00 -0.00000000000E+00 -0.22982820577E+04  0.22982820577E+04  0.00000000000E+00 0. -1.
         24    2    1    2    0    0  0.10330115405E+03  0.22077720293E+03 -0.23290173948E+03  0.34613996837E+03  0.78459898595E+02 0.  0.
         23    2    1    2    0    0  0.26506382316E+03 -0.93672400347E+01 -0.42202758718E+03  0.50623998667E+03  0.88459393077E+02 0.  0.
        -13    1    3    3    0    0  0.97398224514E+02  0.11786260914E+03 -0.14342757071E+03  0.20964130512E+03  0.00000000000E+00 0.  1.
         14    1    3    3    0    0  0.59029295395E+01  0.10291459379E+03 -0.89474168764E+02  0.13649866325E+03  0.00000000000E+00 0. -1.
        -11    1    4    4    0    0  0.89321626428E+02 -0.30929829010E+02 -0.93045509705E+02  0.13263662445E+03  0.00000000000E+00 0.  1.
         11    1    4    4    0    0  0.17574219674E+03  0.21562588976E+02 -0.32898207748E+03  0.37360336221E+03  0.00000000000E+00 0. -1.
         21    1    1    2  503  501  0.49829944642E+02  0.10141012215E+03  0.10113157797E+03  0.15163981114E+03  0.00000000000E+00 0. -1.
          1    1    1    2  501    0 -0.41819492186E+03 -0.31282008505E+03 -0.14744956856E+04  0.15642509150E+04  0.00000000000E+00 0. -1.
<scales pt_clust_5="13000.00000" pt_clust_6="13000.00000" pt_clust_7="13000.00000" pt_clust_8="13000.00000" pt_clust_9="112.99131" pt_clust_10="13000.00000"></scales>
<clustering>
<clus scale="   78.460">  5  6 -1 -1</clus>
<clus scale="   88.459">  7  8 -1 -1</clus>
<clus scale="  112.991">  1  9  2 -1</clus>
<clus scale="  298.778">  2  5  1 -1</clus>
<clus scale="  328.186">  7 10 -1 -1</clus>
<clus scale="  112.991">  1  5  2 -1</clus>
</clustering>
</event>
<event>
10    4  0.2759992E-005  0.1353500E+03  0.7546771E-02  0.1242656E+00
          2   -1    0    0  502    0 -0.00000000000E+00  0.00000000000E+00  0.31129974753E+03  0.31129974753E+03  0.00000000000E+00 0. -1.
         21   -1    0    0  503  502  0.00000000000E+00 -0.00000000000E+00 -0.51273701658E+03  0.51273701658E+03  0.00000000000E+00 0.  1.
         24    2    1    2    0    0  0.26826528573E+02  0.10524330436E+01  0.28755292328E+03  0.29968153523E+03  0.80009803251E+02 0.  0.
         23    2    1    2    0    0 -0.15875008664E+02  0.78465715518E+01 -0.15918300948E+03  0.18589596743E+03  0.94363635016E+02 0.  0.
        -11    1    3    3    0    0 -0.20337757494E+02 -0.23597647850E+02  0.10965149747E+03  0.11399089552E+03  0.00000000000E+00 0.  1.
         12    1    3    3    0    0  0.47164286067E+02  0.24650080894E+02  0.17790142581E+03  0.18569063970E+03  0.00000000000E+00 0. -1.
        -11    1    4    4    0    0  0.10180287700E+02  0.32045641977E+02 -0.14286991319E+03  0.14677320438E+03  0.00000000000E+00 0.  1.
         11    1    4    4    0    0 -0.26055296364E+02 -0.24199070425E+02 -0.16313096283E+02  0.39122763047E+02  0.00000000000E+00 0. -1.
         21    1    1    2  503  501 -0.42017957315E+01  0.29268525462E+02 -0.22070070317E+03  0.22267263427E+03  0.00000000000E+00 0.  1.
          1    1    1    2  501    0 -0.67497241777E+01 -0.38167530057E+02 -0.10910647968E+03  0.11578662719E+03  0.00000000000E+00 0. -1.
<scales pt_clust_5="13000.00000" pt_clust_6="13000.00000" pt_clust_7="13000.00000" pt_clust_8="13000.00000" pt_clust_9="29.56859" pt_clust_10="13000.00000"></scales>
<clustering>
<clus scale="   29.569">  2  9  1 -1</clus>
<clus scale="   80.010">  5  6 -1 -1</clus>
<clus scale="   84.376">  1  5  2 -1</clus>
<clus scale="   94.364">  7  8 -1 -1</clus>
<clus scale="   27.057">  7 10 -1 -1</clus>
<clus scale="   29.569">  2  5  1 -1</clus>
</clustering>
</event>
<event>
10    4  0.2759992E-005  0.4416381E+03  0.7546771E-02  0.1035145E+00
         21   -1    0    0  501  502  0.00000000000E+00  0.00000000000E+00  0.22328720251E+03  0.22328720251E+03  0.00000000000E+00 0.  1.
          2   -1    0    0  503    0 -0.00000000000E+00 -0.00000000000E+00 -0.92939106885E+03  0.92939106885E+03  0.00000000000E+00 0. -1.
         24    2    1    2    0    0  0.35851323241E+03  0.10652569204E+03 -0.51443287510E+03  0.64153209541E+03  0.83921305902E+02 0.  0.
         23    2    1    2    0    0 -0.78074065685E+02 -0.57577336455E+02 -0.65419245351E+01  0.14034302388E+03  0.10120601844E+03 0.  0.
        -13    1    3    3    0    0  0.33675020150E+03  0.96622550221E+02 -0.43475772602E+03  0.55834657315E+03  0.00000000000E+00 0.  1.
         14    1    3    3    0    0  0.21763030912E+02  0.99031418216E+01 -0.79675149084E+02  0.83185522261E+02  0.00000000000E+00 0. -1.
        -11    1    4    4    0    0 -0.52710729055E+02 -0.82293371723E+02  0.15029296453E+02  0.98876183881E+02  0.00000000000E+00 0. -1.
         11    1    4    4    0    0 -0.25363336630E+02  0.24716035269E+02 -0.21571220988E+02  0.41466839997E+02  0.00000000000E+00 0.  1.
         21    1    1    2  503  502  0.52284822133E+01 -0.32590129330E+02 -0.69661007254E+01  0.33733960860E+02  0.00000000000E+00 0.  1.
          1    1    1    2  501    0 -0.28566764894E+03 -0.16358226258E+02 -0.17816296597E+03  0.33706919121E+03  0.00000000000E+00 0. -1.
<scales pt_clust_5="13000.00000" pt_clust_6="13000.00000" pt_clust_7="13000.00000" pt_clust_8="13000.00000" pt_clust_9="33.00687" pt_clust_10="13000.00000"></scales>
<clustering>
<clus scale="   33.007">  1  9  2 -1</clus>
<clus scale="   83.921">  5  6 -1 -1</clus>
<clus scale="  101.206">  7  8 -1 -1</clus>
<clus scale="  285.136">  7 10 -1 -1</clus>
<clus scale="  382.171">  2  5  1 -1</clus>
<clus scale="   33.007">  1  5  2 -1</clus>
</clustering>
</event>
<event>
10    4  0.2759992E-005  0.3957966E+03  0.7546771E-02  0.1054852E+00
         21   -1    0    0  501  502  0.00000000000E+00  0.00000000000E+00  0.11670294067E+03  0.11670294067E+03  0.00000000000E+00 0. -1.
          2   -1    0    0  503    0 -0.00000000000E+00 -0.00000000000E+00 -0.22691916301E+04  0.22691916301E+04  0.00000000000E+00 0. -1.
         24    2    1    2    0    0 -0.15049657081E+03  0.22154956690E+03 -0.39240281505E+03  0.48186947173E+03  0.80528194458E+02 0.  0.
         23    2    1    2    0    0  0.41573791168E+01 -0.21032002112E+02 -0.20695906386E+03  0.22715686182E+03  0.91151285478E+02 0.  0.
        -13    1    3    3    0    0  0.47029456135E+01  0.41979007406E+02 -0.55020455624E+02  0.69365735758E+02  0.00000000000E+00 0.  1.
         14    1    3    3    0    0 -0.15519951642E+03  0.17957055950E+03 -0.33738235943E+03  0.41250373597E+03  0.00000000000E+00 0. -1.
        -11    1    4    4    0    0 -0.29285769269E+02 -0.42941837250E+02 -0.13774084514E+03  0.14722159518E+03  0.00000000000E+00 0. -1.
         11    1    4    4    0    0  0.33443148386E+02  0.21909835138E+02 -0.69218218724E+02  0.79935266642E+02  0.00000000000E+00 0.  1.
         21    1    1    2  503  502 -0.64329272100E-01  0.39378914847E+02  0.41766061015E+02  0.57403021919E+02  0.00000000000E+00 0. -1.
          1    1    1    2  501    0  0.14640352097E+03 -0.23989647964E+03 -0.15948928715E+04  0.16194652153E+04  0.00000000000E+00 0. -1.
<scales pt_clust_5="13000.00000" pt_clust_6="13000.00000" pt_clust_7="13000.00000" pt_clust_8="13000.00000" pt_clust_9="39.37897" pt_clust_10="13000.00000"></scales>
<clustering>
<clus scale="   39.379">  1  9  2 -1</clus>
<clus scale="   80.528">  5  6 -1 -1</clus>
<clus scale="   91.151">  7  8 -1 -1</clus>
<clus scale="  274.908">  7 10 -1 -1</clus>
<clus scale="  300.914">  2  5  1 -1</clus>
<clus scale="   39.379">  1  5  2 -1</clus>
</clustering>
</event>
<event>
10    4  0.2759992E-005  0.1357892E+03  0.7546771E-02  0.1235780E+00
          4   -1    0    0  503    0 -0.00000000000E+00  0.00000000000E+00  0.16159410246E+03  0.16159410246E+03  0.00000000000E+00 0. -1.
         21   -1    0    0  501  502  0.00000000000E+00 -0.00000000000E+00 -0.41071650725E+03  0.41071650725E+03  0.00000000000E+00 0.  1.
         24    2    1    2    0    0  0.45159880326E+02 -0.40356539870E+02  0.94340887597E+02  0.13783443955E+03  0.80187683289E+02 0.  0.
         23    2    1    2    0    0 -0.10621074115E+02  0.22852047573E+02 -0.20945476593E+02  0.97847406623E+02  0.92197498336E+02 0.  0.
        -13    1    3    3    0    0 -0.19725771573E+01 -0.42447662410E+02  0.14137026033E+02  0.44783374256E+02  0.00000000000E+00 0.  1.
         14    1    3    3    0    0  0.47132457484E+02  0.20911225402E+01  0.80203861564E+02  0.93051065291E+02  0.00000000000E+00 0. -1.
        -11    1    4    4    0    0  0.34492747121E+01  0.57721116439E+02 -0.15401167778E+02  0.59839959458E+02  0.00000000000E+00 0.  1.
         11    1    4    4    0    0 -0.14070348827E+02 -0.34869068866E+02 -0.55443088149E+01  0.38007447164E+02  0.00000000000E+00 0. -1.
         21    1    1    2  503  502 -0.56865246652E+02  0.35105328244E+01 -0.28586713099E+03  0.29148927373E+03  0.00000000000E+00 0.  1.
          3    1    1    2  501    0  0.22326440440E+02  0.13993959472E+02 -0.36650684795E+02  0.45139489811E+02  0.00000000000E+00 0. -1.
<scales pt_clust_5="13000.00000" pt_clust_6="13000.00000" pt_clust_7="13000.00000" pt_clust_8="13000.00000" pt_clust_9="56.97350" pt_clust_10="13000.00000"></scales>
<clustering>
<clus scale="   56.974">  2  9  1 -1</clus>
<clus scale="   80.188">  5  6 -1 -1</clus>
<clus scale="   92.197">  7  8 -1 -1</clus>
<clus scale="   15.519">  7 10 -1 -1</clus>
<clus scale="   96.101">  1  5  2 -1</clus>
<clus scale="   56.974">  2  5  1 -1</clus>
</clustering>
</event>
<event>
10    4  0.2759992E-005  0.4183777E+03  0.7546771E-02  0.1067992E+00
         21   -1    0    0  501  502  0.00000000000E+00  0.00000000000E+00  0.16049674672E+03  0.16049674672E+03  0.00000000000E+00 0.  1.
          2   -1    0    0  503    0 -0.00000000000E+00 -0.00000000000E+00 -0.60561059401E+03  0.60561059401E+03  0.00000000000E+00 0. -1.
         24    2    1    2    0    0 -0.11582145671E+03  0.11593672115E+03 -0.12304046672E+03  0.21959458592E+03  0.78910661935E+02 0.  0.
         23    2    1    2    0    0  0.96627550227E+02 -0.16017488031E+03 -0.13814016454E+02  0.21006499501E+03  0.94570605028E+02 0.  0.
        -11    1    3    3    0    0 -0.23431965688E+02  0.65708625432E+02 -0.20487913078E+02  0.72707874776E+02  0.00000000000E+00 0.  1.
         12    1    3    3    0    0 -0.92389491027E+02  0.50228095722E+02 -0.10255255364E+03  0.14688671114E+03  0.00000000000E+00 0. -1.
        -11    1    4    4    0    0  0.89127265299E+02 -0.96645804841E+02  0.26960484749E+02  0.13420487603E+03  0.00000000000E+00 0.  1.
         11    1    4    4    0    0  0.75002849280E+01 -0.63529075464E+02 -0.40774501203E+02  0.75860118980E+02  0.00000000000E+00 0. -1.
         21    1    1    2  503  502  0.20815072770E+01 -0.24437566303E+02 -0.49890905511E+01  0.25028350802E+02  0.00000000000E+00 0.  1.
          1    1    1    2  501    0  0.17112399211E+02  0.68675725454E+02 -0.30327027356E+03  0.31141940900E+03  0.00000000000E+00 0. -1.
<scales pt_clust_5="13000.00000" pt_clust_6="13000.00000" pt_clust_7="13000.00000" pt_clust_8="13000.00000" pt_clust_9="24.52605" pt_clust_10="13000.00000"></scales>
<clustering>
<clus scale="   24.526">  1  9  2 -1</clus>
<clus scale="   78.911">  5  6 -1 -1</clus>
<clus scale="   94.571">  7  8 -1 -1</clus>
<clus scale="   70.148">  7 10 -1 -1</clus>
<clus scale="  176.556">  2  5  1 -1</clus>
<clus scale="   24.526">  1  5  2 -1</clus>
</clustering>
</event>
<event>
10    4  0.2759992E-005  0.2300586E+03  0.7546771E-02  0.1140329E+00
         21   -1    0    0  501  502  0.00000000000E+00  0.00000000000E+00  0.31237519113E+03  0.31237519113E+03  0.00000000000E+00 0. -1.
          2   -1    0    0  503    0 -0.00000000000E+00 -0.00000000000E+00 -0.21628365712E+03  0.21628365712E+03  0.00000000000E+00 0. -1.
         24    2    1    2    0    0 -0.68872666178E+02 -0.13277553566E+03 -0.80913875142E+02  0.18870112176E+03  0.81781850960E+02 0.  0.
         23    2    1    2    0    0  0.11305339012E+02  0.15190763967E+03  0.93994290693E+02  0.20071914526E+03  0.90826796216E+02 0.  0.
        -11    1    3    3    0    0  0.80056108823E+01 -0.47972693692E+02 -0.50830876712E+02  0.70350886085E+02  0.00000000000E+00 0.  1.
         12    1    3    3    0    0 -0.76878277060E+02 -0.84802841970E+02 -0.30082998431E+02  0.11835023568E+03  0.00000000000E+00 0. -1.
        -11    1    4    4    0    0  0.61582926707E+01  0.28747581353E+02 -0.17748720631E+02  0.34341885305E+02  0.00000000000E+00 0.  1.
         11    1    4    4    0    0  0.51470463417E+01  0.12316005832E+03  0.11174301132E+03  0.16637725996E+03  0.00000000000E+00 0. -1.
         21    1    1    2  503  502  0.42823218865E+02  0.90278838878E+01  0.95528548065E+02  0.10507632586E+03  0.00000000000E+00 0. -1.
          1    1    1    2  501    0  0.14744108301E+02 -0.28159987896E+02 -0.12517429606E+02  0.34162255368E+02  0.00000000000E+00 0. -1.
<scales pt_clust_5="13000.00000" pt_clust_6="13000.00000" pt_clust_7="13000.00000" pt_clust_8="13000.00000" pt_clust_9="43.76449" pt_clust_10="13000.00000"></scales>
<clustering>
<clus scale="   43.764">  1  9  2 -1</clus>
<clus scale="   81.782">  5  6 -1 -1</clus>
<clus scale="   90.827">  7  8 -1 -1</clus>
<clus scale="   32.463">  7 10 -1 -1</clus>
<clus scale="  164.549">  2  5  1 -1</clus>
<clus scale="   43.764">  1  5  2 -1</clus>
</clustering>
</event>
<event>
10    4  0.2759992E-005  0.1358253E+03  0.7546771E-02  0.1240470E+00
          2   -1    0    0  502    0 -0.00000000000E+00  0.00000000000E+00  0.86977059154E+03  0.86977059154E+03  0.00000000000E+00 0. -1.
         21   -1    0    0  503  502  0.00000000000E+00 -0.00000000000E+00 -0.12244124357E+03  0.12244124357E+03  0.00000000000E+00 0.  1.
         24    2    1    2    0    0  0.36831743010E+02  0.14420270193E+02  0.55467406167E+03  0.56196229647E+03  0.81078890460E+02 0.  0.
         23    2    1    2    0    0 -0.10137301943E+02 -0.35749601937E+02  0.20759456672E+03  0.22950945161E+03  0.90544383141E+02 0.  0.
        -11    1    3    3    0    0 -0.24660669916E+02  0.33388302629E+01  0.10176978845E+03  0.10476825029E+03  0.00000000000E+00 0.  1.
         12    1    3    3    0    0  0.61492412927E+02  0.11081439930E+02  0.45290427323E+03  0.45719404618E+03  0.00000000000E+00 0. -1.
        -13    1    4    4    0    0 -0.42145571226E+01 -0.61777200781E+02  0.92167683068E+02  0.11103633113E+03  0.00000000000E+00 0.  1.
         13    1    4    4    0    0 -0.59227448208E+01  0.26027598844E+02  0.11542688365E+03  0.11847312048E+03  0.00000000000E+00 0. -1.
         21    1    1    2  503  501 -0.33412459896E+02 -0.11731011054E+02 -0.10167990946E+03  0.10766992656E+03  0.00000000000E+00 0.  1.
          1    1    1    2  501    0  0.67180188287E+01  0.33060342798E+02  0.86740629040E+02  0.93070160466E+02  0.00000000000E+00 0. -1.
<scales pt_clust_5="13000.00000" pt_clust_6="13000.00000" pt_clust_7="13000.00000" pt_clust_8="13000.00000" pt_clust_9="35.41199" pt_clust_10="13000.00000"></scales>
<clustering>
<clus scale="   35.412">  2  9  1 -1</clus>
<clus scale="   81.079">  5  6 -1 -1</clus>
<clus scale="   87.274">  1  5  2 -1</clus>
<clus scale="   90.544">  7  8 -1 -1</clus>
<clus scale="   34.684">  7 10 -1 -1</clus>
<clus scale="   35.412">  2  5  1 -1</clus>
</clustering>
</event>
<event>
10    4  0.2759992E-005  0.5231463E+03  0.7546771E-02  0.1068409E+00
         21   -1    0    0  501  502  0.00000000000E+00  0.00000000000E+00  0.17433502310E+03  0.17433502310E+03  0.00000000000E+00 0. -1.
          2   -1    0    0  503    0 -0.00000000000E+00 -0.00000000000E+00 -0.13313080753E+04  0.13313080753E+04  0.00000000000E+00 0. -1.
         24    2    1    2    0    0 -0.46283497041E+02 -0.13007273491E+02 -0.18656101472E+02  0.95054309002E+02  0.79849359896E+02 0.  0.
         23    2    1    2    0    0  0.19137453107E+03 -0.10442165485E+03 -0.10329515197E+04  0.10596764672E+04  0.91636674539E+02 0.  0.
        -13    1    3    3    0    0 -0.64532922414E+02 -0.19610705867E+02 -0.28585385287E+02  0.73254365821E+02  0.00000000000E+00 0.  1.
         14    1    3    3    0    0  0.18249425373E+02  0.66034323756E+01  0.99292838154E+01  0.21799943181E+02  0.00000000000E+00 0. -1.
        -11    1    4    4    0    0  0.17856807908E+03 -0.75730230696E+02 -0.97133297103E+03  0.99050965029E+03  0.00000000000E+00 0. -1.
         11    1    4    4    0    0  0.12806451987E+02 -0.28691424149E+02 -0.61618548627E+02  0.69166816951E+02  0.00000000000E+00 0.  1.
         21    1    1    2  503  502  0.16555500529E+02  0.15699828521E+02  0.80944204993E+02  0.84098356318E+02  0.00000000000E+00 0. -1.
          1    1    1    2  501    0 -0.16164653456E+03  0.10172909982E+03 -0.18630963611E+03  0.26681396589E+03  0.00000000000E+00 0. -1.
<scales pt_clust_5="13000.00000" pt_clust_6="13000.00000" pt_clust_7="13000.00000" pt_clust_8="13000.00000" pt_clust_9="22.81599" pt_clust_10="13000.00000"></scales>
<clustering>
<clus scale="   22.816">  1  9  2 -1</clus>
<clus scale="   79.849">  5  6 -1 -1</clus>
<clus scale="   89.274">  2  5  1 -1</clus>
<clus scale="   91.637">  7  8 -1 -1</clus>
<clus scale="  193.792">  7 10 -1 -1</clus>
<clus scale="   22.816">  1  5  2 -1</clus>
</clustering>
</event>
<event>
10    4  0.2759992E-005  0.3574030E+03  0.7546771E-02  0.1082568E+00
         21   -1    0    0  503  502  0.00000000000E+00  0.00000000000E+00  0.71201092966E+02  0.71201092966E+02  0.00000000000E+00 0.  1.
         -3   -1    0    0    0  501 -0.00000000000E+00 -0.00000000000E+00 -0.12767605310E+04  0.12767605310E+04  0.00000000000E+00 0.  1.
         24    2    1    2    0    0 -0.85224060113E+02 -0.14216726138E+03 -0.44680411284E+03  0.48241860197E+03  0.74960800677E+02 0.  0.
         23    2    1    2    0    0  0.27444557644E+02 -0.42890910235E+02 -0.10908684022E+03  0.15861120910E+03  0.10327024265E+03 0.  0.
        -13    1    3    3    0    0 -0.91005422356E+02 -0.14492974284E+03 -0.44314221029E+03  0.47503856244E+03  0.00000000000E+00 0.  1.
         14    1    3    3    0    0  0.57813622423E+01  0.27624814582E+01 -0.36619025510E+01  0.73800395308E+01  0.00000000000E+00 0. -1.
        -13    1    4    4    0    0  0.40839559840E+01 -0.23422229683E+02 -0.12292344342E+03  0.12520164729E+03  0.00000000000E+00 0. -1.
         13    1    4    4    0    0  0.23360601660E+02 -0.19468680553E+02  0.13836603202E+02  0.33409561813E+02  0.00000000000E+00 0.  1.
         21    1    1    2  503  501 -0.32248871262E+02 -0.18672383502E+02 -0.28134290802E+02  0.46692461086E+02  0.00000000000E+00 0. -1.
         -4    1    1    2    0  502  0.90028373732E+02  0.20373055512E+03 -0.62153419418E+03  0.66023935183E+03  0.00000000000E+00 0.  1.
<scales pt_clust_5="13000.00000" pt_clust_6="13000.00000" pt_clust_7="13000.00000" pt_clust_8="13000.00000" pt_clust_9="37.26456" pt_clust_10="13000.00000"></scales>
<clustering>
<clus scale="   37.265">  1  9  2 -1</clus>
<clus scale="   74.961">  5  6 -1 -1</clus>
<clus scale="  103.270">  7  8 -1 -1</clus>
<clus scale="  190.568">  2  5  1 -1</clus>
<clus scale="   81.507">  7 10 -1 -1</clus>
<clus scale="   37.265">  1  5  2 -1</clus>
</clustering>
</event>
<event>
10    4  0.2759992E-005  0.3260165E+03  0.7546771E-02  0.1107256E+00
          2   -1    0    0  503    0 -0.00000000000E+00  0.00000000000E+00  0.77676020518E+03  0.77676020518E+03  0.00000000000E+00 0. -1.
         21   -1    0    0  501  502  0.00000000000E+00 -0.00000000000E+00 -0.12336914691E+03  0.12336914691E+03  0.00000000000E+00 0. -1.
         24    2    1    2    0    0 -0.10038915410E+03 -0.23859967144E+01  0.49228842583E+03  0.50956444332E+03  0.84996190751E+02 0.  0.
         23    2    1    2    0    0 -0.21539611446E+01 -0.41267822445E+02 -0.66904346375E+02  0.11917351830E+03  0.89545871947E+02 0.  0.
        -11    1    3    3    0    0 -0.28687884420E+02 -0.21343503301E+02  0.52210959595E+02  0.63281309622E+02  0.00000000000E+00 0.  1.
         12    1    3    3    0    0 -0.71701269680E+02  0.18957506587E+02  0.44007746624E+03  0.44628313370E+03  0.00000000000E+00 0. -1.
        -13    1    4    4    0    0  0.33547336852E+02 -0.39983742076E+02 -0.11813248794E+02  0.53513328128E+02  0.00000000000E+00 0.  1.
         13    1    4    4    0    0 -0.35701297997E+02 -0.12840803693E+01 -0.55091097581E+02  0.65660190175E+02  0.00000000000E+00 0. -1.
         21    1    1    2  503  502  0.19116574887E+01 -0.24736140086E+02  0.29301959261E+02  0.38394477171E+02  0.00000000000E+00 0. -1.
          1    1    1    2  501    0  0.10063145776E+03  0.68389959245E+02  0.19870501954E+03  0.23299691330E+03  0.00000000000E+00 0. -1.
<scales pt_clust_5="13000.00000" pt_clust_6="13000.00000" pt_clust_7="13000.00000" pt_clust_8="13000.00000" pt_clust_9="24.80991" pt_clust_10="13000.00000"></scales>
<clustering>
<clus scale="   24.810">  2  9  1 -1</clus>
<clus scale="   84.996">  5  6 -1 -1</clus>
<clus scale="   89.546">  7  8 -1 -1</clus>
<clus scale="  119.933">  7 10 -1 -1</clus>
<clus scale="  131.499">  1  5  2 -1</clus>
<clus scale="   24.810">  2  5  1 -1</clus>
</clustering>
</event>
<event>
10    4  0.2759992E-005  0.2909127E+03  0.7546771E-02  0.1119065E+00
          2   -1    0    0  503    0 -0.00000000000E+00  0.00000000000E+00  0.11852774837E+04  0.11852774837E+04  0.00000000000E+00 0. -1.
         21   -1    0    0  501  502  0.00000000000E+00 -0.00000000000E+00 -0.63469800280E+02  0.63469800280E+02  0.00000000000E+00 0. -1.
         24    2    1    2    0    0 -0.46025355206E+02  0.11042671764E+03  0.34304461482E+03  0.37244670442E+03  0.82003332773E+02 0.  0.
         23    2    1    2    0    0  0.62013447164E+02 -0.14329251141E+03  0.33519362256E+03  0.38043684463E+03  0.89437222088E+02 0.  0.
        -13    1    3    3    0    0 -0.43509859311E+02  0.10786857491E+03  0.21578477549E+03  0.24513630217E+03  0.00000000000E+00 0.  1.
         14    1    3    3    0    0 -0.25154958955E+01  0.25581427326E+01  0.12725983934E+03  0.12731040225E+03  0.00000000000E+00 0. -1.
        -11    1    4    4    0    0  0.57973819208E+02 -0.32026195628E+02  0.96371508548E+02  0.11693634414E+03  0.00000000000E+00 0.  1.
         11    1    4    4    0    0  0.40396279556E+01 -0.11126631578E+03  0.23882211401E+03  0.26350050050E+03  0.00000000000E+00 0. -1.
         21    1    1    2  503  502  0.21935017316E+02 -0.19130353274E+02 -0.15039462650E+02  0.32761270394E+02  0.00000000000E+00 0. -1.
          1    1    1    2  501    0 -0.37923109273E+02  0.51996147047E+02  0.45860890866E+03  0.46310246450E+03  0.00000000000E+00 0. -1.
<scales pt_clust_5="13000.00000" pt_clust_6="13000.00000" pt_clust_7="13000.00000" pt_clust_8="13000.00000" pt_clust_9="29.10525" pt_clust_10="13000.00000"></scales>
<clustering>
<clus scale="   29.105">  2  9  1 -1</clus>
<clus scale="   82.003">  5  6 -1 -1</clus>
<clus scale="   89.437">  7  8 -1 -1</clus>
<clus scale="   62.746">  7 10 -1 -1</clus>
<clus scale="  137.237">  1  5  2 -1</clus>
<clus scale="   29.105">  2  5  1 -1</clus>
</clustering>
</event>
<event>
10    4  0.2759992E-005  0.3342414E+03  0.7546771E-02  0.1077745E+00
          2   -1    0    0  503    0 -0.00000000000E+00  0.00000000000E+00  0.12627759379E+04  0.12627759379E+04  0.00000000000E+00 0. -1.
         21   -1    0    0  501  502  0.00000000000E+00 -0.00000000000E+00 -0.99874298167E+02  0.99874298167E+02  0.00000000000E+00 0. -1.
         24    2    1    2    0    0  0.15173118901E+03  0.17150789849E+03  0.34633638767E+03  0.42310024116E+03  0.81410120275E+02 0.  0.
         23    2    1    2    0    0 -0.19404153393E+03 -0.99815363768E+02  0.46266635951E+03  0.51975900755E+03  0.92054559785E+02 0.  0.
        -13    1    3    3    0    0  0.29426045275E+01  0.49730180201E+02  0.56958025000E+02  0.75670115344E+02  0.00000000000E+00 0.  1.
         14    1    3    3    0    0  0.14878858448E+03  0.12177771829E+03  0.28937836267E+03  0.34743012581E+03  0.00000000000E+00 0. -1.
        -13    1    4    4    0    0 -0.47188054145E+02 -0.13872764222E+02  0.37628407268E+02  0.61927886082E+02  0.00000000000E+00 0.  1.
         13    1    4    4    0    0 -0.14685347979E+03 -0.85942599546E+02  0.42503795224E+03  0.45783112147E+03  0.00000000000E+00 0. -1.
         21    1    1    2  503  502  0.32526105606E+02  0.32015940922E+02 -0.51566793221E+01  0.45929939698E+02  0.00000000000E+00 0. -1.
          1    1    1    2  501    0  0.97842393210E+01 -0.10370847564E+03  0.35905557185E+03  0.37386104763E+03  0.00000000000E+00 0. -1.
<scales pt_clust_5="13000.00000" pt_clust_6="13000.00000" pt_clust_7="13000.00000" pt_clust_8="13000.00000" pt_clust_9="45.63954" pt_clust_10="13000.00000"></scales>
<clustering>
<clus scale="   45.640">  2  9  1 -1</clus>
<clus scale="   81.410">  5  6 -1 -1</clus>
<clus scale="   92.055">  7  8 -1 -1</clus>
<clus scale="  101.360">  7 10 -1 -1</clus>
<clus scale="  265.307">  1  5  2 -1</clus>
<clus scale="   45.640">  2  5  1 -1</clus>
</clustering>
</event>
<event>
10    4  0.2759992E-005  0.2847195E+03  0.7546771E-02  0.1127805E+00
         21   -1    0    0  501  502  0.00000000000E+00  0.00000000000E+00  0.47842015447E+02  0.47842015447E+02  0.00000000000E+00 0.  1.
          2   -1    0    0  503    0 -0.00000000000E+00 -0.00000000000E+00 -0.12806456226E+04  0.12806456226E+04  0.00000000000E+00 0. -1.
         24    2    1    2    0    0 -0.79588640338E+02  0.21351579843E+02 -0.50920874999E+03  0.52197257119E+03  0.79822129635E+02 0.  0.
         23    2    1    2    0    0  0.41565575804E+02  0.69004259617E+02 -0.15593256125E+03  0.19747758711E+03  0.90516014141E+02 0.  0.
        -13    1    3    3    0    0 -0.35119661070E+02  0.47767432228E+02 -0.20513034260E+03  0.21352652207E+03  0.00000000000E+00 0.  1.
         14    1    3    3    0    0 -0.44468979268E+02 -0.26415852386E+02 -0.30407840739E+03  0.30844604912E+03  0.00000000000E+00 0. -1.
        -13    1    4    4    0    0  0.62961986856E+02  0.32722048768E+02 -0.60821930645E+02  0.93457217548E+02  0.00000000000E+00 0.  1.
         13    1    4    4    0    0 -0.21396411052E+02  0.36282210850E+02 -0.95110630604E+02  0.10402036956E+03  0.00000000000E+00 0. -1.
         21    1    1    2  503  502 -0.89260258703E+01  0.58545036801E+02 -0.10256599451E+03  0.11843554577E+03  0.00000000000E+00 0.  1.
          1    1    1    2  501    0  0.46949090405E+02 -0.14890087626E+03 -0.46509630145E+03  0.49060193402E+03  0.00000000000E+00 0. -1.
<scales pt_clust_5="13000.00000" pt_clust_6="13000.00000" pt_clust_7="13000.00000" pt_clust_8="13000.00000" pt_clust_9="59.22158" pt_clust_10="13000.00000"></scales>
<clustering>
<clus scale="   59.222">  1  9  2 -1</clus>
<clus scale="   79.822">  5  6 -1 -1</clus>
<clus scale="   90.516">  7  8 -1 -1</clus>
<clus scale="  117.807">  2  5  1 -1</clus>
<clus scale="  112.831">  7 10 -1 -1</clus>
<clus scale="   59.222">  1  5  2 -1</clus>
</clustering>
</event>
<event>
10    4  0.2759992E-005  0.3258237E+03  0.7546771E-02  0.1110828E+00
          2   -1    0    0  502    0 -0.00000000000E+00  0.00000000000E+00  0.55703591809E+03  0.55703591809E+03  0.00000000000E+00 0. -1.
         21   -1    0    0  503  502  0.00000000000E+00 -0.00000000000E+00 -0.16852497341E+03  0.16852497341E+03  0.00000000000E+00 0.  1.
         24    2    1    2    0    0 -0.69044062209E+02  0.78491874497E+02  0.40431310728E+02  0.13813837380E+03  0.80743188823E+02 0.  0.
         23    2    1    2    0    0 -0.27711530301E+02 -0.14416072372E+03  0.33304288198E+03  0.37440321559E+03  0.87806397436E+02 0.  0.
        -11    1    3    3    0    0 -0.85533380573E+02  0.54888828614E+02  0.40345692170E+02  0.10934586218E+03  0.00000000000E+00 0.  1.
         12    1    3    3    0    0  0.16489318364E+02  0.23603045884E+02  0.85618557975E-01  0.28792511624E+02  0.00000000000E+00 0. -1.
        -11    1    4    4    0    0 -0.59862125235E+02 -0.96673627401E+02  0.22049629101E+03  0.24808844919E+03  0.00000000000E+00 0. -1.
         11    1    4    4    0    0  0.32150594934E+02 -0.47487096323E+02  0.11254659097E+03  0.12631476640E+03  0.00000000000E+00 0.  1.
         21    1    1    2  503  501  0.16925747959E+02 -0.29240836255E+02 -0.59429097929E+02  0.68361722693E+02  0.00000000000E+00 0.  1.
          1    1    1    2  501    0  0.79829844551E+02  0.94909685482E+02  0.74465849902E+02  0.14465757941E+03  0.00000000000E+00 0. -1.
<scales pt_clust_5="13000.00000" pt_clust_6="13000.00000" pt_clust_7="13000.00000" pt_clust_8="13000.00000" pt_clust_9="33.78620" pt_clust_10="13000.00000"></scales>
<clustering>
<clus scale="   33.786">  2  9  1 -1</clus>
<clus scale="   80.743">  5  6 -1 -1</clus>
<clus scale="   87.806">  7  8 -1 -1</clus>
<clus scale="  120.257">  1  5  2 -1</clus>
<clus scale="  122.767">  7 10 -1 -1</clus>
<clus scale="   33.786">  2  5  1 -1</clus>
</clustering>
</event>
<event>
10    4  0.2759992E-005  0.2330942E+03  0.7546771E-02  0.1159360E+00
         -1   -1    0    0    0  501 -0.00000000000E+00  0.00000000000E+00  0.60242565601E+03  0.60242565601E+03  0.00000000000E+00 0.  1.
         21   -1    0    0  503  502  0.00000000000E+00 -0.00000000000E+00 -0.21838009539E+03  0.21838009539E+03  0.00000000000E+00 0.  1.
         24    2    1    2    0    0  0.18897478714E+02  0.59338707403E+02  0.19583738881E+03  0.22024095191E+03  0.79218666635E+02 0.  0.
         23    2    1    2    0    0  0.20818255063E+02  0.54446902480E+02  0.14911753534E+03  0.18455900556E+03  0.91804805190E+02 0.  0.
        -11    1    3    3    0    0  0.19605783899E+02  0.27598552981E+02  0.18281969858E+03  0.18592769852E+03  0.00000000000E+00 0.  1.
         12    1    3    3    0    0 -0.70830518500E+00  0.31740154422E+02  0.13017690230E+02  0.34313253385E+02  0.00000000000E+00 0. -1.
        -11    1    4    4    0    0  0.18425512215E+02  0.74593779666E+02  0.73728373195E+02  0.10648757899E+03  0.00000000000E+00 0.  1.
         11    1    4    4    0    0  0.23927428481E+01 -0.20146877186E+02  0.75389162141E+02  0.78071426572E+02  0.00000000000E+00 0. -1.
         21    1    1    2  503  501 -0.13419788309E+03 -0.11085602871E+03 -0.13340618443E+03  0.21930650006E+03  0.00000000000E+00 0.  1.
         -2    1    1    2    0  502  0.94482149310E+02 -0.29295811717E+01  0.17249682091E+03  0.19669929386E+03  0.00000000000E+00 0.  1.
<scales pt_clust_5="13000.00000" pt_clust_6="13000.00000" pt_clust_7="13000.00000" pt_clust_8="13000.00000" pt_clust_9="168.40136" pt_clust_10="13000.00000"></scales>
<clustering>
<clus scale="   79.219">  5  6 -1 -1</clus>
<clus scale="   91.805">  7  8 -1 -1</clus>
<clus scale="   94.528">  7 10 -1 -1</clus>
<clus scale="  100.766">  1  5  2 -1</clus>
<clus scale="  168.401">  2  9  1 -1</clus>
<clus scale="  168.401">  2  5  1 -1</clus>
</clustering>
</event>
<event>
10    4  0.2759992E-005  0.1974644E+03  0.7546771E-02  0.1177452E+00
         -3   -1    0    0    0  501 -0.00000000000E+00  0.00000000000E+00  0.14378419568E+03  0.14378419568E+03  0.00000000000E+00 0.  1.
         21   -1    0    0  501  502  0.00000000000E+00 -0.00000000000E+00 -0.78214098220E+03  0.78214098220E+03  0.00000000000E+00 0. -1.
         24    2    1    2    0    0 -0.68561650047E+02  0.24776512222E+00  0.71082638661E+02  0.12752352166E+03  0.80676798476E+02 0.  0.
         23    2    1    2    0    0  0.10318824051E+03  0.17100113846E+02 -0.26501430195E+03  0.29874931922E+03  0.89879634065E+02 0.  0.
        -11    1    3    3    0    0 -0.83679700392E+02 -0.10001486898E+02  0.69415927040E+02  0.10918284171E+03  0.00000000000E+00 0.  1.
         12    1    3    3    0    0  0.15118050345E+02  0.10249252020E+02  0.16667116217E+01  0.18340679945E+02  0.00000000000E+00 0. -1.
        -13    1    4    4    0    0  0.98271153019E+02 -0.10926072770E+02 -0.24430839213E+03  0.26355870133E+03  0.00000000000E+00 0. -1.
         13    1    4    4    0    0  0.49170874892E+01  0.28026186616E+02 -0.20705909824E+02  0.35190617887E+02  0.00000000000E+00 0.  1.
         21    1    1    2  503  502 -0.67168175324E+02  0.40841421241E+02 -0.42207842988E+03  0.42933644900E+03  0.00000000000E+00 0.  1.
         -4    1    1    2    0  503  0.32541584863E+02 -0.58189300208E+02 -0.22346693344E+02  0.70315888016E+02  0.00000000000E+00 0.  1.
<scales pt_clust_5="13000.00000" pt_clust_6="13000.00000" pt_clust_7="13000.00000" pt_clust_8="13000.00000" pt_clust_9="78.61034" pt_clust_10="13000.00000"></scales>
<clustering>
<clus scale="   78.610">  2  9  1 -1</clus>
<clus scale="   80.677">  5  6 -1 -1</clus>
<clus scale="   89.880">  7  8 -1 -1</clus>
<clus scale="   57.994">  7 10 -1 -1</clus>
<clus scale="  109.449">  1  5  2 -1</clus>
<clus scale="   78.610">  2  5  1 -1</clus>
</clustering>
</event>
<event>
10    4  0.2759992E-005  0.5952694E+03  0.7546771E-02  0.1012822E+00
          2   -1    0    0  502    0 -0.00000000000E+00  0.00000000000E+00  0.57507398488E+03  0.57507398488E+03  0.00000000000E+00 0. -1.
         21   -1    0    0  503  502  0.00000000000E+00 -0.00000000000E+00 -0.47966628972E+03  0.47966628972E+03  0.00000000000E+00 0. -1.
         24    2    1    2    0    0  0.29777789552E+03  0.29448918808E+02  0.14790701904E+03  0.34319217733E+03  0.79783898224E+02 0.  0.
         23    2    1    2    0    0  0.59691994309E+02  0.10015599400E+03  0.15804361745E+03  0.21375922374E+03  0.84385208428E+02 0.  0.
        -11    1    3    3    0    0  0.17016560583E+03  0.66896810603E+01  0.12573286920E+03  0.21168334757E+03  0.00000000000E+00 0.  1.
         12    1    3    3    0    0  0.12761228969E+03  0.22759237748E+02  0.22174149842E+02  0.13150882976E+03  0.00000000000E+00 0. -1.
        -13    1    4    4    0    0  0.29218678561E+02 -0.52595252549E+01  0.58508107360E+02  0.65609392693E+02  0.00000000000E+00 0. -1.
         13    1    4    4    0    0  0.30473315748E+02  0.10541551925E+03  0.99535510087E+02  0.14814983105E+03  0.00000000000E+00 0.  1.
         21    1    1    2  503  501 -0.18857608945E+02  0.12234574491E+02 -0.11672710508E+03  0.11887182714E+03  0.00000000000E+00 0.  1.
          1    1    1    2  501    0 -0.33861228088E+03 -0.14183948729E+03 -0.93815836252E+02  0.37891704640E+03  0.00000000000E+00 0. -1.
<scales pt_clust_5="13000.00000" pt_clust_6="13000.00000" pt_clust_7="13000.00000" pt_clust_8="13000.00000" pt_clust_9="22.47875" pt_clust_10="13000.00000"></scales>
<clustering>
<clus scale="   22.479">  2  9  1 -1</clus>
<clus scale="   79.784">  5  6 -1 -1</clus>
<clus scale="   84.385">  7  8 -1 -1</clus>
<clus scale="  305.131">  1  5  2 -1</clus>
<clus scale="  250.792">  7 10 -1 -1</clus>
<clus scale="   22.479">  2  5  1 -1</clus>
</clustering>
</event>
<event>
10    4  0.2759992E-005  0.2558619E+03  0.7546771E-02  0.1131329E+00
         21   -1    0    0  503  502  0.00000000000E+00  0.00000000000E+00  0.69212871991E+03  0.69212871991E+03  0.00000000000E+00 0. -1.
          2   -1    0    0  502    0 -0.00000000000E+00 -0.00000000000E+00 -0.53198172050E+03  0.53198172050E+03  0.00000000000E+00 0. -1.
         24    2    1    2    0    0  0.43317707515E+02 -0.11647147713E+03  0.59250644116E+02  0.16022114032E+03  0.81964298372E+02 0.  0.
         23    2    1    2    0    0  0.94247655653E+01  0.86536058539E+02 -0.95312741627E+02  0.15839354427E+03  0.91796952649E+02 0.  0.
        -13    1    3    3    0    0  0.69910767926E+00 -0.20301440537E+02 -0.20008690234E+02  0.28512890494E+02  0.00000000000E+00 0.  1.
         14    1    3    3    0    0  0.42618599836E+02 -0.96170036595E+02  0.79259334350E+02  0.13170824983E+03  0.00000000000E+00 0. -1.
        -11    1    4    4    0    0  0.42440403294E+02  0.62092078408E+02 -0.29451935955E+02  0.80771471227E+02  0.00000000000E+00 0.  1.
         11    1    4    4    0    0 -0.33015637728E+02  0.24443980131E+02 -0.65860805672E+02  0.77622073040E+02  0.00000000000E+00 0. -1.
         21    1    1    2  503  501 -0.14493149057E+03 -0.69924395533E+02  0.52532708405E+03  0.54942069790E+03  0.00000000000E+00 0. -1.
          1    1    1    2  501    0  0.92189017491E+02  0.99859814126E+02 -0.32911798713E+03  0.35607505792E+03  0.00000000000E+00 0. -1.
<scales pt_clust_5="13000.00000" pt_clust_6="13000.00000" pt_clust_7="13000.00000" pt_clust_8="13000.00000" pt_clust_9="161.23772" pt_clust_10="13000.00000"></scales>
<clustering>
<clus scale="   81.964">  5  6 -1 -1</clus>
<clus scale="   91.797">  7  8 -1 -1</clus>
<clus scale="  135.907">  7 10 -1 -1</clus>
<clus scale="  148.863">  2  5  1 -1</clus>
<clus scale="  161.238">  1  9  2 -1</clus>
<clus scale="  161.238">  1  5  2 -1</clus>
</clustering>
</event>
<event>
10    4  0.2759992E-005  0.2677534E+03  0.7546771E-02  0.1150191E+00
          2   -1    0    0  503    0 -0.00000000000E+00  0.00000000000E+00  0.91091052451E+03  0.91091052451E+03  0.00000000000E+00 0. -1.
         21   -1    0    0  501  502  0.00000000000E+00 -0.00000000000E+00 -0.14578106643E+03  0.14578106643E+03  0.00000000000E+00 0. -1.
         24    2    1    2    0    0 -0.15766848710E+02 -0.10567991681E+02  0.59265743472E+03  0.59836696410E+03  0.80249067474E+02 0.  0.
         23    2    1    2    0    0 -0.55182522533E+02 -0.40141480885E+02  0.99030333091E+02  0.15136341131E+03  0.91909880478E+02 0.  0.
        -13    1    3    3    0    0  0.22758942483E+02 -0.14630857541E+02  0.84296214541E+02  0.88531820501E+02  0.00000000000E+00 0.  1.
         14    1    3    3    0    0 -0.38525791193E+02  0.40628658597E+01  0.50836122017E+03  0.50983514359E+03  0.00000000000E+00 0. -1.
        -11    1    4    4    0    0 -0.35195722667E+02  0.60941598062E+01 -0.47219894439E+01  0.36030193757E+02  0.00000000000E+00 0.  1.
         11    1    4    4    0    0 -0.19986799866E+02 -0.46235640691E+02  0.10375232254E+03  0.11533321755E+03  0.00000000000E+00 0. -1.
         21    1    1    2  503  502 -0.85404679007E+02  0.52678264959E+02 -0.45814136990E+02  0.11030817714E+03  0.00000000000E+00 0. -1.
          1    1    1    2  501    0  0.15635405025E+03 -0.19687923932E+01  0.11925582726E+03  0.19665303839E+03  0.00000000000E+00 0. -1.
<scales pt_clust_5="13000.00000" pt_clust_6="13000.00000" pt_clust_7="13000.00000" pt_clust_8="13000.00000" pt_clust_9="101.16441" pt_clust_10="13000.00000"></scales>
<clustering>
<clus scale="   80.249">  5  6 -1 -1</clus>
<clus scale="   82.463">  1  5  2 -1</clus>
<clus scale="   91.910">  7  8 -1 -1</clus>
<clus scale="  101.164">  2  9  1 -1</clus>
<clus scale="  103.255">  7 10 -1 -1</clus>
<clus scale="  101.164">  2  5  1 -1</clus>
</clustering>
</event>
<event>
10    4  0.2759992E-005  0.9752744E+03  0.7546771E-02  0.9659671E-01
         21   -1    0    0  501  502  0.00000000000E+00  0.00000000000E+00  0.55567613426E+03  0.55567613426E+03  0.00000000000E+00 0.  1.
          2   -1    0    0  503    0 -0.00000000000E+00 -0.00000000000E+00 -0.21333537113E+04  0.21333537113E+04  0.00000000000E+00 0. -1.
         24    2    1    2    0    0 -0.15952094817E+03  0.25879663179E+03  0.81555261051E+02  0.32450210184E+03  0.78915929721E+02 0.  0.
         23    2    1    2    0    0 -0.42189574387E+02  0.17755116993E+03 -0.19311808970E+02  0.20468138246E+03  0.90648465122E+02 0.  0.
        -11    1    3    3    0    0 -0.40524570676E+02  0.13503849453E+03  0.21515511945E+02  0.14262031093E+03  0.00000000000E+00 0.  1.
         12    1    3    3    0    0 -0.11899637749E+03  0.12375813725E+03  0.60039749106E+02  0.18188179091E+03  0.00000000000E+00 0. -1.
        -13    1    4    4    0    0  0.13767472836E+02  0.35884632649E+02  0.25240598322E+02  0.45981930933E+02  0.00000000000E+00 0.  1.
         13    1    4    4    0    0 -0.55957047223E+02  0.14166653728E+03 -0.44552407292E+02  0.15869945152E+03  0.00000000000E+00 0. -1.
         21    1    1    2  503  502 -0.42802870097E+03 -0.55219267632E+03 -0.52420514378E+03  0.87345083056E+03  0.00000000000E+00 0.  1.
          1    1    1    2  501    0  0.62973922353E+03  0.11584487461E+03 -0.11157158853E+04  0.12863955307E+04  0.00000000000E+00 0. -1.
<scales pt_clust_5="13000.00000" pt_clust_6="13000.00000" pt_clust_7="13000.00000" pt_clust_8="13000.00000" pt_clust_9="668.90471" pt_clust_10="13000.00000"></scales>
<clustering>
<clus scale="   78.916">  5  6 -1 -1</clus>
<clus scale="   90.648">  7  8 -1 -1</clus>
<clus scale="  314.087">  2  5  1 -1</clus>
<clus scale="  598.986">  7 10 -1 -1</clus>
<clus scale="  668.905">  1  9  2 -1</clus>
<clus scale="  668.905">  1  5  2 -1</clus>
</clustering>
</event>
<event>
10    4  0.2759992E-005  0.2833287E+03  0.7546771E-02  0.1142558E+00
         21   -1    0    0  501  502  0.00000000000E+00  0.00000000000E+00  0.17898435048E+03  0.17898435048E+03  0.00000000000E+00 0.  1.
          2   -1    0    0  503    0 -0.00000000000E+00 -0.00000000000E+00 -0.59534787416E+03  0.59534787416E+03  0.00000000000E+00 0. -1.
         24    2    1    2    0    0  0.81763791787E+01  0.43174521447E+02 -0.86067802371E+01  0.92438284739E+02  0.80869446275E+02 0.  0.
         23    2    1    2    0    0  0.24395491361E+01  0.10162276487E+03 -0.11665003025E+03  0.18003745855E+03  0.92049547440E+02 0.  0.
        -13    1    3    3    0    0  0.30182202880E+01  0.62635679935E+02 -0.23948743184E+02  0.67125854592E+02  0.00000000000E+00 0.  1.
         14    1    3    3    0    0  0.51581588907E+01 -0.19461158489E+02  0.15341962947E+02  0.25312430147E+02  0.00000000000E+00 0. -1.
        -11    1    4    4    0    0 -0.38185160763E+02  0.50722756352E+02 -0.26436378367E+02  0.68773444117E+02  0.00000000000E+00 0.  1.
         11    1    4    4    0    0  0.40624709900E+02  0.50900008513E+02 -0.90213651885E+02  0.11126401443E+03  0.00000000000E+00 0. -1.
         21    1    1    2  503  502  0.11822951350E+02 -0.53417649261E+02  0.92177694809E+02  0.10719120697E+03  0.00000000000E+00 0.  1.
          1    1    1    2  501    0 -0.22438879665E+02 -0.91379637050E+02 -0.38328440800E+03  0.39466527438E+03  0.00000000000E+00 0. -1.
<scales pt_clust_5="13000.00000" pt_clust_6="13000.00000" pt_clust_7="13000.00000" pt_clust_8="13000.00000" pt_clust_9="54.71040" pt_clust_10="13000.00000"></scales>
<clustering>
<clus scale="   54.710">  1  9  2 -1</clus>
<clus scale="   80.869">  5  6 -1 -1</clus>
<clus scale="   83.493">  2  5  1 -1</clus>
<clus scale="   92.050">  7  8 -1 -1</clus>
<clus scale="   84.357">  7 10 -1 -1</clus>
<clus scale="   54.710">  1  5  2 -1</clus>
</clustering>
</event>
<event>
10    4  0.2759992E-005  0.1692105E+03  0.7546771E-02  0.1206437E+00
          2   -1    0    0  502    0 -0.00000000000E+00  0.00000000000E+00  0.44463470463E+03  0.44463470463E+03  0.00000000000E+00 0. -1.
         21   -1    0    0  503  502  0.00000000000E+00 -0.00000000000E+00 -0.48081719726E+02  0.48081719726E+02  0.00000000000E+00 0.  1.
         24    2    1    2    0    0 -0.29723559513E+02 -0.29495689235E+02  0.80270565163E+02  0.11820965108E+03  0.76004422911E+02 0.  0.
         23    2    1    2    0    0 -0.20698552644E+02  0.34568307287E+02  0.24441937374E+03  0.26368944236E+03  0.90376400669E+02 0.  0.
        -11    1    3    3    0    0 -0.45848461598E+02 -0.38132916806E+02  0.34442538057E+02  0.68865733154E+02  0.00000000000E+00 0.  1.
         12    1    3    3    0    0  0.16124902085E+02  0.86372275705E+01  0.45828027107E+02  0.49343917921E+02  0.00000000000E+00 0. -1.
        -11    1    4    4    0    0  0.55713135760E+01 -0.27386560901E+02  0.10824761446E+03  0.11179717925E+03  0.00000000000E+00 0.  1.
         11    1    4    4    0    0 -0.26269866220E+02  0.61954868188E+02  0.13617175929E+03  0.15189226311E+03  0.00000000000E+00 0. -1.
         21    1    1    2  503  501 -0.73943379708E+01 -0.22727995610E+02  0.19830508388E+02  0.31056192320E+02  0.00000000000E+00 0. -1.
          1    1    1    2  501    0  0.57816450128E+02  0.17655377558E+02  0.52032537612E+02  0.79761138610E+02  0.00000000000E+00 0. -1.
<scales pt_clust_5="13000.00000" pt_clust_6="13000.00000" pt_clust_7="13000.00000" pt_clust_8="13000.00000" pt_clust_9="23.90059" pt_clust_10="13000.00000"></scales>
<clustering>
<clus scale="   23.901">  2  9  1 -1</clus>
<clus scale="   76.004">  5  6 -1 -1</clus>
<clus scale="   90.376">  7  8 -1 -1</clus>
<clus scale="   56.340">  7 10 -1 -1</clus>
<clus scale="   91.866">  1  5  2 -1</clus>
<clus scale="   23.901">  2  5  1 -1</clus>
</clustering>
</event>
<event>
10    4  0.2759992E-005  0.3049540E+03  0.7546771E-02  0.1084600E+00
         21   -1    0    0  503  502  0.00000000000E+00  0.00000000000E+00  0.78165630815E+03  0.78165630815E+03  0.00000000000E+00 0.  1.
          2   -1    0    0  502    0 -0.00000000000E+00 -0.00000000000E+00 -0.17545563113E+04  0.17545563113E+04  0.00000000000E+00 0. -1.
         24    2    1    2    0    0  0.40288329739E+03  0.11546212102E+03 -0.88385954968E+03  0.98148583172E+03  0.80375876945E+02 0.  0.
         23    2    1    2    0    0 -0.16065091253E+03 -0.45971187841E+01 -0.46894515241E+03  0.50312133563E+03  0.85974840522E+02 0.  0.
        -13    1    3    3    0    0  0.12877186494E+03  0.18906028676E+02 -0.35385064342E+03  0.37702772971E+03  0.00000000000E+00 0.  1.
         14    1    3    3    0    0  0.27411143246E+03  0.96556092340E+02 -0.53000890626E+03  0.60445810201E+03  0.00000000000E+00 0. -1.
        -11    1    4    4    0    0 -0.12925859857E+03 -0.20024734481E+02 -0.25764788137E+03  0.28894844881E+03  0.00000000000E+00 0. -1.
         11    1    4    4    0    0 -0.31392313966E+02  0.15427615697E+02 -0.21129727103E+03  0.21417288682E+03  0.00000000000E+00 0.  1.
         21    1    1    2  503  501 -0.17903166500E+03 -0.10641089867E+03  0.69740836110E+03  0.72784204231E+03  0.00000000000E+00 0.  1.
          1    1    1    2  501    0 -0.63200719858E+02 -0.44541035591E+01 -0.31750366216E+03  0.32376340978E+03  0.00000000000E+00 0. -1.
<scales pt_clust_5="13000.00000" pt_clust_6="13000.00000" pt_clust_7="13000.00000" pt_clust_8="13000.00000" pt_clust_9="208.26814" pt_clust_10="13000.00000"></scales>
<clustering>
<clus scale="   80.376">  5  6 -1 -1</clus>
<clus scale="   85.975">  7  8 -1 -1</clus>
<clus scale="   63.358">  7 10 -1 -1</clus>
<clus scale="  208.268">  1  9  2 -1</clus>
<clus scale="  290.538">  2  5  1 -1</clus>
<clus scale="  208.268">  1  5  2 -1</clus>
</clustering>
</event>
<event>
10    4  0.2759992E-005  0.1334760E+03  0.7546771E-02  0.1238434E+00
         21   -1    0    0  501  502  0.00000000000E+00  0.00000000000E+00  0.14781456431E+03  0.14781456431E+03  0.00000000000E+00 0.  1.
          2   -1    0    0  503    0 -0.00000000000E+00 -0.00000000000E+00 -0.60007904740E+03  0.60007904740E+03  0.00000000000E+00 0. -1.
         24    2    1    2    0    0 -0.43614266041E+02  0.27415873156E+02 -0.48121033463E+03  0.49044223496E+03  0.79475564652E+02 0.  0.
         23    2    1    2    0    0  0.48779517493E+02 -0.44956488295E+02 -0.33968683913E+02  0.11796670825E+03  0.91442580900E+02 0.  0.
        -11    1    3    3    0    0 -0.14924174223E+02  0.45890336354E+02 -0.15219465221E+03  0.15966172399E+03  0.00000000000E+00 0.  1.
         12    1    3    3    0    0 -0.28690091819E+02 -0.18474463198E+02 -0.32901568242E+03  0.33078051097E+03  0.00000000000E+00 0. -1.
        -11    1    4    4    0    0  0.50493508465E+02 -0.69083346533E+02 -0.14224118330E+02  0.86743464927E+02  0.00000000000E+00 0.  1.
         11    1    4    4    0    0 -0.17139909720E+01  0.24126858238E+02 -0.19744565582E+02  0.31223243322E+02  0.00000000000E+00 0. -1.
         21    1    1    2  503  502 -0.23367544847E+02  0.47471917601E+01  0.96386977455E+02  0.99292635199E+02  0.00000000000E+00 0.  1.
          1    1    1    2  501    0  0.18202293395E+02  0.12793423379E+02 -0.33472442002E+02  0.40192033293E+02  0.00000000000E+00 0. -1.
<scales pt_clust_5="13000.00000" pt_clust_6="13000.00000" pt_clust_7="13000.00000" pt_clust_8="13000.00000" pt_clust_9="23.84487" pt_clust_10="13000.00000"></scales>
<clustering>
<clus scale="   23.845">  1  9  2 -1</clus>
<clus scale="   79.476">  5  6 -1 -1</clus>
<clus scale="   91.443">  7  8 -1 -1</clus>
<clus scale="   21.179">  7 10 -1 -1</clus>
<clus scale="   95.851">  2  5  1 -1</clus>
<clus scale="   23.845">  1  5  2 -1</clus>
</clustering>
</event>
<event>
10    4  0.2759992E-005  0.5431028E+03  0.7546771E-02  0.1008647E+00
         -1   -1    0    0    0  501 -0.00000000000E+00  0.00000000000E+00  0.63197225997E+03  0.63197225997E+03  0.00000000000E+00 0.  1.
         21   -1    0    0  501  502  0.00000000000E+00 -0.00000000000E+00 -0.46123406303E+03  0.46123406303E+03  0.00000000000E+00 0.  1.
         24    2    1    2    0    0 -0.15705331693E+03  0.40875339146E+03  0.11113630160E+03  0.45892143059E+03  0.80700201571E+02 0.  0.
         23    2    1    2    0    0 -0.45364470997E+01 -0.37011894605E+02  0.94846859638E+02  0.13551122020E+03  0.89313517021E+02 0.  0.
        -13    1    3    3    0    0 -0.31189689901E+02  0.16795533835E+03  0.18361350323E+02  0.17181074362E+03  0.00000000000E+00 0.  1.
         14    1    3    3    0    0 -0.12586362703E+03  0.24079805311E+03  0.92774951281E+02  0.28711068698E+03  0.00000000000E+00 0. -1.
        -13    1    4    4    0    0 -0.43026089233E+02 -0.25270690523E+02  0.27279079459E+02  0.56868271736E+02  0.00000000000E+00 0.  1.
         13    1    4    4    0    0  0.38489642133E+02 -0.11741204082E+02  0.67567780180E+02  0.78642948465E+02  0.00000000000E+00 0. -1.
         21    1    1    2  503  502  0.95467333442E+01  0.32802965765E+02 -0.56558114355E+02  0.66075676159E+02  0.00000000000E+00 0. -1.
         -2    1    1    2    0  503  0.15204303068E+03 -0.40454446262E+03  0.21313150053E+02  0.43269799605E+03  0.00000000000E+00 0.  1.
<scales pt_clust_5="13000.00000" pt_clust_6="13000.00000" pt_clust_7="13000.00000" pt_clust_8="13000.00000" pt_clust_9="34.16394" pt_clust_10="13000.00000"></scales>
<clustering>
<clus scale="   34.164">  2  9  1 -1</clus>
<clus scale="   80.700">  5  6 -1 -1</clus>
<clus scale="   89.314">  7  8 -1 -1</clus>
<clus scale="  418.240">  7 10 -1 -1</clus>
<clus scale="  456.985">  1  5  2 -1</clus>
<clus scale="   34.164">  2  5  1 -1</clus>
</clustering>
</event>
<event>
10    4  0.2759992E-005  0.2429725E+03  0.7546771E-02  0.1163150E+00
          2   -1    0    0  503    0 -0.00000000000E+00  0.00000000000E+00  0.26170803219E+03  0.26170803219E+03  0.00000000000E+00 0. -1.
         21   -1    0    0  501  502  0.00000000000E+00 -0.00000000000E+00 -0.15714294773E+03  0.15714294773E+03  0.00000000000E+00 0.  1.
         24    2    1    2    0    0 -0.69914840830E+01  0.16606953077E+02  0.10092648154E+03  0.12957335229E+03  0.79236526981E+02 0.  0.
         23    2    1    2    0    0 -0.29758750424E+02  0.14873631847E+02 -0.77663930238E+02  0.12316540781E+03  0.89617093619E+02 0.  0.
        -11    1    3    3    0    0  0.35679857126E+02  0.14567491885E+02  0.47696936465E+02  0.61320973349E+02  0.00000000000E+00 0.  1.
         12    1    3    3    0    0 -0.42671341209E+02  0.20394611923E+01  0.53229545077E+02  0.68252378945E+02  0.00000000000E+00 0. -1.
        -11    1    4    4    0    0 -0.18032708028E+02 -0.21034580645E+02  0.85861421738E+01  0.29006102447E+02  0.00000000000E+00 0. -1.
         11    1    4    4    0    0 -0.11726042397E+02  0.35908212492E+02 -0.86250072412E+02  0.94159305359E+02  0.00000000000E+00 0.  1.
         21    1    1    2  503  502  0.21146761161E+02  0.15153306984E+02 -0.32799726535E+02  0.41864427393E+02  0.00000000000E+00 0.  1.
          1    1    1    2  501    0  0.15603473346E+02 -0.46633891908E+02  0.11410225970E+03  0.12424779243E+03  0.00000000000E+00 0. -1.
<scales pt_clust_5="13000.00000" pt_clust_6="13000.00000" pt_clust_7="13000.00000" pt_clust_8="13000.00000" pt_clust_9="26.01554" pt_clust_10="13000.00000"></scales>
<clustering>
<clus scale="   26.016">  2  9  1 -1</clus>
<clus scale="   79.237">  5  6 -1 -1</clus>
<clus scale="   81.471">  1  5  2 -1</clus>
<clus scale="   89.617">  7  8 -1 -1</clus>
<clus scale="   33.607">  7 10 -1 -1</clus>
<clus scale="   26.016">  2  5  1 -1</clus>
</clustering>
</event>
<event>
10    4  0.2759992E-005  0.4677299E+03  0.7546771E-02  0.1045607E+00
          2   -1    0    0  502    0 -0.00000000000E+00  0.00000000000E+00  0.95748363846E+03  0.95748363846E+03  0.00000000000E+00 0. -1.
         21   -1    0    0  503  502  0.00000000000E+00 -0.00000000000E+00 -0.54010663290E+03  0.54010663290E+03  0.00000000000E+00 0. -1.
         24    2    1    2    0    0 -0.18702436798E+03 -0.12092128134E+03  0.79987156081E+03  0.83415860056E+03  0.80162251697E+02 0.  0.
         23    2    1    2    0    0  0.18983119511E+02 -0.13197252490E+03 -0.77692847403E+02  0.17855617164E+03  0.89827733683E+02 0.  0.
        -13    1    3    3    0    0 -0.67808529480E+02 -0.59491816505E+02  0.19882466389E+03  0.21833121598E+03  0.00000000000E+00 0.  1.
         14    1    3    3    0    0 -0.11921583850E+03 -0.61429464836E+02  0.60104689692E+03  0.61582738458E+03  0.00000000000E+00 0. -1.
        -13    1    4    4    0    0  0.29691485121E+02 -0.39479887888E+02  0.10282541446E+02  0.50457670328E+02  0.00000000000E+00 0.  1.
         13    1    4    4    0    0 -0.10708365610E+02 -0.92492637014E+02 -0.87975388849E+02  0.12809850131E+03  0.00000000000E+00 0. -1.
         21    1    1    2  503  501 -0.21269481131E+02  0.16738196236E+01 -0.11612013119E+03  0.11806386986E+03  0.00000000000E+00 0.  1.
          1    1    1    2  501    0  0.18931072960E+03  0.25121998662E+03 -0.18868157666E+03  0.36681162930E+03  0.00000000000E+00 0. -1.
<scales pt_clust_5="13000.00000" pt_clust_6="13000.00000" pt_clust_7="13000.00000" pt_clust_8="13000.00000" pt_clust_9="21.33524" pt_clust_10="13000.00000"></scales>
<clustering>
<clus scale="   21.335">  2  9  1 -1</clus>
<clus scale="   80.162">  5  6 -1 -1</clus>
<clus scale="   89.828">  7  8 -1 -1</clus>
<clus scale="  237.345">  1  5  2 -1</clus>
<clus scale="  185.417">  7 10 -1 -1</clus>
<clus scale="   21.335">  2  5  1 -1</clus>
</clustering>
</event>
<event>
10    4  0.2759992E-005  0.2272111E+03  0.7546771E-02  0.1149344E+00
         21   -1    0    0  503  502  0.00000000000E+00  0.00000000000E+00  0.18035046871E+03  0.18035046871E+03  0.00000000000E+00 0.  1.
          2   -1    0    0  502    0 -0.00000000000E+00 -0.00000000000E+00 -0.53349187700E+03  0.53349187700E+03  0.00000000000E+00 0. -1.
         24    2    1    2    0    0  0.13005205064E+03  0.10713295268E+02  0.92456304005E+01  0.15460529464E+03  0.82395417826E+02 0.  0.
         23    2    1    2    0    0 -0.14873720251E+03  0.22932373211E+02 -0.35473870462E+03  0.39569192502E+03  0.89910521210E+02 0.  0.
        -13    1    3    3    0    0  0.13587206283E+03  0.25398004389E+02  0.11250659606E+02  0.13868256353E+03  0.00000000000E+00 0.  1.
         14    1    3    3    0    0 -0.58200121951E+01 -0.14684709121E+02 -0.20050292055E+01  0.15922731111E+02  0.00000000000E+00 0. -1.
        -11    1    4    4    0    0 -0.13834921505E+03 -0.10667063582E+02 -0.26137802153E+03  0.29592695330E+03  0.00000000000E+00 0. -1.
         11    1    4    4    0    0 -0.10387987454E+02  0.33599436793E+02 -0.93360683088E+02  0.99764971722E+02  0.00000000000E+00 0.  1.
         21    1    1    2  503  501 -0.28826348709E+02 -0.40635307233E+02  0.61630406324E+02  0.79249565030E+02  0.00000000000E+00 0. -1.
          1    1    1    2  501    0  0.47511500578E+02  0.69896387546E+01 -0.69278740393E+02  0.84295561019E+02  0.00000000000E+00 0. -1.
<scales pt_clust_5="13000.00000" pt_clust_6="13000.00000" pt_clust_7="13000.00000" pt_clust_8="13000.00000" pt_clust_9="49.82155" pt_clust_10="13000.00000"></scales>
<clustering>
<clus scale="   49.822">  1  9  2 -1</clus>
<clus scale="   82.395">  5  6 -1 -1</clus>
<clus scale="   89.911">  7  8 -1 -1</clus>
<clus scale="   45.737">  7 10 -1 -1</clus>
<clus scale="  137.690">  2  5  1 -1</clus>
<clus scale="   49.822">  1  5  2 -1</clus>
</clustering>
</event>
<event>
10    4  0.2759992E-005  0.4931685E+03  0.7546771E-02  0.1087207E+00
         21   -1    0    0  501  502  0.00000000000E+00  0.00000000000E+00  0.23020463377E+03  0.23020463377E+03  0.00000000000E+00 0.  1.
          2   -1    0    0  503    0 -0.00000000000E+00 -0.00000000000E+00 -0.63806085275E+03  0.63806085275E+03  0.00000000000E+00 0. -1.
         24    2    1    2    0    0 -0.36531659271E+01 -0.16695228080E+02  0.45529335470E+02  0.76423038165E+02  0.58953236654E+02 0.  0.
         23    2    1    2    0    0 -0.75447578328E+02 -0.16854017894E+03 -0.73889096784E+02  0.21872125342E+03  0.91001423511E+02 0.  0.
        -11    1    3    3    0    0  0.59577019660E+01  0.20788495856E+02  0.23330863555E+02  0.31811711160E+02  0.00000000000E+00 0.  1.
         12    1    3    3    0    0 -0.96108678931E+01 -0.37483723936E+02  0.22198471915E+02  0.44611327005E+02  0.00000000000E+00 0. -1.
        -11    1    4    4    0    0 -0.54785718283E+02 -0.97293969531E+02  0.32435366817E+01  0.11170546972E+03  0.00000000000E+00 0.  1.
         11    1    4    4    0    0 -0.20661860045E+02 -0.71246209410E+02 -0.77132633466E+02  0.10701578370E+03  0.00000000000E+00 0. -1.
         21    1    1    2  503  502 -0.11524240704E+01 -0.21149943834E+02  0.69409496706E+02  0.72569459405E+02  0.00000000000E+00 0.  1.
          1    1    1    2  501    0  0.80253168325E+02  0.20638535086E+03 -0.44890595437E+03  0.50055173553E+03  0.00000000000E+00 0. -1.
<scales pt_clust_5="13000.00000" pt_clust_6="13000.00000" pt_clust_7="13000.00000" pt_clust_8="13000.00000" pt_clust_9="21.18132" pt_clust_10="13000.00000"></scales>
<clustering>
<clus scale="   21.181">  1  9  2 -1</clus>
<clus scale="   58.953">  5  6 -1 -1</clus>
<clus scale="   64.086">  2  5  1 -1</clus>
<clus scale="   91.001">  7  8 -1 -1</clus>
<clus scale="  199.953">  7 10 -1 -1</clus>
<clus scale="   21.181">  1  5  2 -1</clus>
</clustering>
</event>
<event>
10    4  0.2759992E-005  0.3392402E+03  0.7546771E-02  0.1116633E+00
         21   -1    0    0  503  502  0.00000000000E+00  0.00000000000E+00  0.40068572404E+02  0.40068572404E+02  0.00000000000E+00 0.  1.
          4   -1    0    0  502    0 -0.00000000000E+00 -0.00000000000E+00 -0.14283821458E+04  0.14283821458E+04  0.00000000000E+00 0. -1.
         24    2    1    2    0    0  0.52893350052E+02 -0.16816410696E+02 -0.19152618574E+03  0.21419365173E+03  0.78205770041E+02 0.  0.
         23    2    1    2    0    0  0.11077737829E+03  0.13003003672E+02 -0.27821404749E+03  0.31452841515E+03  0.95311919875E+02 0.  0.
        -13    1    3    3    0    0  0.53116268304E+02 -0.36274388163E+02 -0.88840658193E+02  0.10968058964E+03  0.00000000000E+00 0.  1.
         14    1    3    3    0    0 -0.22291825270E+00  0.19457977467E+02 -0.10268552755E+03  0.10451306209E+03  0.00000000000E+00 0. -1.
        -13    1    4    4    0    0  0.66243929898E+01  0.29572941776E+02 -0.21974044038E+02  0.37433942875E+02  0.00000000000E+00 0.  1.
         13    1    4    4    0    0  0.10415298530E+03 -0.16569938105E+02 -0.25624000345E+03  0.27709447228E+03  0.00000000000E+00 0. -1.
         21    1    1    2  503  501 -0.21984529835E+02  0.30510168605E+01 -0.19455254034E+02  0.29514998992E+02  0.00000000000E+00 0. -1.
          3    1    1    2  501    0 -0.14168619851E+03  0.76239016415E+00 -0.89911808615E+03  0.91021365235E+03  0.00000000000E+00 0. -1.
<scales pt_clust_5="13000.00000" pt_clust_6="13000.00000" pt_clust_7="13000.00000" pt_clust_8="13000.00000" pt_clust_9="22.19523" pt_clust_10="13000.00000"></scales>
<clustering>
<clus scale="   22.195">  1  9  2 -1</clus>
<clus scale="   78.206">  5  6 -1 -1</clus>
<clus scale="   91.993">  2  5  1 -1</clus>
<clus scale="   95.312">  7  8 -1 -1</clus>
<clus scale="  110.336">  7 10 -1 -1</clus>
<clus scale="   22.195">  1  5  2 -1</clus>
</clustering>
</event>
<event>
10    4  0.2759992E-005  0.1554818E+03  0.7546771E-02  0.1222061E+00
          4   -1    0    0  503    0 -0.00000000000E+00  0.00000000000E+00  0.30926009958E+03  0.30926009958E+03  0.00000000000E+00 0. -1.
         21   -1    0    0  501  502  0.00000000000E+00 -0.00000000000E+00 -0.38993420580E+03  0.38993420580E+03  0.00000000000E+00 0. -1.
         24    2    1    2    0    0  0.30130772126E+02 -0.34549163449E+01  0.23008753568E+03  0.24576856211E+03  0.80883324449E+02 0.  0.
         23    2    1    2    0    0  0.37346596816E+02 -0.21536360886E+02  0.26507721366E+02  0.10470204162E+03  0.91658469842E+02 0.  0.
        -11    1    3    3    0    0 -0.25921498737E+02  0.11373914747E+02  0.70166055216E+02  0.75660857370E+02  0.00000000000E+00 0.  1.
         12    1    3    3    0    0  0.56052270863E+02 -0.14828831091E+02  0.15992148046E+03  0.17010770474E+03  0.00000000000E+00 0. -1.
        -11    1    4    4    0    0  0.67488448223E+02 -0.16533990067E+02  0.25861885560E+02  0.74141085747E+02  0.00000000000E+00 0. -1.
         11    1    4    4    0    0 -0.30141851407E+02 -0.50023708193E+01  0.64583580555E+00  0.30560955874E+02  0.00000000000E+00 0.  1.
         21    1    1    2  503  502 -0.50280364734E+02  0.38650130122E+02 -0.28602999287E+03  0.29297628651E+03  0.00000000000E+00 0. -1.
          3    1    1    2  501    0 -0.17197004208E+02 -0.13658852891E+02 -0.51239370391E+02  0.55747415134E+02  0.00000000000E+00 0. -1.
<scales pt_clust_5="13000.00000" pt_clust_6="13000.00000" pt_clust_7="13000.00000" pt_clust_8="13000.00000" pt_clust_9="63.41883" pt_clust_10="13000.00000"></scales>
<clustering>
<clus scale="   63.419">  2  9  1 -1</clus>
<clus scale="   80.883">  5  6 -1 -1</clus>
<clus scale="   85.024">  1  5  2 -1</clus>
<clus scale="   91.658">  7  8 -1 -1</clus>
<clus scale="   39.329">  7 10 -1 -1</clus>
<clus scale="   63.419">  2  5  1 -1</clus>
</clustering>
</event>
<event>
10    4  0.2759992E-005  0.3633652E+03  0.7546771E-02  0.1071941E+00
          2   -1    0    0  502    0 -0.00000000000E+00  0.00000000000E+00  0.81139092110E+03  0.81139092110E+03  0.00000000000E+00 0. -1.
         21   -1    0    0  503  502  0.00000000000E+00 -0.00000000000E+00 -0.20183964846E+03  0.20183964846E+03  0.00000000000E+00 0. -1.
         24    2    1    2    0    0  0.16147929490E+03  0.19964602681E+03  0.32858061416E+02  0.26982359339E+03  0.76098755880E+02 0.  0.
         23    2    1    2    0    0 -0.13954154435E+03 -0.23172825398E+03  0.43547265251E+03  0.52095103916E+03  0.92648409700E+02 0.  0.
        -11    1    3    3    0    0  0.27845257475E+02  0.88882321302E+02  0.23183557434E+02  0.95983867077E+02  0.00000000000E+00 0.  1.
         12    1    3    3    0    0  0.13363403743E+03  0.11076370551E+03  0.96745039814E+01  0.17383972631E+03  0.00000000000E+00 0. -1.
        -11    1    4    4    0    0 -0.15081822794E+03 -0.21111937054E+03  0.37438186558E+03  0.45549896572E+03  0.00000000000E+00 0. -1.
         11    1    4    4    0    0  0.11276683584E+02 -0.20608883433E+02  0.61090786935E+02  0.65452073439E+02  0.00000000000E+00 0.  1.
         21    1    1    2  503  501 -0.20638036284E+02 -0.32874755972E+02 -0.23506922664E+02  0.45378998832E+02  0.00000000000E+00 0. -1.
          1    1    1    2  501    0 -0.12997142680E+01  0.64956983138E+02  0.16472748138E+03  0.17707693818E+03  0.00000000000E+00 0. -1.
<scales pt_clust_5="13000.00000" pt_clust_6="13000.00000" pt_clust_7="13000.00000" pt_clust_8="13000.00000" pt_clust_9="38.81595" pt_clust_10="13000.00000"></scales>
<clustering>
<clus scale="   38.816">  2  9  1 -1</clus>
<clus scale="   76.099">  5  6 -1 -1</clus>
<clus scale="   92.648">  7  8 -1 -1</clus>
<clus scale="   63.778">  7 10 -1 -1</clus>
<clus scale="  241.809">  1  5  2 -1</clus>
<clus scale="   38.816">  2  5  1 -1</clus>
</clustering>
</event>
<event>
10    4  0.2759992E-005  0.3441263E+03  0.7546771E-02  0.1078364E+00
         21   -1    0    0  503  502  0.00000000000E+00  0.00000000000E+00  0.15151585818E+03  0.15151585818E+03  0.00000000000E+00 0. -1.
          2   -1    0    0  502    0 -0.00000000000E+00 -0.00000000000E+00 -0.12529511245E+04  0.12529511245E+04  0.00000000000E+00 0. -1.
         24    2    1    2    0    0  0.50946042025E+02 -0.21561661404E+03 -0.90857118035E+03  0.93907205709E+03  0.85256760480E+02 0.  0.
         23    2    1    2    0    0  0.58292495672E+02  0.79152398106E+02 -0.16602941814E+03  0.21449650642E+03  0.93700941296E+02 0.  0.
        -11    1    3    3    0    0  0.36015111809E+02 -0.22598227257E+02 -0.20427343596E+03  0.20865139537E+03  0.00000000000E+00 0.  1.
         12    1    3    3    0    0  0.14930930217E+02 -0.19301838679E+03 -0.70429774439E+03  0.73042066172E+03  0.00000000000E+00 0. -1.
        -11    1    4    4    0    0  0.48933720534E+02 -0.27314080528E+01 -0.37069621692E+02  0.61450194855E+02  0.00000000000E+00 0. -1.
         11    1    4    4    0    0  0.93587751382E+01  0.81883806159E+02 -0.12895979645E+03  0.15304631156E+03  0.00000000000E+00 0.  1.
         21    1    1    2  503  501  0.23443139752E+02 -0.76134206679E+01  0.37381073160E+02  0.44775993639E+02  0.00000000000E+00 0. -1.
          1    1    1    2  501    0 -0.13268167745E+03  0.14407763660E+03 -0.64215740955E+02  0.20612242548E+03  0.00000000000E+00 0. -1.
<scales pt_clust_5="13000.00000" pt_clust_6="13000.00000" pt_clust_7="13000.00000" pt_clust_8="13000.00000" pt_clust_9="24.64843" pt_clust_10="13000.00000"></scales>
<clustering>
<clus scale="   24.648">  1  9  2 -1</clus>
<clus scale="   85.257">  5  6 -1 -1</clus>
<clus scale="   93.701">  7  8 -1 -1</clus>
<clus scale="  182.229">  7 10 -1 -1</clus>
<clus scale="  239.060">  2  5  1 -1</clus>
<clus scale="   24.648">  1  5  2 -1</clus>
</clustering>
</event>
<event>
10    4  0.2759992E-005  0.2011624E+03  0.7546771E-02  0.1156450E+00
         21   -1    0    0  503  502  0.00000000000E+00  0.00000000000E+00  0.38754560859E+02  0.38754560859E+02  0.00000000000E+00 0. -1.
          2   -1    0    0  502    0 -0.00000000000E+00 -0.00000000000E+00 -0.12845984383E+04  0.12845984383E+04  0.00000000000E+00 0. -1.
         24    2    1    2    0    0 -0.94967194767E+02  0.14563100582E+03 -0.61647310665E+03  0.64559933861E+03  0.80822378360E+02 0.  0.
         23    2    1    2    0    0  0.42546471430E+02 -0.72383291920E+02 -0.29874148249E+03  0.32512264272E+03  0.96998537467E+02 0.  0.
        -11    1    3    3    0    0 -0.28821502307E+02  0.15315593791E+01 -0.54294433670E+02  0.61489106327E+02  0.00000000000E+00 0.  1.
         12    1    3    3    0    0 -0.66145692459E+02  0.14409944644E+03 -0.56217867298E+03  0.58411023228E+03  0.00000000000E+00 0. -1.
        -11    1    4    4    0    0  0.54683001969E+02 -0.35972782026E+02 -0.26820598965E+03  0.27607738885E+03  0.00000000000E+00 0.  1.
         11    1    4    4    0    0 -0.12136530540E+02 -0.36410509894E+02 -0.30535492839E+02  0.49045253871E+02  0.00000000000E+00 0. -1.
         21    1    1    2  503  501  0.37937595429E+02 -0.39283145988E+02 -0.67041216902E+02  0.86469367231E+02  0.00000000000E+00 0. -1.
          1    1    1    2  501    0  0.14483127908E+02 -0.33964567909E+02 -0.26358807142E+03  0.26616165062E+03  0.00000000000E+00 0. -1.
<scales pt_clust_5="13000.00000" pt_clust_6="13000.00000" pt_clust_7="13000.00000" pt_clust_8="13000.00000" pt_clust_9="54.61160" pt_clust_10="13000.00000"></scales>
<clustering>
<clus scale="   54.612">  1  9  2 -1</clus>
<clus scale="   80.822">  5  6 -1 -1</clus>
<clus scale="   96.999">  7  8 -1 -1</clus>
<clus scale="   39.194">  7 10 -1 -1</clus>
<clus scale="  167.804">  2  5  1 -1</clus>
<clus scale="   54.612">  1  5  2 -1</clus>
</clustering>
</event>
<event>
10    4  0.2759992E-005  0.2395933E+03  0.7546771E-02  0.1149391E+00
          2   -1    0    0  503    0 -0.00000000000E+00  0.00000000000E+00  0.58318085129E+02  0.58318085129E+02  0.00000000000E+00 0. -1.
         21   -1    0    0  501  502  0.00000000000E+00 -0.00000000000E+00 -0.69555508521E+03  0.69555508521E+03  0.00000000000E+00 0. -1.
         24    2    1    2    0    0  0.89371846644E+02 -0.16219969641E+02 -0.31874244199E+03  0.34097463488E+03  0.80103326542E+02 0.  0.
         23    2    1    2    0    0  0.29587535976E+02 -0.37789693090E+02 -0.17587718924E+03  0.20300238698E+03  0.89295577906E+02 0.  0.
        -11    1    3    3    0    0  0.33375303934E+02  0.14689553034E+02 -0.36568938230E+02  0.51642822583E+02  0.00000000000E+00 0.  1.
         12    1    3    3    0    0  0.55996542710E+02 -0.30909522675E+02 -0.28217350376E+03  0.28933181230E+03  0.00000000000E+00 0. -1.
        -13    1    4    4    0    0  0.42346622399E+02  0.23073894667E+01 -0.32082391352E+02  0.53177441736E+02  0.00000000000E+00 0. -1.
         13    1    4    4    0    0 -0.12759086424E+02 -0.40097082556E+02 -0.14379479789E+03  0.14982494524E+03  0.00000000000E+00 0.  1.
         21    1    1    2  503  502 -0.14265147569E+02 -0.16316762341E+02 -0.46569256098E+02  0.51365618676E+02  0.00000000000E+00 0.  1.
          1    1    1    2  501    0 -0.10469423505E+03  0.70326425072E+02 -0.96048112759E+02  0.15853052981E+03  0.00000000000E+00 0. -1.
<scales pt_clust_5="13000.00000" pt_clust_6="13000.00000" pt_clust_7="13000.00000" pt_clust_8="13000.00000" pt_clust_9="21.67328" pt_clust_10="13000.00000"></scales>
<clustering>
<clus scale="   21.673">  2  9  1 -1</clus>
<clus scale="   80.103">  5  6 -1 -1</clus>
<clus scale="   89.296">  7  8 -1 -1</clus>
<clus scale="  117.296">  1  5  2 -1</clus>
<clus scale="   71.963">  7 10 -1 -1</clus>
<clus scale="   21.673">  2  5  1 -1</clus>
</clustering>
</event>
<event>
10    4  0.2759992E-005  0.2762748E+03  0.7546771E-02  0.1125614E+00
         -1   -1    0    0    0  501 -0.00000000000E+00  0.00000000000E+00  0.50410140502E+03  0.50410140502E+03  0.00000000000E+00 0.  1.
         21   -1    0    0  501  502  0.00000000000E+00 -0.00000000000E+00 -0.16741474273E+03  0.16741474273E+03  0.00000000000E+00 0.  1.
         24    2    1    2    0    0  0.58448123125E+02  0.64650113603E+02 -0.75039938709E+02  0.14075757968E+03  0.81153456801E+02 0.  0.
         23    2    1    2    0    0  0.68160748037E+02 -0.54015408115E+02  0.14981120226E+03  0.19627513658E+03  0.92287491193E+02 0.  0.
        -13    1    3    3    0    0  0.49573747231E+02  0.34618232782E+01 -0.58494030354E+02  0.76753450880E+02  0.00000000000E+00 0.  1.
         14    1    3    3    0    0  0.88743758938E+01  0.61188290325E+02 -0.16545908355E+02  0.64004128802E+02  0.00000000000E+00 0. -1.
        -11    1    4    4    0    0  0.25280898363E+02  0.22461322198E+02  0.18974453817E+02  0.38777115862E+02  0.00000000000E+00 0.  1.
         11    1    4    4    0    0  0.42879849674E+02 -0.76476730313E+02  0.13083674845E+03  0.15749802072E+03  0.00000000000E+00 0. -1.
         21    1    1    2  503  502  0.18361237052E+02  0.25031432172E+02 -0.21704160061E+01  0.31119420436E+02  0.00000000000E+00 0.  1.
         -2    1    1    2    0  503 -0.14497010821E+03 -0.35666137659E+02  0.26408581474E+03  0.30336401105E+03  0.00000000000E+00 0.  1.
<scales pt_clust_5="13000.00000" pt_clust_6="13000.00000" pt_clust_7="13000.00000" pt_clust_8="13000.00000" pt_clust_9="31.04364" pt_clust_10="13000.00000"></scales>
<clustering>
<clus scale="   31.044">  2  9  1 -1</clus>
<clus scale="   81.153">  5  6 -1 -1</clus>
<clus scale="   92.287">  7  8 -1 -1</clus>
<clus scale="  136.116">  1  5  2 -1</clus>
<clus scale="  100.617">  7 10 -1 -1</clus>
<clus scale="   31.044">  2  5  1 -1</clus>
</clustering>
</event>
<event>
10    4  0.3549609E-005  0.3826495E+03  0.7546771E-02  0.1104266E+00
          4   -1    0    0  503    0 -0.00000000000E+00  0.00000000000E+00  0.25481347442E+03  0.25481347442E+03  0.00000000000E+00 0. -1.
         21   -1    0    0  501  502  0.00000000000E+00 -0.00000000000E+00 -0.93581121110E+03  0.93581121110E+03  0.00000000000E+00 0. -1.
         24    2    1    2    0    0 -0.25125947073E+02  0.56405560143E+02 -0.73075963661E+03  0.73754254147E+03  0.78399321112E+02 0.  0.
         23    2    1    2    0    0  0.13688470867E+02 -0.27895976335E+01 -0.13452939841E+03  0.16280638052E+03  0.90623409854E+02 0.  0.
        -13    1    3    3    0    0  0.59511553410E+01  0.45632316717E+02 -0.17958668220E+03  0.18538905308E+03  0.00000000000E+00 0.  1.
         14    1    3    3    0    0 -0.31077102414E+02  0.10773243426E+02 -0.55117295441E+03  0.55215348839E+03  0.00000000000E+00 0. -1.
        -13    1    4    4    0    0  0.52639224192E+02 -0.17706495351E+01 -0.74382128125E+02  0.91141231656E+02  0.00000000000E+00 0.  1.
         13    1    4    4    0    0 -0.38950753325E+02 -0.10189480983E+01 -0.60147270283E+02  0.71665148868E+02  0.00000000000E+00 0. -1.
         21    1    1    2  503  502  0.36251319919E+02 -0.20673592341E+02 -0.42618691749E+02  0.59648206197E+02  0.00000000000E+00 0. -1.
          3    1    1    2  501    0 -0.24813843713E+02 -0.32942370169E+02  0.22690999009E+03  0.23062755732E+03  0.00000000000E+00 0. -1.
<scales pt_clust_5="13000.00000" pt_clust_6="13000.00000" pt_clust_7="13000.00000" pt_clust_8="13000.00000" pt_clust_9="41.73195" pt_clust_10="13000.00000"></scales>
<clustering>
<clus scale="   41.732">  2  9  1 -1</clus>
<clus scale="   78.399">  5  6 -1 -1</clus>
<clus scale="   87.816">  1  5  2 -1</clus>
<clus scale="   90.623">  7  8 -1 -1</clus>
<clus scale="   20.441">  7 10 -1 -1</clus>
<clus scale="   41.732">  2  5  1 -1</clus>
</clustering>
</event>
<event>
10    4  0.2759992E-005  0.2571585E+03  0.7546771E-02  0.1119973E+00
         21   -1    0    0  501  502  0.00000000000E+00  0.00000000000E+00  0.95360686639E+02  0.95360686639E+02  0.00000000000E+00 0. -1.
          2   -1    0    0  503    0 -0.00000000000E+00 -0.00000000000E+00 -0.76986032639E+03  0.76986032639E+03  0.00000000000E+00 0. -1.
         24    2    1    2    0    0  0.54400200518E+02  0.16642102376E+03 -0.34918380946E+03  0.39773369715E+03  0.74882722270E+02 0.  0.
         23    2    1    2    0    0  0.40058007520E+02 -0.45058979616E+02 -0.13373442234E+03  0.17305723326E+03  0.91809338600E+02 0.  0.
        -11    1    3    3    0    0  0.45432411169E+01  0.24197165087E+02 -0.12631017646E+03  0.12868723525E+03  0.00000000000E+00 0.  1.
         12    1    3    3    0    0  0.49856959401E+02  0.14222385867E+03 -0.22287363300E+03  0.26904646191E+03  0.00000000000E+00 0. -1.
        -13    1    4    4    0    0  0.18006544125E+02  0.13910214242E+02 -0.98121719428E+02  0.10072537672E+03  0.00000000000E+00 0.  1.
         13    1    4    4    0    0  0.22051463395E+02 -0.58969193858E+02 -0.35612702917E+02  0.72331856544E+02  0.00000000000E+00 0. -1.
         21    1    1    2  503  502 -0.38079640524E+02  0.23210297165E+02  0.39908209122E+01  0.44773916162E+02  0.00000000000E+00 0. -1.
          1    1    1    2  501    0 -0.56378567514E+02 -0.14457234131E+03 -0.19557222885E+03  0.24965616645E+03  0.00000000000E+00 0. -1.
<scales pt_clust_5="13000.00000" pt_clust_6="13000.00000" pt_clust_7="13000.00000" pt_clust_8="13000.00000" pt_clust_9="44.59571" pt_clust_10="13000.00000"></scales>
<clustering>
<clus scale="   44.596">  1  9  2 -1</clus>
<clus scale="   74.883">  5  6 -1 -1</clus>
<clus scale="   91.809">  7  8 -1 -1</clus>
<clus scale="  153.125">  7 10 -1 -1</clus>
<clus scale="  194.218">  2  5  1 -1</clus>
<clus scale="   44.596">  1  5  2 -1</clus>
</clustering>
</event>
<event>
10    4  0.2759992E-005  0.8322527E+03  0.7546771E-02  0.9517284E-01
          2   -1    0    0  503    0 -0.00000000000E+00  0.00000000000E+00  0.21956604134E+04  0.21956604134E+04  0.00000000000E+00 0. -1.
         21   -1    0    0  501  502  0.00000000000E+00 -0.00000000000E+00 -0.37321343560E+03  0.37321343560E+03  0.00000000000E+00 0. -1.
         24    2    1    2    0    0  0.25829173090E+03  0.77326724089E+03  0.13394623994E+04  0.15704929532E+04  0.87359902105E+02 0.  0.
         23    2    1    2    0    0 -0.11232101323E+03 -0.30721355766E+03  0.18877119726E+03  0.38862152185E+03  0.91629374700E+02 0.  0.
        -13    1    3    3    0    0  0.24212569012E+02  0.18308058059E+03  0.28308276368E+03  0.33799496828E+03  0.00000000000E+00 0.  1.
         14    1    3    3    0    0  0.23407916189E+03  0.59018666030E+03  0.10563796358E+04  0.12324979849E+04  0.00000000000E+00 0. -1.
        -13    1    4    4    0    0 -0.57560722880E+02 -0.26320517820E+03  0.15124599354E+03  0.30897500418E+03  0.00000000000E+00 0. -1.
         13    1    4    4    0    0 -0.54760290354E+02 -0.44008379463E+02  0.37525203722E+02  0.79646517670E+02  0.00000000000E+00 0.  1.
         21    1    1    2  503  502  0.31714224912E+02  0.33024883760E+01  0.22858420299E+02  0.39232714280E+02  0.00000000000E+00 0.  1.
          1    1    1    2  501    0 -0.17768494258E+03 -0.46935617160E+03  0.27135496083E+03  0.57052665968E+03  0.00000000000E+00 0. -1.
<scales pt_clust_5="13000.00000" pt_clust_6="13000.00000" pt_clust_7="13000.00000" pt_clust_8="13000.00000" pt_clust_9="31.88571" pt_clust_10="13000.00000"></scales>
<clustering>
<clus scale="   31.886">  2  9  1 -1</clus>
<clus scale="   87.360">  5  6 -1 -1</clus>
<clus scale="   91.629">  7  8 -1 -1</clus>
<clus scale="  496.134">  7 10 -1 -1</clus>
<clus scale="  824.131">  1  5  2 -1</clus>
<clus scale="   31.886">  2  5  1 -1</clus>
</clustering>
</event>
<event>
10    4  0.2759992E-005  0.2899764E+03  0.7546771E-02  0.1139384E+00
          2   -1    0    0  502    0 -0.00000000000E+00  0.00000000000E+00  0.12439303447E+04  0.12439303447E+04  0.00000000000E+00 0. -1.
         21   -1    0    0  503  502  0.00000000000E+00 -0.00000000000E+00 -0.70554420988E+02  0.70554420988E+02  0.00000000000E+00 0.  1.
         24    2    1    2    0    0  0.21001344996E+02 -0.93240688119E+00  0.41677546318E+03  0.42516946389E+03  0.81396317142E+02 0.  0.
         23    2    1    2    0    0  0.14993151508E+03 -0.40530850479E+02  0.47101404847E+03  0.50443340829E+03  0.92068564045E+02 0.  0.
        -11    1    3    3    0    0  0.41674164974E+02  0.16345390598E+02  0.13763565883E+03  0.14473245110E+03  0.00000000000E+00 0.  1.
         12    1    3    3    0    0 -0.20672819978E+02 -0.17277797479E+02  0.27913980435E+03  0.28043701279E+03  0.00000000000E+00 0. -1.
        -11    1    4    4    0    0  0.86184871201E+02 -0.85903744802E+01  0.37481321220E+03  0.38469022681E+03  0.00000000000E+00 0.  1.
         11    1    4    4    0    0  0.63746643882E+02 -0.31940475999E+02  0.96200836271E+02  0.11974318149E+03  0.00000000000E+00 0. -1.
         21    1    1    2  503  501 -0.69063188930E+02  0.68038369836E+02  0.19724998375E+02  0.98934419673E+02  0.00000000000E+00 0.  1.
          1    1    1    2  501    0 -0.10186967115E+03 -0.26575112476E+02  0.26586141367E+03  0.28594747382E+03  0.00000000000E+00 0. -1.
<scales pt_clust_5="13000.00000" pt_clust_6="13000.00000" pt_clust_7="13000.00000" pt_clust_8="13000.00000" pt_clust_9="95.82778" pt_clust_10="13000.00000"></scales>
<clustering>
<clus scale="   81.396">  5  6 -1 -1</clus>
<clus scale="   84.067">  1  5  2 -1</clus>
<clus scale="   92.069">  7  8 -1 -1</clus>
<clus scale="   95.828">  2  9  1 -1</clus>
<clus scale="  118.238">  7 10 -1 -1</clus>
<clus scale="   95.828">  2  5  1 -1</clus>
</clustering>
</event>
<event>
10    4  0.2759992E-005  0.3263848E+03  0.7546771E-02  0.1104216E+00
          2   -1    0    0  503    0 -0.00000000000E+00  0.00000000000E+00  0.53463981728E+03  0.53463981728E+03  0.00000000000E+00 0. -1.
         21   -1    0    0  501  502  0.00000000000E+00 -0.00000000000E+00 -0.28160003012E+03  0.28160003012E+03  0.00000000000E+00 0. -1.
         24    2    1    2    0    0 -0.11407446810E+03  0.71821106964E+01  0.35145112725E+02  0.14430905529E+03  0.80779684971E+02 0.  0.
         23    2    1    2    0    0  0.96621698512E+02 -0.13570163638E+03  0.38349113546E+03  0.42814110172E+03  0.92133952864E+02 0.  0.
        -13    1    3    3    0    0 -0.28582208744E+02  0.34748465328E+02 -0.62099966960E+01  0.45419847625E+02  0.00000000000E+00 0.  1.
         14    1    3    3    0    0 -0.85492259357E+02 -0.27566354631E+02  0.41355109421E+02  0.98889207667E+02  0.00000000000E+00 0. -1.
        -11    1    4    4    0    0  0.39502737700E+02 -0.52505993436E+02  0.26244814022E+03  0.27054828023E+03  0.00000000000E+00 0.  1.
         11    1    4    4    0    0  0.57118960812E+02 -0.83195642940E+02  0.12104299524E+03  0.15759282149E+03  0.00000000000E+00 0. -1.
         21    1    1    2  503  502  0.54584983401E+01  0.55912358788E+02 -0.16047082855E+03  0.17002021611E+03  0.00000000000E+00 0. -1.
          1    1    1    2  501    0  0.11994271250E+02  0.72607166891E+02 -0.51256324797E+01  0.73769474277E+02  0.00000000000E+00 0. -1.
<scales pt_clust_5="13000.00000" pt_clust_6="13000.00000" pt_clust_7="13000.00000" pt_clust_8="13000.00000" pt_clust_9="56.17817" pt_clust_10="13000.00000"></scales>
<clustering>
<clus scale="   56.178">  2  9  1 -1</clus>
<clus scale="   80.780">  5  6 -1 -1</clus>
<clus scale="   92.134">  7  8 -1 -1</clus>
<clus scale="   92.604">  7 10 -1 -1</clus>
<clus scale="  141.693">  1  5  2 -1</clus>
<clus scale="   56.178">  2  5  1 -1</clus>
</clustering>
</event>
<event>
10    4  0.2759992E-005  0.6053407E+03  0.7546771E-02  0.1033443E+00
          2   -1    0    0  503    0 -0.00000000000E+00  0.00000000000E+00  0.23155988523E+04  0.23155988523E+04  0.00000000000E+00 0. -1.
         21   -1    0    0  501  502  0.00000000000E+00 -0.00000000000E+00 -0.93334916183E+02  0.93334916183E+02  0.00000000000E+00 0. -1.
         24    2    1    2    0    0  0.10545564261E+03  0.66003566146E+02  0.12267552947E+03  0.19246940273E+03  0.80733030142E+02 0.  0.
         23    2    1    2    0    0  0.52562190063E+02 -0.29151262012E+03  0.89816725299E+03  0.95058673920E+03  0.95751464098E+02 0.  0.
        -11    1    3    3    0    0  0.87487037639E+02  0.27079101480E+02  0.11796173611E+03  0.14933931391E+03  0.00000000000E+00 0.  1.
         12    1    3    3    0    0  0.17968604974E+02  0.38924464666E+02  0.47137933522E+01  0.43130088825E+02  0.00000000000E+00 0. -1.
        -13    1    4    4    0    0  0.20993316702E+02 -0.12208091417E+03  0.23816765286E+03  0.26845539633E+03  0.00000000000E+00 0. -1.
         13    1    4    4    0    0  0.31568873361E+02 -0.16943170595E+03  0.65999960013E+03  0.68213134287E+03  0.00000000000E+00 0.  1.
         21    1    1    2  503  502  0.22221723224E+02  0.25285877030E+01 -0.73699608880E+01  0.23548143501E+02  0.00000000000E+00 0.  1.
          1    1    1    2  501    0 -0.18023955590E+03  0.22298046627E+03  0.12087911146E+04  0.12423294831E+04  0.00000000000E+00 0. -1.
<scales pt_clust_5="13000.00000" pt_clust_6="13000.00000" pt_clust_7="13000.00000" pt_clust_8="13000.00000" pt_clust_9="22.36512" pt_clust_10="13000.00000"></scales>
<clustering>
<clus scale="   22.365">  2  9  1 -1</clus>
<clus scale="   80.733">  5  6 -1 -1</clus>
<clus scale="   95.751">  7  8 -1 -1</clus>
<clus scale="  156.030">  1  5  2 -1</clus>
<clus scale="  283.740">  7 10 -1 -1</clus>
<clus scale="   22.365">  2  5  1 -1</clus>
</clustering>
</event>
<event>
10    4  0.2759992E-005  0.6292979E+03  0.7546771E-02  0.1002960E+00
          2   -1    0    0  502    0 -0.00000000000E+00  0.00000000000E+00  0.13682076894E+04  0.13682076894E+04  0.00000000000E+00 0. -1.
         21   -1    0    0  503  502  0.00000000000E+00 -0.00000000000E+00 -0.24611754103E+03  0.24611754103E+03  0.00000000000E+00 0. -1.
         24    2    1    2    0    0 -0.16685028793E+03 -0.30207879944E+03  0.82701085467E+03  0.89974692777E+03  0.80665733877E+02 0.  0.
         23    2    1    2    0    0  0.83141014661E+02 -0.11571969747E+03  0.20114009116E+03  0.26226650454E+03  0.89570678409E+02 0.  0.
        -13    1    3    3    0    0 -0.10335310003E+03 -0.17445764218E+03  0.38227780467E+03  0.43272815040E+03  0.00000000000E+00 0.  1.
         14    1    3    3    0    0 -0.63497187903E+02 -0.12762115726E+03  0.44473305000E+03  0.46701877737E+03  0.00000000000E+00 0. -1.
        -11    1    4    4    0    0  0.80948925503E+02 -0.56320225392E+02  0.16638007955E+03  0.19340896359E+03  0.00000000000E+00 0.  1.
         11    1    4    4    0    0  0.21920891579E+01 -0.59399472079E+02  0.34760011618E+02  0.68857540951E+02  0.00000000000E+00 0. -1.
         21    1    1    2  503  501  0.30056618045E+02  0.11769209605E+02  0.13184459522E+02  0.34867528676E+02  0.00000000000E+00 0. -1.
          1    1    1    2  501    0  0.53652655229E+02  0.40602928731E+03  0.80754742987E+02  0.41744426943E+03  0.00000000000E+00 0. -1.
<scales pt_clust_5="13000.00000" pt_clust_6="13000.00000" pt_clust_7="13000.00000" pt_clust_8="13000.00000" pt_clust_9="32.27870" pt_clust_10="13000.00000"></scales>
<clustering>
<clus scale="   32.279">  2  9  1 -1</clus>
<clus scale="   80.666">  5  6 -1 -1</clus>
<clus scale="   89.571">  7  8 -1 -1</clus>
<clus scale="  350.675">  1  5  2 -1</clus>
<clus scale="  256.355">  7 10 -1 -1</clus>
<clus scale="   32.279">  2  5  1 -1</clus>
</clustering>
</event>
<event>
10    4  0.2759992E-005  0.2030792E+03  0.7546771E-02  0.1180040E+00
         21   -1    0    0  503  502  0.00000000000E+00  0.00000000000E+00  0.39775409839E+02  0.39775409839E+02  0.00000000000E+00 0. -1.
          2   -1    0    0  502    0 -0.00000000000E+00 -0.00000000000E+00 -0.10432517272E+04  0.10432517272E+04  0.00000000000E+00 0. -1.
         24    2    1    2    0    0  0.29941280015E+02  0.47727100772E+02 -0.10357025744E+03  0.14226498033E+03  0.79612624658E+02 0.  0.
         23    2    1    2    0    0  0.45625934191E+02  0.16254150605E+02 -0.37212792271E+03  0.38777575298E+03  0.97698108773E+02 0.  0.
        -13    1    3    3    0    0  0.27526511726E+02 -0.11664467176E+02 -0.10215838690E+02  0.31593227161E+02  0.00000000000E+00 0.  1.
         14    1    3    3    0    0  0.24147682892E+01  0.59391567948E+02 -0.93354418753E+02  0.11067175317E+03  0.00000000000E+00 0. -1.
        -11    1    4    4    0    0  0.38260300048E+02  0.56303273270E+02 -0.24536732111E+03  0.25463509462E+03  0.00000000000E+00 0.  1.
         11    1    4    4    0    0  0.73656341426E+01 -0.40049122665E+02 -0.12676060160E+03  0.13314065836E+03  0.00000000000E+00 0. -1.
         21    1    1    2  503  501 -0.20269803583E+02  0.16379107302E+01 -0.22062545743E+01  0.20455201003E+02  0.00000000000E+00 0. -1.
          1    1    1    2  501    0 -0.55297410623E+02 -0.65619162107E+02 -0.52557188263E+03  0.53253120272E+03  0.00000000000E+00 0. -1.
<scales pt_clust_5="13000.00000" pt_clust_6="13000.00000" pt_clust_7="13000.00000" pt_clust_8="13000.00000" pt_clust_9="20.33587" pt_clust_10="13000.00000"></scales>
<clustering>
<clus scale="   20.336">  1  9  2 -1</clus>
<clus scale="   79.613">  5  6 -1 -1</clus>
<clus scale="   94.920">  2  5  1 -1</clus>
<clus scale="   97.698">  7  8 -1 -1</clus>
<clus scale="   59.725">  7 10 -1 -1</clus>
<clus scale="   20.336">  1  5  2 -1</clus>
</clustering>
</event>
<event>
10    4  0.2759992E-005  0.2526715E+03  0.7546771E-02  0.1152548E+00
          2   -1    0    0  503    0 -0.00000000000E+00  0.00000000000E+00  0.97748692122E+03  0.97748692122E+03  0.00000000000E+00 0. -1.
         21   -1    0    0  501  502  0.00000000000E+00 -0.00000000000E+00 -0.38728941657E+02  0.38728941657E+02  0.00000000000E+00 0.  1.
         24    2    1    2    0    0 -0.37364197395E+01  0.76754395173E+01  0.16854162048E+03  0.19177514405E+03  0.91096404084E+02 0.  0.
         23    2    1    2    0    0  0.61859994014E+02  0.49402906261E+02  0.21772329565E+03  0.24871893238E+03  0.90500651093E+02 0.  0.
        -11    1    3    3    0    0  0.25941642152E+02 -0.25692843974E+02  0.12169394161E+03  0.12705316388E+03  0.00000000000E+00 0.  1.
         12    1    3    3    0    0 -0.29678061891E+02  0.33368283491E+02  0.46847678868E+02  0.64721980162E+02  0.00000000000E+00 0. -1.
        -11    1    4    4    0    0  0.58070180691E+02  0.74692757278E+02  0.17447980147E+03  0.19848011235E+03  0.00000000000E+00 0.  1.
         11    1    4    4    0    0  0.37898133233E+01 -0.25289851017E+02  0.43243494183E+02  0.50238820036E+02  0.00000000000E+00 0. -1.
         21    1    1    2  503  502  0.16131487704E+02  0.28708752382E+02  0.45369311336E+02  0.56060608006E+02  0.00000000000E+00 0.  1.
          1    1    1    2  501    0 -0.74255061979E+02 -0.85787098160E+02  0.50712375210E+03  0.51966117844E+03  0.00000000000E+00 0. -1.
<scales pt_clust_5="13000.00000" pt_clust_6="13000.00000" pt_clust_7="13000.00000" pt_clust_8="13000.00000" pt_clust_9="32.93049" pt_clust_10="13000.00000"></scales>
<clustering>
<clus scale="   32.930">  2  9  1 -1</clus>
<clus scale="   90.501">  7  8 -1 -1</clus>
<clus scale="   91.096">  5  6 -1 -1</clus>
<clus scale="   92.812">  1  5  2 -1</clus>
<clus scale="   98.804">  7 10 -1 -1</clus>
<clus scale="   32.930">  2  5  1 -1</clus>
</clustering>
</event>
<event>
10    4  0.2759992E-005  0.1221428E+04  0.7546771E-02  0.9400710E-01
         21   -1    0    0  503  502  0.00000000000E+00  0.00000000000E+00  0.75295150483E+03  0.75295150483E+03  0.00000000000E+00 0. -1.
          2   -1    0    0  502    0 -0.00000000000E+00 -0.00000000000E+00 -0.10468173693E+04  0.10468173693E+04  0.00000000000E+00 0. -1.
         24    2    1    2    0    0  0.24686131611E+03 -0.29360058446E+03 -0.23929833555E+03  0.46111356998E+03  0.90665420293E+02 0.  0.
         23    2    1    2    0    0  0.24562060309E+03  0.19770853759E+01 -0.50817929289E+03  0.57178957966E+03  0.91453486315E+02 0.  0.
        -13    1    3    3    0    0  0.37971758364E+02 -0.56036130797E+01 -0.23186479628E+02  0.44842700079E+02  0.00000000000E+00 0.  1.
         14    1    3    3    0    0  0.20888955775E+03 -0.28799697138E+03 -0.21611185592E+03  0.41627086990E+03  0.00000000000E+00 0. -1.
        -13    1    4    4    0    0  0.22940782514E+03  0.13973409003E+02 -0.39643686413E+03  0.45824163237E+03  0.00000000000E+00 0.  1.
         13    1    4    4    0    0  0.16212777949E+02 -0.11996323627E+02 -0.11174242875E+03  0.11354794729E+03  0.00000000000E+00 0. -1.
         21    1    1    2  503  501 -0.30061898478E+02 -0.19225923557E+02  0.10187440479E+03  0.10794326393E+03  0.00000000000E+00 0. -1.
          1    1    1    2  501    0 -0.46242002072E+03  0.31084942264E+03  0.35173735921E+03  0.65892246053E+03  0.00000000000E+00 0. -1.
<scales pt_clust_5="13000.00000" pt_clust_6="13000.00000" pt_clust_7="13000.00000" pt_clust_8="13000.00000" pt_clust_9="35.68408" pt_clust_10="13000.00000"></scales>
<clustering>
<clus scale="   35.684">  1  9  2 -1</clus>
<clus scale="   90.665">  5  6 -1 -1</clus>
<clus scale="   91.453">  7  8 -1 -1</clus>
<clus scale="  393.435">  2  5  1 -1</clus>
<clus scale="  485.837">  7 10 -1 -1</clus>
<clus scale="   35.684">  1  5  2 -1</clus>
</clustering>
</event>
<event>
10    4  0.2759992E-005  0.1570664E+03  0.7546771E-02  0.1216370E+00
          2   -1    0    0  503    0 -0.00000000000E+00  0.00000000000E+00  0.58740966867E+03  0.58740966867E+03  0.00000000000E+00 0. -1.
         21   -1    0    0  501  502  0.00000000000E+00 -0.00000000000E+00 -0.34925910164E+02  0.34925910164E+02  0.00000000000E+00 0.  1.
         24    2    1    2    0    0 -0.43202358145E+02 -0.32695103158E+02  0.24563355461E+03  0.26394697429E+03  0.79979675986E+02 0.  0.
         23    2    1    2    0    0 -0.30670649869E+01  0.14382846134E+02  0.10441610984E+03  0.13961135828E+03  0.91500460192E+02 0.  0.
        -11    1    3    3    0    0 -0.61020696427E+02 -0.20718170095E+02  0.11735457361E+03  0.13388377015E+03  0.00000000000E+00 0.  1.
         12    1    3    3    0    0  0.17818338282E+02 -0.11976933064E+02  0.12827898100E+03  0.13006320414E+03  0.00000000000E+00 0. -1.
        -11    1    4    4    0    0 -0.61573658734E+01 -0.28697579638E+02  0.89059702656E+02  0.93771503501E+02  0.00000000000E+00 0. -1.
         11    1    4    4    0    0  0.30903008865E+01  0.43080425772E+02  0.15356407183E+02  0.45839854776E+02  0.00000000000E+00 0.  1.
         21    1    1    2  503  502  0.76956279423E+01  0.27073749994E+02  0.27226392535E+02  0.39159763516E+02  0.00000000000E+00 0.  1.
          1    1    1    2  501    0  0.38573795190E+02 -0.87614929694E+01  0.17520770152E+03  0.17961748275E+03  0.00000000000E+00 0. -1.
<scales pt_clust_5="13000.00000" pt_clust_6="13000.00000" pt_clust_7="13000.00000" pt_clust_8="13000.00000" pt_clust_9="28.14624" pt_clust_10="13000.00000"></scales>
<clustering>
<clus scale="   28.146">  2  9  1 -1</clus>
<clus scale="   79.980">  5  6 -1 -1</clus>
<clus scale="   91.500">  7  8 -1 -1</clus>
<clus scale="   39.729">  7 10 -1 -1</clus>
<clus scale="   92.959">  1  5  2 -1</clus>
<clus scale="   28.146">  2  5  1 -1</clus>
</clustering>
</event>
<event>
10    4  0.2759992E-005  0.4107773E+03  0.7546771E-02  0.1084273E+00
         21   -1    0    0  503  502  0.00000000000E+00  0.00000000000E+00  0.49095470398E+03  0.49095470398E+03  0.00000000000E+00 0.  1.
         -3   -1    0    0    0  501 -0.00000000000E+00 -0.00000000000E+00 -0.31820522456E+03  0.31820522456E+03  0.00000000000E+00 0.  1.
         24    2    1    2    0    0 -0.82760002350E+02 -0.95830313033E+01 -0.20889107973E+02  0.11793138049E+03  0.80810910114E+02 0.  0.
         23    2    1    2    0    0  0.30695150225E+02  0.81072206272E+02 -0.21986790606E+03  0.25331494273E+03  0.91168356448E+02 0.  0.
        -11    1    3    3    0    0 -0.99590027724E+00  0.24983577506E+02 -0.14563816366E+02  0.28935716848E+02  0.00000000000E+00 0.  1.
         12    1    3    3    0    0 -0.81764102073E+02 -0.34566608810E+02 -0.63252916073E+01  0.88995663638E+02  0.00000000000E+00 0. -1.
        -13    1    4    4    0    0  0.60246977111E+02  0.68304083883E+02 -0.18270541150E+03  0.20414801865E+03  0.00000000000E+00 0.  1.
         13    1    4    4    0    0 -0.29551826886E+02  0.12768122389E+02 -0.37162494552E+02  0.49166924075E+02  0.00000000000E+00 0. -1.
         21    1    1    2  503  501 -0.20120992382E+02 -0.29795845694E+02  0.26651779506E+03  0.26893192789E+03  0.00000000000E+00 0.  1.
         -4    1    1    2    0  502  0.72185844508E+02 -0.41693329274E+02  0.14698869840E+03  0.16898167744E+03  0.00000000000E+00 0.  1.
<scales pt_clust_5="13000.00000" pt_clust_6="13000.00000" pt_clust_7="13000.00000" pt_clust_8="13000.00000" pt_clust_9="35.95340" pt_clust_10="13000.00000"></scales>
<clustering>
<clus scale="   35.953">  1  9  2 -1</clus>
<clus scale="   80.811">  5  6 -1 -1</clus>
<clus scale="   91.168">  7  8 -1 -1</clus>
<clus scale="   85.435">  7 10 -1 -1</clus>
<clus scale="  119.919">  2  5  1 -1</clus>
<clus scale="   35.953">  1  5  2 -1</clus>
</clustering>
</event>
<event>
10    4  0.2759992E-005  0.2126436E+03  0.7546771E-02  0.1167604E+00
          2   -1    0    0  502    0 -0.00000000000E+00  0.00000000000E+00  0.69491583515E+03  0.69491583515E+03  0.00000000000E+00 0. -1.
         21   -1    0    0  503  502  0.00000000000E+00 -0.00000000000E+00 -0.51323650722E+02  0.51323650722E+02  0.00000000000E+00 0. -1.
         24    2    1    2    0    0  0.77983868627E+02 -0.23633958634E+02  0.23035877803E+03  0.25494958328E+03  0.72760398787E+02 0.  0.
         23    2    1    2    0    0 -0.15347966140E+02  0.56876882820E+02  0.14974016691E+03  0.18739681989E+03  0.96046398443E+02 0.  0.
        -13    1    3    3    0    0  0.11531338114E+02 -0.24721224210E+02  0.14083452345E+03  0.14345199085E+03  0.00000000000E+00 0.  1.
         14    1    3    3    0    0  0.66452530513E+02  0.10872655766E+01  0.89524254584E+02  0.11149759243E+03  0.00000000000E+00 0. -1.
        -13    1    4    4    0    0 -0.28568115561E+02  0.24697998147E+02  0.44799979470E+01  0.38028919532E+02  0.00000000000E+00 0.  1.
         13    1    4    4    0    0  0.13220149421E+02  0.32178884673E+02  0.14526016896E+03  0.14936790035E+03  0.00000000000E+00 0. -1.
         21    1    1    2  503  501  0.68644361622E+01  0.19312887891E+02 -0.54317864200E+01  0.21204066266E+02  0.00000000000E+00 0.  1.
          1    1    1    2  501    0 -0.69500338649E+02 -0.52555812077E+02  0.26892502591E+03  0.28268901644E+03  0.00000000000E+00 0. -1.
<scales pt_clust_5="13000.00000" pt_clust_6="13000.00000" pt_clust_7="13000.00000" pt_clust_8="13000.00000" pt_clust_9="20.49654" pt_clust_10="13000.00000"></scales>
<clustering>
<clus scale="   20.497">  2  9  1 -1</clus>
<clus scale="   72.760">  5  6 -1 -1</clus>
<clus scale="   96.046">  7  8 -1 -1</clus>
<clus scale="   84.058">  7 10 -1 -1</clus>
<clus scale="  109.677">  1  5  2 -1</clus>
<clus scale="   20.497">  2  5  1 -1</clus>
</clustering>
</event>
<event>
10    4  0.2759992E-005  0.2101294E+03  0.7546771E-02  0.1161064E+00
         21   -1    0    0  501  502  0.00000000000E+00  0.00000000000E+00  0.52638071297E+03  0.52638071297E+03  0.00000000000E+00 0.  1.
          2   -1    0    0  503    0 -0.00000000000E+00 -0.00000000000E+00 -0.33593438306E+03  0.33593438306E+03  0.00000000000E+00 0. -1.
         24    2    1    2    0    0 -0.66959586535E+02  0.80596796181E+02 -0.26590039625E+03  0.29674129550E+03  0.79830733075E+02 0.  0.
         23    2    1    2    0    0  0.16455940862E+02 -0.85034307145E+02  0.21539654407E+03  0.24974615909E+03  0.92064332937E+02 0.  0.
        -11    1    3    3    0    0 -0.52953034534E+02  0.54593520073E+02 -0.87593467252E+02  0.11600470596E+03  0.00000000000E+00 0.  1.
         12    1    3    3    0    0 -0.14006552001E+02  0.26003276108E+02 -0.17830692900E+03  0.18073658954E+03  0.00000000000E+00 0. -1.
        -13    1    4    4    0    0  0.26799320412E+02 -0.62957991481E+02  0.21471858482E+03  0.22535745591E+03  0.00000000000E+00 0.  1.
         13    1    4    4    0    0 -0.10343379550E+02 -0.22076315664E+02  0.67795924709E+00  0.24388703175E+02  0.00000000000E+00 0. -1.
         21    1    1    2  503  502 -0.39793783289E+02 -0.77661482054E+01 -0.15703355676E+02  0.43479347119E+02  0.00000000000E+00 0.  1.
          1    1    1    2  501    0  0.90297428962E+02  0.12203659169E+02  0.25665353777E+03  0.27234829433E+03  0.00000000000E+00 0. -1.
<scales pt_clust_5="13000.00000" pt_clust_6="13000.00000" pt_clust_7="13000.00000" pt_clust_8="13000.00000" pt_clust_9="40.54454" pt_clust_10="13000.00000"></scales>
<clustering>
<clus scale="   40.545">  1  9  2 -1</clus>
<clus scale="   79.831">  5  6 -1 -1</clus>
<clus scale="   92.064">  7  8 -1 -1</clus>
<clus scale="   70.239">  7 10 -1 -1</clus>
<clus scale="  132.199">  2  5  1 -1</clus>
<clus scale="   40.545">  1  5  2 -1</clus>
</clustering>
</event>
<event>
10    4  0.2759992E-005  0.8004853E+03  0.7546771E-02  0.9890560E-01
          2   -1    0    0  503    0 -0.00000000000E+00  0.00000000000E+00  0.10384591446E+04  0.10384591446E+04  0.00000000000E+00 0. -1.
         21   -1    0    0  501  502  0.00000000000E+00 -0.00000000000E+00 -0.64218697060E+03  0.64218697060E+03  0.00000000000E+00 0. -1.
         24    2    1    2    0    0  0.15229100763E+03  0.22849703313E+03  0.19961105370E+03  0.34818046952E+03  0.77340942861E+02 0.  0.
         23    2    1    2    0    0  0.22368557679E+03  0.27895372974E+02  0.52525411918E+03  0.57900155850E+03  0.92398733407E+02 0.  0.
        -13    1    3    3    0    0  0.20433425734E+02  0.16826319469E+02 -0.33044242496E+01  0.26675253208E+02  0.00000000000E+00 0.  1.
         14    1    3    3    0    0  0.13185758189E+03  0.21167071366E+03  0.20291547794E+03  0.32150521631E+03  0.00000000000E+00 0. -1.
        -11    1    4    4    0    0  0.19042012270E+03 -0.11477687566E+02  0.43650931696E+03  0.47637374428E+03  0.00000000000E+00 0. -1.
         11    1    4    4    0    0  0.33265454091E+02  0.39373060540E+02  0.88744802212E+02  0.10262781422E+03  0.00000000000E+00 0.  1.
         21    1    1    2  503  502 -0.45951478701E+02 -0.63771390215E+02 -0.36147948194E+03  0.36992667445E+03  0.00000000000E+00 0. -1.
          1    1    1    2  501    0 -0.33002510571E+03 -0.19262101589E+03  0.32886483020E+02  0.38353741269E+03  0.00000000000E+00 0. -1.
<scales pt_clust_5="13000.00000" pt_clust_6="13000.00000" pt_clust_7="13000.00000" pt_clust_8="13000.00000" pt_clust_9="78.60234" pt_clust_10="13000.00000"></scales>
<clustering>
<clus scale="   77.341">  5  6 -1 -1</clus>
<clus scale="   78.602">  2  9  1 -1</clus>
<clus scale="   92.399">  7  8 -1 -1</clus>
<clus scale="  265.030">  1  5  2 -1</clus>
<clus scale="  352.454">  7 10 -1 -1</clus>
<clus scale="   78.602">  2  5  1 -1</clus>
</clustering>
</event>
<event>
10    4  0.2759992E-005  0.2203474E+03  0.7546771E-02  0.1149532E+00
         -3   -1    0    0    0  501 -0.00000000000E+00  0.00000000000E+00  0.44692546621E+03  0.44692546621E+03  0.00000000000E+00 0.  1.
         21   -1    0    0  503  502  0.00000000000E+00 -0.00000000000E+00 -0.18445158102E+03  0.18445158102E+03  0.00000000000E+00 0.  1.
         24    2    1    2    0    0 -0.91224353294E+02  0.65667202351E+02  0.16059924867E+03  0.21180562844E+03  0.80221203360E+02 0.  0.
         23    2    1    2    0    0  0.57857785292E+02 -0.66850870002E+02  0.29536371566E+02  0.13087102645E+03  0.91860035818E+02 0.  0.
        -11    1    3    3    0    0 -0.70746966915E+02  0.88067614734E+01  0.11800296727E+03  0.13786730091E+03  0.00000000000E+00 0.  1.
         12    1    3    3    0    0 -0.20477386378E+02  0.56860440877E+02  0.42596281405E+02  0.73938327538E+02  0.00000000000E+00 0. -1.
        -13    1    4    4    0    0  0.66366243411E+02 -0.43129022689E+02 -0.14181329811E+02  0.80409582624E+02  0.00000000000E+00 0.  1.
         13    1    4    4    0    0 -0.85084581194E+01 -0.23721847313E+02  0.43717701377E+02  0.50461443828E+02  0.00000000000E+00 0. -1.
         21    1    1    2  503  501 -0.14184200629E+02  0.60073570568E+02 -0.90260224745E+02  0.10934776449E+03  0.00000000000E+00 0.  1.
         -4    1    1    2    0  502  0.47550768631E+02 -0.58889902916E+02  0.16259848970E+03  0.17935262785E+03  0.00000000000E+00 0.  1.
<scales pt_clust_5="13000.00000" pt_clust_6="13000.00000" pt_clust_7="13000.00000" pt_clust_8="13000.00000" pt_clust_9="61.72540" pt_clust_10="13000.00000"></scales>
<clustering>
<clus scale="   61.725">  2  9  1 -1</clus>
<clus scale="   80.221">  5  6 -1 -1</clus>
<clus scale="   91.860">  7  8 -1 -1</clus>
<clus scale="   70.233">  7 10 -1 -1</clus>
<clus scale="  150.290">  1  5  2 -1</clus>
<clus scale="   61.725">  2  5  1 -1</clus>
</clustering>
</event>
<event>
10    4  0.2759992E-005  0.1371992E+03  0.7546771E-02  0.1231690E+00
         -3   -1    0    0    0  501 -0.00000000000E+00  0.00000000000E+00  0.44353606866E+02  0.44353606866E+02  0.00000000000E+00 0.  1.
         21   -1    0    0  503  502  0.00000000000E+00 -0.00000000000E+00 -0.58106929112E+03  0.58106929112E+03  0.00000000000E+00 0. -1.
         24    2    1    2    0    0 -0.21357174865E+02 -0.39552809978E+02 -0.19441647752E+03  0.21503071944E+03  0.80124215291E+02 0.  0.
         23    2    1    2    0    0 -0.30841503007E+01  0.50442747285E+02 -0.91171550258E+02  0.13861549784E+03  0.91367510252E+02 0.  0.
        -11    1    3    3    0    0 -0.16033112213E+02  0.19760633047E+02 -0.25934512779E+02  0.36333761968E+02  0.00000000000E+00 0.  1.
         12    1    3    3    0    0 -0.53240626518E+01 -0.59313443025E+02 -0.16848196475E+03  0.17869695748E+03  0.00000000000E+00 0. -1.
        -11    1    4    4    0    0  0.24608449216E+01 -0.23937234492E+02 -0.44617145912E+02  0.50692570089E+02  0.00000000000E+00 0. -1.
         11    1    4    4    0    0 -0.55449952223E+01  0.74379981777E+02 -0.46554404346E+02  0.87922927756E+02  0.00000000000E+00 0.  1.
         21    1    1    2  503  501 -0.10555584463E+02 -0.28408801011E+02 -0.21915368454E+03  0.22123927722E+03  0.00000000000E+00 0.  1.
         -4    1    1    2    0  502  0.34996909629E+02  0.17518863703E+02 -0.31973971931E+02  0.50537403476E+02  0.00000000000E+00 0.  1.
<scales pt_clust_5="13000.00000" pt_clust_6="13000.00000" pt_clust_7="13000.00000" pt_clust_8="13000.00000" pt_clust_9="30.30644" pt_clust_10="13000.00000"></scales>
<clustering>
<clus scale="   30.306">  2  9  1 -1</clus>
<clus scale="   80.124">  5  6 -1 -1</clus>
<clus scale="   91.368">  7  8 -1 -1</clus>
<clus scale="   36.680">  7 10 -1 -1</clus>
<clus scale="  101.325">  1  5  2 -1</clus>
<clus scale="   30.306">  2  5  1 -1</clus>
</clustering>
</event>
<event>
10    4  0.2759992E-005  0.4304997E+03  0.7546771E-02  0.1076127E+00
         21   -1    0    0  503  502  0.00000000000E+00  0.00000000000E+00  0.52757812515E+03  0.52757812515E+03  0.00000000000E+00 0. -1.
          4   -1    0    0  502    0 -0.00000000000E+00 -0.00000000000E+00 -0.22216772959E+03  0.22216772959E+03  0.00000000000E+00 0. -1.
         24    2    1    2    0    0 -0.99614225780E+02  0.29955302370E+02 -0.68528738764E+02  0.14800589595E+03  0.79932740987E+02 0.  0.
         23    2    1    2    0    0  0.23296736105E+02 -0.21365846841E+03  0.14110852378E+03  0.27367445241E+03  0.93773191190E+02 0.  0.
        -11    1    3    3    0    0 -0.20792984717E+02 -0.20945373555E+02 -0.40438825344E+02  0.50063514479E+02  0.00000000000E+00 0.  1.
         12    1    3    3    0    0 -0.78821241063E+02  0.50900675925E+02 -0.28089913420E+02  0.97942381471E+02  0.00000000000E+00 0. -1.
        -13    1    4    4    0    0  0.15746095474E+02 -0.48307752706E+02  0.84761425777E+02  0.98823467830E+02  0.00000000000E+00 0.  1.
         13    1    4    4    0    0  0.75506406308E+01 -0.16535071570E+03  0.56347098000E+02  0.17485098458E+03  0.00000000000E+00 0. -1.
         21    1    1    2  503  501  0.21744482009E+02  0.91989404826E+00  0.82126292685E+02  0.84961147903E+02  0.00000000000E+00 0. -1.
          3    1    1    2  501    0  0.54573007667E+02  0.18278327199E+03  0.15070431787E+03  0.24310435847E+03  0.00000000000E+00 0. -1.
<scales pt_clust_5="13000.00000" pt_clust_6="13000.00000" pt_clust_7="13000.00000" pt_clust_8="13000.00000" pt_clust_9="21.76393" pt_clust_10="13000.00000"></scales>
<clustering>
<clus scale="   21.764">  1  9  2 -1</clus>
<clus scale="   79.933">  5  6 -1 -1</clus>
<clus scale="   93.773">  7  8 -1 -1</clus>
<clus scale="  129.733">  2  5  1 -1</clus>
<clus scale="  197.156">  7 10 -1 -1</clus>
<clus scale="   21.764">  1  5  2 -1</clus>
</clustering>
</event>
<event>
10    4  0.2759992E-005  0.1261583E+04  0.7546771E-02  0.9538255E-01
         21   -1    0    0  503  502  0.00000000000E+00  0.00000000000E+00  0.86860444175E+03  0.86860444175E+03  0.00000000000E+00 0. -1.
          2   -1    0    0  502    0 -0.00000000000E+00 -0.00000000000E+00 -0.71473606181E+03  0.71473606181E+03  0.00000000000E+00 0. -1.
         24    2    1    2    0    0  0.40869810064E+02  0.19779392987E+03  0.90570153002E+01  0.21672056813E+03  0.78057639306E+02 0.  0.
         23    2    1    2    0    0 -0.62882976919E+03  0.22252481513E+02  0.11436136017E+03  0.64536676785E+03  0.86589218706E+02 0.  0.
        -13    1    3    3    0    0  0.91184412973E+01  0.61416561156E+02 -0.33265491534E+02  0.70439569014E+02  0.00000000000E+00 0.  1.
         14    1    3    3    0    0  0.31751368767E+02  0.13637736872E+03  0.42322506834E+02  0.14628099911E+03  0.00000000000E+00 0. -1.
        -13    1    4    4    0    0 -0.54614179976E+02  0.24483400614E+02  0.21999639915E+02  0.63766211401E+02  0.00000000000E+00 0.  1.
         13    1    4    4    0    0 -0.57421558921E+03 -0.22309191009E+01  0.92361720251E+02  0.58160055645E+03  0.00000000000E+00 0. -1.
         21    1    1    2  503  501  0.19716782488E+02  0.21399697114E+02  0.96055588107E+02  0.10036620225E+03  0.00000000000E+00 0.  1.
          1    1    1    2  501    0  0.56824317664E+03 -0.24144610850E+03 -0.65605583628E+02  0.62088696532E+03  0.00000000000E+00 0. -1.
<scales pt_clust_5="13000.00000" pt_clust_6="13000.00000" pt_clust_7="13000.00000" pt_clust_8="13000.00000" pt_clust_9="29.09808" pt_clust_10="13000.00000"></scales>
<clustering>
<clus scale="   29.098">  1  9  2 -1</clus>
<clus scale="   78.058">  5  6 -1 -1</clus>
<clus scale="   86.589">  7  8 -1 -1</clus>
<clus scale="  219.956">  2  5  1 -1</clus>
<clus scale="  612.026">  7 10 -1 -1</clus>
<clus scale="   29.098">  1  5  2 -1</clus>
</clustering>
</event>
<event>
10    4  0.2759992E-005  0.3960143E+03  0.7546771E-02  0.1067724E+00
          2   -1    0    0  502    0 -0.00000000000E+00  0.00000000000E+00  0.72669386557E+03  0.72669386557E+03  0.00000000000E+00 0. -1.
         21   -1    0    0  503  502  0.00000000000E+00 -0.00000000000E+00 -0.32985085044E+03  0.32985085044E+03  0.00000000000E+00 0. -1.
         24    2    1    2    0    0 -0.18666923461E+03 -0.11113269975E+03  0.18039806318E+03  0.29383263166E+03  0.81229761340E+02 0.  0.
         23    2    1    2    0    0 -0.39765865961E+02  0.72354766821E+02  0.13363354783E+03  0.18133669140E+03  0.90600961170E+02 0.  0.
        -11    1    3    3    0    0 -0.67814299283E+02 -0.33745805655E+02  0.11487548879E+03  0.13760064140E+03  0.00000000000E+00 0.  1.
         12    1    3    3    0    0 -0.11885493533E+03 -0.77386894093E+02  0.65522574387E+02  0.15623199027E+03  0.00000000000E+00 0. -1.
        -11    1    4    4    0    0 -0.53863554173E+02  0.15921798345E+02  0.98481483419E+02  0.11337278645E+03  0.00000000000E+00 0.  1.
         11    1    4    4    0    0  0.14097688212E+02  0.56432968476E+02  0.35152064411E+02  0.67963904952E+02  0.00000000000E+00 0. -1.
         21    1    1    2  503  501 -0.73596056753E+01  0.19156911444E+03 -0.12880828311E+03  0.23096420329E+03  0.00000000000E+00 0. -1.
          1    1    1    2  501    0  0.23379470624E+03 -0.15279118151E+03  0.21161968722E+03  0.35041118966E+03  0.00000000000E+00 0. -1.
<scales pt_clust_5="13000.00000" pt_clust_6="13000.00000" pt_clust_7="13000.00000" pt_clust_8="13000.00000" pt_clust_9="191.71043" pt_clust_10="13000.00000"></scales>
<clustering>
<clus scale="   81.230">  5  6 -1 -1</clus>
<clus scale="   90.601">  7  8 -1 -1</clus>
<clus scale="  191.710">  2  9  1 -1</clus>
<clus scale="  209.730">  1  5  2 -1</clus>
<clus scale="  160.776">  7 10 -1 -1</clus>
<clus scale="  191.710">  2  5  1 -1</clus>
</clustering>
</event>
<event>
10    4  0.2759992E-005  0.4968797E+03  0.7546771E-02  0.1029206E+00
          2   -1    0    0  502    0 -0.00000000000E+00  0.00000000000E+00  0.93478713592E+03  0.93478713592E+03  0.00000000000E+00 0. -1.
         21   -1    0    0  503  502  0.00000000000E+00 -0.00000000000E+00 -0.28329961720E+03  0.28329961720E+03  0.00000000000E+00 0. -1.
         24    2    1    2    0    0 -0.28573655312E+03  0.13760293953E+03  0.13718386166E+03  0.35507619898E+03  0.81729727912E+02 0.  0.
         23    2    1    2    0    0 -0.49025313960E+02  0.53623484909E+02  0.15721924161E+03  0.19609974179E+03  0.91968795004E+02 0.  0.
        -13    1    3    3    0    0 -0.32697902603E+02  0.88841951772E+01  0.45524540582E+02  0.56750026906E+02  0.00000000000E+00 0.  1.
         14    1    3    3    0    0 -0.25303865052E+03  0.12871874435E+03  0.91659321082E+02  0.29832617207E+03  0.00000000000E+00 0. -1.
        -11    1    4    4    0    0 -0.30981932237E+02 -0.10653196797E+02  0.96858906252E+01  0.34164121594E+02  0.00000000000E+00 0. -1.
         11    1    4    4    0    0 -0.18043381724E+02  0.64276681705E+02  0.14753335098E+03  0.16193562019E+03  0.00000000000E+00 0.  1.
         21    1    1    2  503  501  0.38835446707E+02  0.41287296390E+02 -0.74934543130E+02  0.93957535718E+02  0.00000000000E+00 0. -1.
          1    1    1    2  501    0  0.29592642037E+03 -0.23251372083E+03  0.43201895858E+03  0.57295327664E+03  0.00000000000E+00 0. -1.
<scales pt_clust_5="13000.00000" pt_clust_6="13000.00000" pt_clust_7="13000.00000" pt_clust_8="13000.00000" pt_clust_9="56.68186" pt_clust_10="13000.00000"></scales>
<clustering>
<clus scale="   56.682">  2  9  1 -1</clus>
<clus scale="   81.730">  5  6 -1 -1</clus>
<clus scale="   91.969">  7  8 -1 -1</clus>
<clus scale="  319.828">  1  5  2 -1</clus>
<clus scale="  151.783">  7 10 -1 -1</clus>
<clus scale="   56.682">  2  5  1 -1</clus>
</clustering>
</event>
<event>
10    4  0.2759992E-005  0.2634550E+03  0.7546771E-02  0.1121682E+00
          2   -1    0    0  502    0 -0.00000000000E+00  0.00000000000E+00  0.23104598023E+03  0.23104598023E+03  0.00000000000E+00 0. -1.
         21   -1    0    0  503  502  0.00000000000E+00 -0.00000000000E+00 -0.59828259592E+03  0.59828259592E+03  0.00000000000E+00 0.  1.
         24    2    1    2    0    0  0.24615861897E+02 -0.17745433690E+03 -0.46033455183E+03  0.49953069256E+03  0.74344003497E+02 0.  0.
         23    2    1    2    0    0 -0.15711875478E+02  0.12098823995E+03 -0.87836191725E+01  0.15307548275E+03  0.92032245518E+02 0.  0.
        -11    1    3    3    0    0 -0.20265715317E+02 -0.93051847425E+02 -0.27450440643E+03  0.29055466727E+03  0.00000000000E+00 0.  1.
         12    1    3    3    0    0  0.44881577214E+02 -0.84402489471E+02 -0.18583014541E+03  0.20897602528E+03  0.00000000000E+00 0. -1.
        -13    1    4    4    0    0  0.33536003303E+02  0.16666136785E+02 -0.29796057606E+01  0.37567295396E+02  0.00000000000E+00 0. -1.
         13    1    4    4    0    0 -0.49247878781E+02  0.10432210317E+03 -0.58040134119E+01  0.11550818735E+03  0.00000000000E+00 0.  1.
         21    1    1    2  503  501  0.28913808349E+01  0.27579924066E+02 -0.30202839985E+02  0.41002729638E+02  0.00000000000E+00 0.  1.
          1    1    1    2  501    0 -0.11795367254E+02  0.28886172878E+02  0.13208439530E+03  0.13571967121E+03  0.00000000000E+00 0. -1.
<scales pt_clust_5="13000.00000" pt_clust_6="13000.00000" pt_clust_7="13000.00000" pt_clust_8="13000.00000" pt_clust_9="27.73107" pt_clust_10="13000.00000"></scales>
<clustering>
<clus scale="   27.731">  2  9  1 -1</clus>
<clus scale="   74.344">  5  6 -1 -1</clus>
<clus scale="   92.032">  7  8 -1 -1</clus>
<clus scale="   31.281">  7 10 -1 -1</clus>
<clus scale="  173.075">  1  5  2 -1</clus>
<clus scale="   27.731">  2  5  1 -1</clus>
</clustering>
</event>
<event>
10    4  0.2759992E-005  0.2487704E+03  0.7546771E-02  0.1152819E+00
         21   -1    0    0  503  502  0.00000000000E+00  0.00000000000E+00  0.20657750393E+03  0.20657750393E+03  0.00000000000E+00 0.  1.
         -1   -1    0    0    0  501 -0.00000000000E+00 -0.00000000000E+00 -0.28075419585E+03  0.28075419585E+03  0.00000000000E+00 0.  1.
         24    2    1    2    0    0 -0.35657451435E+02  0.43689529789E+02 -0.16167831762E+03  0.18908069526E+03  0.80196022804E+02 0.  0.
         23    2    1    2    0    0 -0.64082244957E+02 -0.85608663433E+02  0.79007177939E+02  0.16131033065E+03  0.91342822578E+02 0.  0.
        -13    1    3    3    0    0 -0.58033796027E+02  0.34946518638E+02 -0.14436221562E+03  0.15946670482E+03  0.00000000000E+00 0.  1.
         14    1    3    3    0    0  0.22376344592E+02  0.87430111503E+01 -0.17316102004E+02  0.29613990442E+02  0.00000000000E+00 0. -1.
        -13    1    4    4    0    0 -0.31417290161E+02 -0.82781837398E+02  0.15570623344E+02  0.89901741003E+02  0.00000000000E+00 0.  1.
         13    1    4    4    0    0 -0.32664954796E+02 -0.28268260351E+01  0.63436554594E+02  0.71408589652E+02  0.00000000000E+00 0. -1.
         21    1    1    2  503  501  0.32516930001E+02 -0.13018397182E+02  0.31522756809E+02  0.47122325906E+02  0.00000000000E+00 0.  1.
         -2    1    1    2    0  502  0.67222766390E+02  0.54937530826E+02 -0.23028309043E+02  0.89818347969E+02  0.00000000000E+00 0.  1.
<scales pt_clust_5="13000.00000" pt_clust_6="13000.00000" pt_clust_7="13000.00000" pt_clust_8="13000.00000" pt_clust_9="35.02612" pt_clust_10="13000.00000"></scales>
<clustering>
<clus scale="   35.026">  1  9  2 -1</clus>
<clus scale="   80.196">  5  6 -1 -1</clus>
<clus scale="   91.343">  7  8 -1 -1</clus>
<clus scale="   90.406">  7 10 -1 -1</clus>
<clus scale="   96.627">  2  5  1 -1</clus>
<clus scale="   35.026">  1  5  2 -1</clus>
</clustering>
</event>
<event>
10    4  0.2759992E-005  0.2082608E+03  0.7546771E-02  0.1173484E+00
         21   -1    0    0  503  502  0.00000000000E+00  0.00000000000E+00  0.11625941376E+03  0.11625941376E+03  0.00000000000E+00 0. -1.
          2   -1    0    0  502    0 -0.00000000000E+00 -0.00000000000E+00 -0.39228022551E+03  0.39228022551E+03  0.00000000000E+00 0. -1.
         24    2    1    2    0    0 -0.53129290682E+02  0.51556568743E+01 -0.42108049595E+02  0.10509676471E+03  0.80143245419E+02 0.  0.
         23    2    1    2    0    0  0.16081067091E+02  0.73962711088E+02 -0.17331682231E+03  0.20993290605E+03  0.91126400111E+02 0.  0.
        -13    1    3    3    0    0  0.22812095635E+01  0.27351780597E+02  0.63977150454E+01  0.28182522540E+02  0.00000000000E+00 0.  1.
         14    1    3    3    0    0 -0.55410500246E+02 -0.22196123723E+02 -0.48505764641E+02  0.76914242174E+02  0.00000000000E+00 0. -1.
        -11    1    4    4    0    0 -0.23970289881E+02  0.29139254119E+02 -0.13124741227E+03  0.13656337047E+03  0.00000000000E+00 0.  1.
         11    1    4    4    0    0  0.40051356972E+02  0.44823456969E+02 -0.42069410044E+02  0.73369535581E+02  0.00000000000E+00 0. -1.
         21    1    1    2  503  501 -0.21400077269E+02 -0.72624867078E+01  0.46629686638E+02  0.51817320427E+02  0.00000000000E+00 0. -1.
          1    1    1    2  501    0  0.58448300860E+02 -0.71855881254E+02 -0.10722562648E+03  0.14169264807E+03  0.00000000000E+00 0. -1.
<scales pt_clust_5="13000.00000" pt_clust_6="13000.00000" pt_clust_7="13000.00000" pt_clust_8="13000.00000" pt_clust_9="22.59883" pt_clust_10="13000.00000"></scales>
<clustering>
<clus scale="   22.599">  1  9  2 -1</clus>
<clus scale="   80.143">  5  6 -1 -1</clus>
<clus scale="   91.126">  7  8 -1 -1</clus>
<clus scale="   90.766">  7 10 -1 -1</clus>
<clus scale="  102.069">  2  5  1 -1</clus>
<clus scale="   22.599">  1  5  2 -1</clus>
</clustering>
</event>
<event>
10    4  0.2759992E-005  0.2957399E+03  0.7546771E-02  0.1139277E+00
         21   -1    0    0  503  502  0.00000000000E+00  0.00000000000E+00  0.21115521618E+03  0.21115521618E+03  0.00000000000E+00 0.  1.
          2   -1    0    0  502    0 -0.00000000000E+00 -0.00000000000E+00 -0.24665011440E+03  0.24665011440E+03  0.00000000000E+00 0. -1.
         24    2    1    2    0    0  0.53940664907E+01 -0.40926957377E+02 -0.22296479073E+02  0.83861705726E+02  0.69509286537E+02 0.  0.
         23    2    1    2    0    0  0.84799820036E+02  0.11948681518E+03 -0.18900226110E+02  0.17554513313E+03  0.94819653759E+02 0.  0.
        -11    1    3    3    0    0  0.36494967904E+02 -0.12130395989E+02 -0.10615564383E+02  0.39896358184E+02  0.00000000000E+00 0.  1.
         12    1    3    3    0    0 -0.31100901414E+02 -0.28796561388E+02 -0.11680914690E+02  0.43965347542E+02  0.00000000000E+00 0. -1.
        -13    1    4    4    0    0  0.55937394315E+02  0.82288499619E+02  0.33604438726E+02  0.10502212888E+03  0.00000000000E+00 0.  1.
         13    1    4    4    0    0  0.28862425721E+02  0.37198315557E+02 -0.52504664836E+02  0.70523004249E+02  0.00000000000E+00 0. -1.
         21    1    1    2  503  501 -0.18399729576E+02  0.11556830294E+02  0.65199217443E+02  0.68724437648E+02  0.00000000000E+00 0.  1.
          1    1    1    2  501    0 -0.71794156951E+02 -0.90116688093E+02 -0.59497410479E+02  0.12967405407E+03  0.00000000000E+00 0. -1.
<scales pt_clust_5="13000.00000" pt_clust_6="13000.00000" pt_clust_7="13000.00000" pt_clust_8="13000.00000" pt_clust_9="21.72810" pt_clust_10="13000.00000"></scales>
<clustering>
<clus scale="   21.728">  1  9  2 -1</clus>
<clus scale="   69.509">  5  6 -1 -1</clus>
<clus scale="   79.453">  2  5  1 -1</clus>
<clus scale="   94.820">  7  8 -1 -1</clus>
<clus scale="  130.464">  7 10 -1 -1</clus>
<clus scale="   21.728">  1  5  2 -1</clus>
</clustering>
</event>
<event>
10    4  0.2759992E-005  0.1722998E+03  0.7546771E-02  0.1182339E+00
          2   -1    0    0  502    0 -0.00000000000E+00  0.00000000000E+00  0.60654044117E+03  0.60654044117E+03  0.00000000000E+00 0. -1.
         21   -1    0    0  503  502  0.00000000000E+00 -0.00000000000E+00 -0.17926602220E+03  0.17926602220E+03  0.00000000000E+00 0.  1.
         24    2    1    2    0    0  0.90470364066E+02  0.87096026402E+02  0.50357312250E+03  0.52511747808E+03  0.79949180719E+02 0.  0.
         23    2    1    2    0    0 -0.64964330778E+02 -0.13366632918E+02  0.11730272596E+02  0.11227711606E+03  0.89830508998E+02 0.  0.
        -13    1    3    3    0    0  0.69641913017E+02  0.56990559167E+02  0.19959734727E+03  0.21894524640E+03  0.00000000000E+00 0.  1.
         14    1    3    3    0    0  0.20828451050E+02  0.30105467235E+02  0.30397577523E+03  0.30617223169E+03  0.00000000000E+00 0. -1.
        -13    1    4    4    0    0 -0.87704702799E+00  0.26277040814E+02 -0.17352829609E+02  0.31501948842E+02  0.00000000000E+00 0. -1.
         13    1    4    4    0    0 -0.64087283750E+02 -0.39643673732E+02  0.29083102205E+02  0.80775167219E+02  0.00000000000E+00 0.  1.
         21    1    1    2  503  501  0.22864143710E+02 -0.44615371389E+02 -0.75424500402E+02  0.90565753420E+02  0.00000000000E+00 0.  1.
          1    1    1    2  501    0 -0.48370176998E+02 -0.29114022096E+02 -0.12604475730E+02  0.57846115806E+02  0.00000000000E+00 0. -1.
<scales pt_clust_5="13000.00000" pt_clust_6="13000.00000" pt_clust_7="13000.00000" pt_clust_8="13000.00000" pt_clust_9="50.13283" pt_clust_10="13000.00000"></scales>
<clustering>
<clus scale="   50.133">  2  9  1 -1</clus>
<clus scale="   79.949">  5  6 -1 -1</clus>
<clus scale="   89.831">  7  8 -1 -1</clus>
<clus scale="   60.539">  7 10 -1 -1</clus>
<clus scale="  147.605">  1  5  2 -1</clus>
<clus scale="   50.133">  2  5  1 -1</clus>
</clustering>
</event>
<event>
10    4  0.2759992E-005  0.2913901E+03  0.7546771E-02  0.1140584E+00
         21   -1    0    0  503  502  0.00000000000E+00  0.00000000000E+00  0.45381611611E+03  0.45381611611E+03  0.00000000000E+00 0. -1.
          2   -1    0    0  502    0 -0.00000000000E+00 -0.00000000000E+00 -0.97097722065E+02  0.97097722065E+02  0.00000000000E+00 0. -1.
         24    2    1    2    0    0  0.90270520551E+01  0.14990981331E+02  0.11295436304E+03  0.13902495767E+03  0.79139329887E+02 0.  0.
         23    2    1    2    0    0  0.23735397592E+02  0.36101946851E+02 -0.45809847590E+02  0.11115980542E+03  0.91603714658E+02 0.  0.
        -13    1    3    3    0    0 -0.34052360363E+02  0.10437052861E+02  0.35542689703E+02  0.50316777620E+02  0.00000000000E+00 0.  1.
         14    1    3    3    0    0  0.43079412418E+02  0.45539284699E+01  0.77411673335E+02  0.88708180048E+02  0.00000000000E+00 0. -1.
        -11    1    4    4    0    0 -0.23759611402E+02 -0.16750763065E+02 -0.59066780207E+01  0.29664727245E+02  0.00000000000E+00 0.  1.
         11    1    4    4    0    0  0.47495008994E+02  0.52852709916E+02 -0.39903169569E+02  0.81495078173E+02  0.00000000000E+00 0. -1.
         21    1    1    2  503  501  0.11423793699E+02 -0.23821519174E+02  0.63651331235E+02  0.68916324671E+02  0.00000000000E+00 0.  1.
          1    1    1    2  501    0 -0.44186243346E+02 -0.27271409008E+02  0.22592254736E+03  0.23181275041E+03  0.00000000000E+00 0. -1.
<scales pt_clust_5="13000.00000" pt_clust_6="13000.00000" pt_clust_7="13000.00000" pt_clust_8="13000.00000" pt_clust_9="26.41908" pt_clust_10="13000.00000"></scales>
<clustering>
<clus scale="   26.419">  1  9  2 -1</clus>
<clus scale="   79.139">  5  6 -1 -1</clus>
<clus scale="   80.485">  2  5  1 -1</clus>
<clus scale="   91.604">  7  8 -1 -1</clus>
<clus scale="   54.908">  7 10 -1 -1</clus>
<clus scale="   26.419">  1  5  2 -1</clus>
</clustering>
</event>
<event>
10    4  0.2759992E-005  0.3592424E+03  0.7546771E-02  0.1075963E+00
          2   -1    0    0  502    0 -0.00000000000E+00  0.00000000000E+00  0.17328399350E+04  0.17328399350E+04  0.00000000000E+00 0. -1.
         21   -1    0    0  503  502  0.00000000000E+00 -0.00000000000E+00 -0.18467234043E+03  0.18467234043E+03  0.00000000000E+00 0. -1.
         24    2    1    2    0    0 -0.18259714132E+03  0.98167251003E+02  0.13034484827E+04  0.13223710455E+04  0.81906713145E+02 0.  0.
         23    2    1    2    0    0 -0.29257191063E+02 -0.98410485430E+02  0.11191927516E+03  0.17548354087E+03  0.87908714540E+02 0.  0.
        -13    1    3    3    0    0 -0.74827141475E+02  0.45691200599E+01  0.32294501971E+03  0.33153199500E+03  0.00000000000E+00 0.  1.
         14    1    3    3    0    0 -0.10776999984E+03  0.93598130943E+02  0.98050346304E+03  0.99083905051E+03  0.00000000000E+00 0. -1.
        -11    1    4    4    0    0 -0.26690390866E+02 -0.27944912554E+02 -0.49818672209E+01  0.38962983757E+02  0.00000000000E+00 0.  1.
         11    1    4    4    0    0 -0.25668001970E+01 -0.70465572876E+02  0.11690114238E+03  0.13652055711E+03  0.00000000000E+00 0. -1.
         21    1    1    2  503  501 -0.19105368718E+02 -0.67151572824E+01 -0.93837881394E+02  0.95998210586E+02  0.00000000000E+00 0. -1.
          1    1    1    2  501    0  0.23095970110E+03  0.69583917095E+01  0.22663771803E+03  0.32365947843E+03  0.00000000000E+00 0. -1.
<scales pt_clust_5="13000.00000" pt_clust_6="13000.00000" pt_clust_7="13000.00000" pt_clust_8="13000.00000" pt_clust_9="20.25113" pt_clust_10="13000.00000"></scales>
<clustering>
<clus scale="   20.251">  2  9  1 -1</clus>
<clus scale="   81.907">  5  6 -1 -1</clus>
<clus scale="   87.909">  7  8 -1 -1</clus>
<clus scale="  220.659">  7 10 -1 -1</clus>
<clus scale="  224.251">  1  5  2 -1</clus>
<clus scale="   20.251">  2  5  1 -1</clus>
</clustering>
</event>
<event>
10    4  0.2759992E-005  0.4310494E+03  0.7546771E-02  0.1075043E+00
         21   -1    0    0  503  502  0.00000000000E+00  0.00000000000E+00  0.27207756018E+03  0.27207756018E+03  0.00000000000E+00 0. -1.
          2   -1    0    0  502    0 -0.00000000000E+00 -0.00000000000E+00 -0.35743380011E+03  0.35743380011E+03  0.00000000000E+00 0. -1.
         24    2    1    2    0    0 -0.25142464889E+02 -0.12100640299E+03  0.10916245586E+02  0.14472635894E+03  0.74510814309E+02 0.  0.
         23    2    1    2    0    0  0.92751937744E+02 -0.14543237126E+03 -0.11605451563E+02  0.19639100123E+03  0.93173184409E+02 0.  0.
        -11    1    3    3    0    0 -0.25994209114E+02 -0.28186502859E+02  0.31529179968E+02  0.49641384352E+02  0.00000000000E+00 0.  1.
         12    1    3    3    0    0  0.85174422511E+00 -0.92819900133E+02 -0.20612934382E+02  0.95084974590E+02  0.00000000000E+00 0. -1.
        -11    1    4    4    0    0  0.30167917984E+02 -0.95133335717E+02  0.32274973636E+02  0.10489103281E+03  0.00000000000E+00 0.  1.
         11    1    4    4    0    0  0.62584019760E+02 -0.50299035541E+02 -0.43880425199E+02  0.91499968423E+02  0.00000000000E+00 0. -1.
         21    1    1    2  503  501 -0.10324129449E+02  0.47531279152E+02 -0.23352981489E+02  0.53955276769E+02  0.00000000000E+00 0.  1.
          1    1    1    2  501    0 -0.57285343406E+02  0.21890749510E+03 -0.61314052464E+02  0.23443872336E+03  0.00000000000E+00 0. -1.
<scales pt_clust_5="13000.00000" pt_clust_6="13000.00000" pt_clust_7="13000.00000" pt_clust_8="13000.00000" pt_clust_9="48.63962" pt_clust_10="13000.00000"></scales>
<clustering>
<clus scale="   48.640">  1  9  2 -1</clus>
<clus scale="   74.511">  5  6 -1 -1</clus>
<clus scale="   93.173">  7  8 -1 -1</clus>
<clus scale="  133.097">  2  5  1 -1</clus>
<clus scale="  185.856">  7 10 -1 -1</clus>
<clus scale="   48.640">  1  5  2 -1</clus>
</clustering>
</event>
<event>
10    4  0.2816670E-005  0.2523824E+03  0.7546771E-02  0.1137755E+00
          2   -1    0    0  503    0 -0.00000000000E+00  0.00000000000E+00  0.64227700431E+03  0.64227700431E+03  0.00000000000E+00 0. -1.
         21   -1    0    0  501  502  0.00000000000E+00 -0.00000000000E+00 -0.51241813482E+03  0.51241813482E+03  0.00000000000E+00 0.  1.
         24    2    1    2    0    0 -0.40598617214E+02  0.98942118813E+02  0.25250566388E+03  0.28521938798E+03  0.78442325257E+02 0.  0.
         23    2    1    2    0    0  0.14696232098E+02  0.12817148321E+03  0.24404888558E+03  0.29073861970E+03  0.91242413860E+02 0.  0.
        -13    1    3    3    0    0 -0.43291498161E+02  0.45031577096E+02  0.20148084515E+03  0.21094200082E+03  0.00000000000E+00 0.  1.
         14    1    3    3    0    0  0.26928809473E+01  0.53910541717E+02  0.51024818729E+02  0.74277387154E+02  0.00000000000E+00 0. -1.
        -11    1    4    4    0    0 -0.27973893235E+02  0.15709867084E+02  0.24387273968E+02  0.40299848116E+02  0.00000000000E+00 0. -1.
         11    1    4    4    0    0  0.42670125333E+02  0.11246161613E+03  0.21966161161E+03  0.25043877158E+03  0.00000000000E+00 0.  1.
         21    1    1    2  503  502  0.72863863476E+01 -0.21702415214E+03 -0.44632254641E+03  0.49634301594E+03  0.00000000000E+00 0.  1.
          1    1    1    2  501    0  0.18615998769E+02 -0.10089449887E+02  0.79626866451E+02  0.82394115505E+02  0.00000000000E+00 0. -1.
<scales pt_clust_5="13000.00000" pt_clust_6="13000.00000" pt_clust_7="13000.00000" pt_clust_8="13000.00000" pt_clust_9="210.44686" pt_clust_10="13000.00000"></scales>
<clustering>
<clus scale="   78.442">  5  6 -1 -1</clus>
<clus scale="   91.242">  7  8 -1 -1</clus>
<clus scale="   21.174">  7 10 -1 -1</clus>
<clus scale="  132.631">  1  5  2 -1</clus>
<clus scale="  210.447">  2  9  1 -1</clus>
<clus scale="  210.447">  2  5  1 -1</clus>
</clustering>
</event>
<event>
10    4  0.2759992E-005  0.2147641E+03  0.7546771E-02  0.1168936E+00
          2   -1    0    0  503    0 -0.00000000000E+00  0.00000000000E+00  0.59434457084E+03  0.59434457084E+03  0.00000000000E+00 0. -1.
         21   -1    0    0  501  502  0.00000000000E+00 -0.00000000000E+00 -0.54248698595E+02  0.54248698595E+02  0.00000000000E+00 0.  1.
         24    2    1    2    0    0 -0.45581865179E+02  0.22072940249E+02  0.18321102301E+03  0.20807757115E+03  0.84646769221E+02 0.  0.
         23    2    1    2    0    0  0.19582947250E+01  0.47491583762E+02  0.10764408182E+03  0.14984994457E+03  0.92781852162E+02 0.  0.
        -13    1    3    3    0    0 -0.25613147238E+02  0.52794534240E+02  0.85294658596E+02  0.10353006782E+03  0.00000000000E+00 0.  1.
         14    1    3    3    0    0 -0.19968717941E+02 -0.30721593991E+02  0.97916364413E+02  0.10454750333E+03  0.00000000000E+00 0. -1.
        -13    1    4    4    0    0 -0.42567396814E+02  0.52850986352E+01  0.43691937707E+02  0.61228269286E+02  0.00000000000E+00 0.  1.
         13    1    4    4    0    0  0.44525691539E+02  0.42206485126E+02  0.63952144113E+02  0.88621675286E+02  0.00000000000E+00 0. -1.
         21    1    1    2  503  502 -0.29385672898E+02  0.11064196877E+02  0.20837345640E+02  0.37684601597E+02  0.00000000000E+00 0. -1.
          1    1    1    2  501    0  0.73009243352E+02 -0.80628720887E+02  0.22840342177E+03  0.25298115211E+03  0.00000000000E+00 0. -1.
<scales pt_clust_5="13000.00000" pt_clust_6="13000.00000" pt_clust_7="13000.00000" pt_clust_8="13000.00000" pt_clust_9="31.39959" pt_clust_10="13000.00000"></scales>
<clustering>
<clus scale="   31.400">  2  9  1 -1</clus>
<clus scale="   84.647">  5  6 -1 -1</clus>
<clus scale="   92.782">  7  8 -1 -1</clus>
<clus scale="  101.356">  7 10 -1 -1</clus>
<clus scale="  103.257">  1  5  2 -1</clus>
<clus scale="   31.400">  2  5  1 -1</clus>
</clustering>
</event>
<event>
10    4  0.2759992E-005  0.3311328E+03  0.7546771E-02  0.1117396E+00
          2   -1    0    0  502    0 -0.00000000000E+00  0.00000000000E+00  0.67670182710E+03  0.67670182710E+03  0.00000000000E+00 0. -1.
         21   -1    0    0  503  502  0.00000000000E+00 -0.00000000000E+00 -0.18425960008E+03  0.18425960008E+03  0.00000000000E+00 0. -1.
         24    2    1    2    0    0  0.32819168584E+02 -0.73775880735E+02 -0.64001417884E+02  0.13076072586E+03  0.80512157658E+02 0.  0.
         23    2    1    2    0    0 -0.11361120059E+03  0.31386853887E+02  0.11471673648E+03  0.19023654643E+03  0.95589614875E+02 0.  0.
        -13    1    3    3    0    0  0.41782329998E+02 -0.46002138700E+02 -0.19344007905E+01  0.62174767965E+02  0.00000000000E+00 0.  1.
         14    1    3    3    0    0 -0.89631614134E+01 -0.27773742035E+02 -0.62067017093E+02  0.68585957892E+02  0.00000000000E+00 0. -1.
        -13    1    4    4    0    0 -0.26067587069E+02 -0.33190902125E+02  0.23733613030E+02  0.48419412087E+02  0.00000000000E+00 0.  1.
         13    1    4    4    0    0 -0.87543613523E+02  0.64577756012E+02  0.90983123453E+02  0.14181713434E+03  0.00000000000E+00 0. -1.
         21    1    1    2  503  501 -0.16763941239E+02  0.34410309264E+02 -0.35859772910E+02  0.52450189920E+02  0.00000000000E+00 0. -1.
          1    1    1    2  501    0  0.97555973247E+02  0.79787175840E+01  0.47758668133E+03  0.48751396496E+03  0.00000000000E+00 0. -1.
<scales pt_clust_5="13000.00000" pt_clust_6="13000.00000" pt_clust_7="13000.00000" pt_clust_8="13000.00000" pt_clust_9="38.27661" pt_clust_10="13000.00000"></scales>
<clustering>
<clus scale="   38.277">  2  9  1 -1</clus>
<clus scale="   80.512">  5  6 -1 -1</clus>
<clus scale="   95.590">  7  8 -1 -1</clus>
<clus scale="   97.037">  1  5  2 -1</clus>
<clus scale="  116.039">  7 10 -1 -1</clus>
<clus scale="   38.277">  2  5  1 -1</clus>
</clustering>
</event>
<event>
10    4  0.2759992E-005  0.2434617E+03  0.7546771E-02  0.1121535E+00
         21   -1    0    0  501  502  0.00000000000E+00  0.00000000000E+00  0.63677529101E+03  0.63677529101E+03  0.00000000000E+00 0.  1.
          2   -1    0    0  503    0 -0.00000000000E+00 -0.00000000000E+00 -0.46894357280E+03  0.46894357280E+03  0.00000000000E+00 0. -1.
         24    2    1    2    0    0  0.13101149016E+03 -0.11817428341E+03 -0.14534890362E+03  0.24277924086E+03  0.81769702193E+02 0.  0.
         23    2    1    2    0    0 -0.88759673116E+02  0.45809355723E+02 -0.11212043580E+03  0.16993226786E+03  0.79556312715E+02 0.  0.
        -13    1    3    3    0    0  0.50419234403E+02 -0.77672863580E+02 -0.11492297784E+03  0.14758883349E+03  0.00000000000E+00 0.  1.
         14    1    3    3    0    0  0.80592255756E+02 -0.40501419830E+02 -0.30425925773E+02  0.95190407370E+02  0.00000000000E+00 0. -1.
        -13    1    4    4    0    0 -0.65355317651E+02 -0.22402161105E+01 -0.91893623329E+02  0.11278640930E+03  0.00000000000E+00 0.  1.
         13    1    4    4    0    0 -0.23404355465E+02  0.48049571834E+02 -0.20226812467E+02  0.57145858561E+02  0.00000000000E+00 0. -1.
         21    1    1    2  503  502  0.10798580182E+03  0.22590952425E+02  0.50422422440E+03  0.51615245132E+03  0.00000000000E+00 0.  1.
          1    1    1    2  501    0 -0.15023761887E+03  0.49773975262E+02 -0.78923166778E+02  0.17685490378E+03  0.00000000000E+00 0. -1.
<scales pt_clust_5="13000.00000" pt_clust_6="13000.00000" pt_clust_7="13000.00000" pt_clust_8="13000.00000" pt_clust_9="110.32354" pt_clust_10="13000.00000"></scales>
<clustering>
<clus scale="   79.556">  7  8 -1 -1</clus>
<clus scale="   81.770">  5  6 -1 -1</clus>
<clus scale="  110.324">  1  9  2 -1</clus>
<clus scale="  123.243">  7 10 -1 -1</clus>
<clus scale="  220.118">  2  5  1 -1</clus>
<clus scale="  110.324">  1  5  2 -1</clus>
</clustering>
</event>
<event>
10    4  0.2759992E-005  0.3236148E+03  0.7546771E-02  0.1109918E+00
         21   -1    0    0  501  502  0.00000000000E+00  0.00000000000E+00  0.96111845086E+02  0.96111845086E+02  0.00000000000E+00 0. -1.
          2   -1    0    0  503    0 -0.00000000000E+00 -0.00000000000E+00 -0.73002212756E+03  0.73002212756E+03  0.00000000000E+00 0. -1.
         24    2    1    2    0    0 -0.86944368165E+02 -0.27448065609E+02 -0.86630236878E+02  0.14898443266E+03  0.79867664121E+02 0.  0.
         23    2    1    2    0    0 -0.80987633672E+02  0.79890535331E+01 -0.15745138940E+03  0.20385770543E+03  0.10071843057E+03 0.  0.
        -13    1    3    3    0    0 -0.89586498510E+02 -0.46286291372E+02 -0.80403828393E+02  0.12896874468E+03  0.00000000000E+00 0.  1.
         14    1    3    3    0    0  0.26421303449E+01  0.18838225763E+02 -0.62264084842E+01  0.20015687979E+02  0.00000000000E+00 0. -1.
        -13    1    4    4    0    0 -0.58720108194E+02  0.52744582616E+02 -0.86949610071E+02  0.11743200924E+03  0.00000000000E+00 0.  1.
         13    1    4    4    0    0 -0.22267525477E+02 -0.44755529083E+02 -0.70501779331E+02  0.86425696197E+02  0.00000000000E+00 0. -1.
         21    1    1    2  503  502 -0.25381847947E+02  0.56053585876E+02 -0.44816384185E+02  0.76123261794E+02  0.00000000000E+00 0.  1.
          1    1    1    2  501    0  0.19331384978E+03 -0.36594573800E+02 -0.34501227201E+03  0.39716857276E+03  0.00000000000E+00 0. -1.
<scales pt_clust_5="13000.00000" pt_clust_6="13000.00000" pt_clust_7="13000.00000" pt_clust_8="13000.00000" pt_clust_9="61.53245" pt_clust_10="13000.00000"></scales>
<clustering>
<clus scale="   61.532">  1  9  2 -1</clus>
<clus scale="   79.868">  5  6 -1 -1</clus>
<clus scale="  100.718">  7  8 -1 -1</clus>
<clus scale="  125.610">  2  5  1 -1</clus>
<clus scale="  128.851">  7 10 -1 -1</clus>
<clus scale="   61.532">  1  5  2 -1</clus>
</clustering>
</event>
<event>
10    4  0.2759992E-005  0.1754508E+03  0.7546771E-02  0.1195271E+00
         21   -1    0    0  503  502  0.00000000000E+00  0.00000000000E+00  0.13895368072E+03  0.13895368072E+03  0.00000000000E+00 0. -1.
          2   -1    0    0  502    0 -0.00000000000E+00 -0.00000000000E+00 -0.40590605347E+03  0.40590605347E+03  0.00000000000E+00 0. -1.
         24    2    1    2    0    0  0.57630382486E+02  0.39049179697E+02 -0.29825124042E+03  0.31678390430E+03  0.80945291342E+02 0.  0.
         23    2    1    2    0    0  0.73967846012E+01  0.40722033762E+01  0.32041209727E+02  0.94292796663E+02  0.88279086532E+02 0.  0.
        -13    1    3    3    0    0  0.26488143048E+02  0.10706962328E+02 -0.18852260566E+02  0.34229643482E+02  0.00000000000E+00 0.  1.
         14    1    3    3    0    0  0.31142239437E+02  0.28342217369E+02 -0.27939897985E+03  0.28255426082E+03  0.00000000000E+00 0. -1.
        -11    1    4    4    0    0 -0.98641410934E+01  0.25593445385E+02  0.52979591879E+02  0.59658720082E+02  0.00000000000E+00 0. -1.
         11    1    4    4    0    0  0.17260925695E+02 -0.21521242008E+02 -0.20938382152E+02  0.34634076580E+02  0.00000000000E+00 0.  1.
         21    1    1    2  503  501 -0.15853611906E+02 -0.21033673617E+02  0.52047882218E+02  0.58332962206E+02  0.00000000000E+00 0. -1.
          1    1    1    2  501    0 -0.49173555181E+02 -0.22087709456E+02 -0.52790224282E+02  0.75450071027E+02  0.00000000000E+00 0. -1.
<scales pt_clust_5="13000.00000" pt_clust_6="13000.00000" pt_clust_7="13000.00000" pt_clust_8="13000.00000" pt_clust_9="26.33918" pt_clust_10="13000.00000"></scales>
<clustering>
<clus scale="   26.339">  1  9  2 -1</clus>
<clus scale="   80.945">  5  6 -1 -1</clus>
<clus scale="   88.279">  7  8 -1 -1</clus>
<clus scale="   57.054">  7 10 -1 -1</clus>
<clus scale="  104.990">  2  5  1 -1</clus>
<clus scale="   26.339">  1  5  2 -1</clus>
</clustering>
</event>
<event>
10    4  0.2759992E-005  0.1600799E+03  0.7546771E-02  0.1214110E+00
         21   -1    0    0  503  502  0.00000000000E+00  0.00000000000E+00  0.13570676949E+03  0.13570676949E+03  0.00000000000E+00 0.  1.
          2   -1    0    0  502    0 -0.00000000000E+00 -0.00000000000E+00 -0.80661409278E+03  0.80661409278E+03  0.00000000000E+00 0. -1.
         24    2    1    2    0    0 -0.42370252285E+02 -0.18115115424E+02 -0.65832730130E+03  0.66467820969E+03  0.79239454228E+02 0.  0.
         23    2    1    2    0    0  0.35651359870E+02  0.16492787877E+02 -0.12091810762E+03  0.15608626479E+03  0.90546682947E+02 0.  0.
        -13    1    3    3    0    0  0.30942154421E+01 -0.31369134625E+02 -0.11347451051E+03  0.11777122447E+03  0.00000000000E+00 0.  1.
         14    1    3    3    0    0 -0.45464467727E+02  0.13254019201E+02 -0.54485279079E+03  0.54690698522E+03  0.00000000000E+00 0. -1.
        -11    1    4    4    0    0  0.48034047319E+02  0.46061941269E+02 -0.84732691161E+02  0.10774321829E+03  0.00000000000E+00 0.  1.
         11    1    4    4    0    0 -0.12382687449E+02 -0.29569153392E+02 -0.36185416459E+02  0.48343046502E+02  0.00000000000E+00 0. -1.
         21    1    1    2  503  501 -0.65706268755E+01 -0.19793953263E+02  0.83886186342E+02  0.86439955937E+02  0.00000000000E+00 0.  1.
          1    1    1    2  501    0  0.13289519290E+02  0.21416280810E+02  0.24451899293E+02  0.35116431848E+02  0.00000000000E+00 0. -1.
<scales pt_clust_5="13000.00000" pt_clust_6="13000.00000" pt_clust_7="13000.00000" pt_clust_8="13000.00000" pt_clust_9="20.85602" pt_clust_10="13000.00000"></scales>
<clustering>
<clus scale="   20.856">  1  9  2 -1</clus>
<clus scale="   79.239">  5  6 -1 -1</clus>
<clus scale="   90.547">  7  8 -1 -1</clus>
<clus scale="   13.557">  7 10 -1 -1</clus>
<clus scale="   92.109">  2  5  1 -1</clus>
<clus scale="   20.856">  1  5  2 -1</clus>
</clustering>
</event>
<event>
10    4  0.2759992E-005  0.4972463E+03  0.7546771E-02  0.1059716E+00
          2   -1    0    0  503    0 -0.00000000000E+00  0.00000000000E+00  0.83827764665E+03  0.83827764665E+03  0.00000000000E+00 0. -1.
         21   -1    0    0  501  502  0.00000000000E+00 -0.00000000000E+00 -0.27588299140E+03  0.27588299140E+03  0.00000000000E+00 0. -1.
         24    2    1    2    0    0  0.10587431354E+03 -0.91797668178E+01  0.18300341884E+03  0.22765662286E+03  0.83926445424E+02 0.  0.
         23    2    1    2    0    0 -0.25192976488E+03 -0.11589471621E+03  0.40263924724E+03  0.49692504930E+03  0.88971622066E+02 0.  0.
        -13    1    3    3    0    0  0.92531466585E+02  0.19592376193E+02  0.16748890244E+03  0.19234985301E+03  0.00000000000E+00 0.  1.
         14    1    3    3    0    0  0.13342846952E+02 -0.28772143010E+02  0.15514516395E+02  0.35306769849E+02  0.00000000000E+00 0. -1.
        -13    1    4    4    0    0 -0.22081619181E+03 -0.90101231494E+02  0.28001808141E+03  0.36781537270E+03  0.00000000000E+00 0. -1.
         13    1    4    4    0    0 -0.31113573073E+02 -0.25793484715E+02  0.12262116583E+03  0.12910967660E+03  0.00000000000E+00 0.  1.
         21    1    1    2  503  502 -0.19211009441E+02  0.31290715276E+02 -0.15439040810E+03  0.15869647084E+03  0.00000000000E+00 0. -1.
          1    1    1    2  501    0  0.16526646078E+03  0.93783767751E+02  0.13114239727E+03  0.23088249504E+03  0.00000000000E+00 0. -1.
<scales pt_clust_5="13000.00000" pt_clust_6="13000.00000" pt_clust_7="13000.00000" pt_clust_8="13000.00000" pt_clust_9="36.71746" pt_clust_10="13000.00000"></scales>
<clustering>
<clus scale="   36.717">  2  9  1 -1</clus>
<clus scale="   83.926">  5  6 -1 -1</clus>
<clus scale="   88.972">  7  8 -1 -1</clus>
<clus scale="  132.348">  1  5  2 -1</clus>
<clus scale="  214.532">  7 10 -1 -1</clus>
<clus scale="   36.717">  2  5  1 -1</clus>
</clustering>
</event>
<event>
10    4  0.2759992E-005  0.5057665E+03  0.7546771E-02  0.1074236E+00
         21   -1    0    0  503  502  0.00000000000E+00  0.00000000000E+00  0.66493339570E+03  0.66493339570E+03  0.00000000000E+00 0. -1.
         -3   -1    0    0    0  501 -0.00000000000E+00 -0.00000000000E+00 -0.25205804952E+03  0.25205804952E+03  0.00000000000E+00 0.  1.
         24    2    1    2    0    0 -0.14074517647E+02  0.10193654680E+02 -0.85328469586E+02  0.11972188799E+03  0.82160696799E+02 0.  0.
         23    2    1    2    0    0  0.14653606822E+03 -0.10593144282E+03  0.37760203899E+03  0.42863262824E+03  0.91914853384E+02 0.  0.
        -13    1    3    3    0    0 -0.16202312141E+02 -0.35033895578E+02 -0.36337984610E+02  0.53012620041E+02  0.00000000000E+00 0.  1.
         14    1    3    3    0    0  0.21277944939E+01  0.45227550257E+02 -0.48990484976E+02  0.66709267946E+02  0.00000000000E+00 0. -1.
        -13    1    4    4    0    0  0.10964927363E+03 -0.85245572802E+02  0.35384312204E+03  0.38012461892E+03  0.00000000000E+00 0. -1.
         13    1    4    4    0    0  0.36886794591E+02 -0.20685870023E+02  0.23758916946E+02  0.48508009321E+02  0.00000000000E+00 0.  1.
         21    1    1    2  503  501  0.32275102566E+01  0.54066779880E+02  0.19916742764E+03  0.20640081817E+03  0.00000000000E+00 0. -1.
         -4    1    1    2    0  502 -0.13568906083E+03  0.41671008265E+02 -0.78565650861E+02  0.16223611082E+03  0.00000000000E+00 0.  1.
<scales pt_clust_5="13000.00000" pt_clust_6="13000.00000" pt_clust_7="13000.00000" pt_clust_8="13000.00000" pt_clust_9="54.16303" pt_clust_10="13000.00000"></scales>
<clustering>
<clus scale="   54.163">  1  9  2 -1</clus>
<clus scale="   82.161">  5  6 -1 -1</clus>
<clus scale="   84.226">  2  5  1 -1</clus>
<clus scale="   91.915">  7  8 -1 -1</clus>
<clus scale="  157.492">  7 10 -1 -1</clus>
<clus scale="   54.163">  1  5  2 -1</clus>
</clustering>
</event>
<event>
10    4  0.2759992E-005  0.2229027E+03  0.7546771E-02  0.1169352E+00
         -1   -1    0    0    0  501 -0.00000000000E+00  0.00000000000E+00  0.63878341446E+03  0.63878341446E+03  0.00000000000E+00 0.  1.
         21   -1    0    0  503  502  0.00000000000E+00 -0.00000000000E+00 -0.21446864217E+03  0.21446864217E+03  0.00000000000E+00 0.  1.
         24    2    1    2    0    0  0.28644487173E+01 -0.43616296474E+02  0.13101132137E+03  0.15980065993E+03  0.80384688864E+02 0.  0.
         23    2    1    2    0    0 -0.29977359930E+02  0.11141837910E+03  0.35938864871E+03  0.38851007260E+03  0.92017272184E+02 0.  0.
        -13    1    3    3    0    0 -0.19729738076E+02 -0.35148807483E+02  0.17828422595E+02  0.44074413034E+02  0.00000000000E+00 0.  1.
         14    1    3    3    0    0  0.22594186794E+02 -0.84674889911E+01  0.11318289877E+03  0.11572624690E+03  0.00000000000E+00 0. -1.
        -13    1    4    4    0    0 -0.26868057791E+02  0.85386046764E+02  0.34902135702E+03  0.36031732844E+03  0.00000000000E+00 0.  1.
         13    1    4    4    0    0 -0.31093021391E+01  0.26032332333E+02  0.10367291683E+02  0.28192744161E+02  0.00000000000E+00 0. -1.
         21    1    1    2  503  501  0.22176181569E+02  0.36796605520E+01 -0.17397758717E+03  0.17542384037E+03  0.00000000000E+00 0.  1.
         -2    1    1    2    0  502  0.49367296443E+01 -0.71481743175E+02  0.10789238938E+03  0.12951748374E+03  0.00000000000E+00 0.  1.
<scales pt_clust_5="13000.00000" pt_clust_6="13000.00000" pt_clust_7="13000.00000" pt_clust_8="13000.00000" pt_clust_9="22.47939" pt_clust_10="13000.00000"></scales>
<clustering>
<clus scale="   22.479">  2  9  1 -1</clus>
<clus scale="   80.385">  5  6 -1 -1</clus>
<clus scale="   91.478">  1  5  2 -1</clus>
<clus scale="   92.017">  7  8 -1 -1</clus>
<clus scale="   81.851">  7 10 -1 -1</clus>
<clus scale="   22.479">  2  5  1 -1</clus>
</clustering>
</event>
<event>
10    4  0.2759992E-005  0.2545500E+03  0.7546771E-02  0.1149873E+00
         21   -1    0    0  501  502  0.00000000000E+00  0.00000000000E+00  0.13183539847E+03  0.13183539847E+03  0.00000000000E+00 0.  1.
          2   -1    0    0  503    0 -0.00000000000E+00 -0.00000000000E+00 -0.34761438695E+03  0.34761438695E+03  0.00000000000E+00 0. -1.
         24    2    1    2    0    0 -0.14548507590E+02 -0.29421537756E+02  0.62350777774E+01  0.92911191776E+02  0.86696755449E+02 0.  0.
         23    2    1    2    0    0 -0.25549692342E+02 -0.40422281308E+02  0.34637996160E+01  0.87937920049E+02  0.73717923667E+02 0.  0.
        -11    1    3    3    0    0 -0.29586068970E+02 -0.48469973808E+02 -0.17037517677E+02  0.59287020895E+02  0.00000000000E+00 0.  1.
         12    1    3    3    0    0  0.15037561379E+02  0.19048436052E+02  0.23272595454E+02  0.33624170881E+02  0.00000000000E+00 0. -1.
        -11    1    4    4    0    0 -0.18422545256E+02 -0.19273880760E+02  0.38239713049E+02  0.46617038809E+02  0.00000000000E+00 0.  1.
         11    1    4    4    0    0 -0.71271470856E+01 -0.21148400548E+02 -0.34775913433E+02  0.41320881240E+02  0.00000000000E+00 0. -1.
         21    1    1    2  503  502 -0.31449411050E+02 -0.38884939234E+01  0.16491246390E+02  0.35723200415E+02  0.00000000000E+00 0.  1.
          1    1    1    2  501    0  0.71547610982E+02  0.73732312987E+02 -0.24196911226E+03  0.26287747318E+03  0.00000000000E+00 0. -1.
<scales pt_clust_5="13000.00000" pt_clust_6="13000.00000" pt_clust_7="13000.00000" pt_clust_8="13000.00000" pt_clust_9="31.68889" pt_clust_10="13000.00000"></scales>
<clustering>
<clus scale="   31.689">  1  9  2 -1</clus>
<clus scale="   73.718">  7  8 -1 -1</clus>
<clus scale="   86.697">  5  6 -1 -1</clus>
<clus scale="   96.699">  2  5  1 -1</clus>
<clus scale="   65.264">  7 10 -1 -1</clus>
<clus scale="   31.689">  1  5  2 -1</clus>
</clustering>
</event>
<event>
10    4  0.2759992E-005  0.4366854E+03  0.7546771E-02  0.1087778E+00
         21   -1    0    0  501  502  0.00000000000E+00  0.00000000000E+00  0.16183581437E+03  0.16183581437E+03  0.00000000000E+00 0. -1.
          2   -1    0    0  503    0 -0.00000000000E+00 -0.00000000000E+00 -0.12318989940E+04  0.12318989940E+04  0.00000000000E+00 0. -1.
         24    2    1    2    0    0  0.19841814708E+02  0.38724231679E+02 -0.82760027026E+03  0.83259388242E+03  0.79981885330E+02 0.  0.
         23    2    1    2    0    0 -0.54995735725E+02 -0.31994339778E+02 -0.37582604058E+03  0.39581048382E+03  0.10664219428E+03 0.  0.
        -13    1    3    3    0    0  0.23649374036E+02  0.21172362317E+02 -0.10320678575E+03  0.10797778681E+03  0.00000000000E+00 0.  1.
         14    1    3    3    0    0 -0.38075593284E+01  0.17551869362E+02 -0.72439348451E+03  0.72461609561E+03  0.00000000000E+00 0. -1.
        -11    1    4    4    0    0 -0.65388648872E+02 -0.11559800728E+02 -0.36401374923E+03  0.37002069404E+03  0.00000000000E+00 0. -1.
         11    1    4    4    0    0  0.10392913146E+02 -0.20434539050E+02 -0.11812291352E+02  0.25789789779E+02  0.00000000000E+00 0.  1.
         21    1    1    2  503  502 -0.30718043200E+02  0.11706573638E+00  0.32986542184E+02  0.45074647505E+02  0.00000000000E+00 0.  1.
          1    1    1    2  501    0  0.65871964218E+02 -0.68469576374E+01  0.10037658906E+03  0.12025579458E+03  0.00000000000E+00 0. -1.
<scales pt_clust_5="13000.00000" pt_clust_6="13000.00000" pt_clust_7="13000.00000" pt_clust_8="13000.00000" pt_clust_9="30.71827" pt_clust_10="13000.00000"></scales>
<clustering>
<clus scale="   30.718">  1  9  2 -1</clus>
<clus scale="   79.982">  5  6 -1 -1</clus>
<clus scale="   90.918">  2  5  1 -1</clus>
<clus scale="  106.642">  7  8 -1 -1</clus>
<clus scale="   39.203">  7 10 -1 -1</clus>
<clus scale="   30.718">  1  5  2 -1</clus>
</clustering>
</event>
<event>
10    4  0.2759992E-005  0.2000151E+03  0.7546771E-02  0.1188937E+00
         21   -1    0    0  503  502  0.00000000000E+00  0.00000000000E+00  0.13900396767E+03  0.13900396767E+03  0.00000000000E+00 0.  1.
          2   -1    0    0  502    0 -0.00000000000E+00 -0.00000000000E+00 -0.49695742733E+03  0.49695742733E+03  0.00000000000E+00 0. -1.
         24    2    1    2    0    0  0.25580188276E+02  0.21098052672E+02 -0.18794276939E+03  0.20489178226E+03  0.74556582617E+02 0.  0.
         23    2    1    2    0    0  0.59791880404E+02 -0.12016450834E+02 -0.72961144236E+02  0.13399700355E+03  0.94405531292E+02 0.  0.
        -13    1    3    3    0    0 -0.22243096219E+02  0.50391479150E+01 -0.22934207173E+02  0.32343874223E+02  0.00000000000E+00 0.  1.
         14    1    3    3    0    0  0.47823284495E+02  0.16058904757E+02 -0.16500856222E+03  0.17254790803E+03  0.00000000000E+00 0. -1.
        -11    1    4    4    0    0  0.67985843046E+02  0.26469008959E+02 -0.49892870054E+02  0.88385416061E+02  0.00000000000E+00 0.  1.
         11    1    4    4    0    0 -0.81939626426E+01 -0.38485459793E+02 -0.23068274182E+02  0.45611587486E+02  0.00000000000E+00 0. -1.
         21    1    1    2  503  501 -0.38308861986E+02  0.32388973424E+02  0.88212416997E+02  0.10147928369E+03  0.00000000000E+00 0.  1.
          1    1    1    2  501    0 -0.47063206694E+02 -0.41470575263E+02 -0.18526196303E+03  0.19559332551E+03  0.00000000000E+00 0. -1.
<scales pt_clust_5="13000.00000" pt_clust_6="13000.00000" pt_clust_7="13000.00000" pt_clust_8="13000.00000" pt_clust_9="50.16587" pt_clust_10="13000.00000"></scales>
<clustering>
<clus scale="   50.166">  1  9  2 -1</clus>
<clus scale="   74.557">  5  6 -1 -1</clus>
<clus scale="   81.468">  2  5  1 -1</clus>
<clus scale="   94.406">  7  8 -1 -1</clus>
<clus scale="   43.881">  7 10 -1 -1</clus>
<clus scale="   50.166">  1  5  2 -1</clus>
</clustering>
</event>
<event>
10    4  0.2759992E-005  0.2327848E+03  0.7546771E-02  0.1135663E+00
         21   -1    0    0  503  502  0.00000000000E+00  0.00000000000E+00  0.89154019182E+02  0.89154019182E+02  0.00000000000E+00 0. -1.
          2   -1    0    0  502    0 -0.00000000000E+00 -0.00000000000E+00 -0.64346790953E+03  0.64346790953E+03  0.00000000000E+00 0. -1.
         24    2    1    2    0    0 -0.11221654929E+03  0.11462247062E+03 -0.28268207698E+03  0.33490346780E+03  0.80748445126E+02 0.  0.
         23    2    1    2    0    0  0.90887414842E+02 -0.10133995757E+03 -0.13274262163E+03  0.21044076649E+03  0.90190927640E+02 0.  0.
        -11    1    3    3    0    0 -0.71380806873E+02  0.65199091459E+02 -0.23763892920E+03  0.25655097308E+03  0.00000000000E+00 0.  1.
         12    1    3    3    0    0 -0.40835742416E+02  0.49423379166E+02 -0.45043147787E+02  0.78352494723E+02  0.00000000000E+00 0. -1.
        -13    1    4    4    0    0  0.64812938081E+02 -0.11382102163E+03 -0.90309800706E+02  0.15909683219E+03  0.00000000000E+00 0. -1.
         13    1    4    4    0    0  0.26074476761E+02  0.12481064066E+02 -0.42432820924E+02  0.51343934307E+02  0.00000000000E+00 0.  1.
         21    1    1    2  503  501 -0.16351151607E+02 -0.24545607792E+02  0.11631639847E+02  0.31703975559E+02  0.00000000000E+00 0.  1.
          1    1    1    2  501    0  0.37680286053E+02  0.11263094733E+02 -0.15052083158E+03  0.15557371886E+03  0.00000000000E+00 0. -1.
<scales pt_clust_5="13000.00000" pt_clust_6="13000.00000" pt_clust_7="13000.00000" pt_clust_8="13000.00000" pt_clust_9="29.49317" pt_clust_10="13000.00000"></scales>
<clustering>
<clus scale="   29.493">  1  9  2 -1</clus>
<clus scale="   80.748">  5  6 -1 -1</clus>
<clus scale="   90.191">  7  8 -1 -1</clus>
<clus scale="   38.484">  7 10 -1 -1</clus>
<clus scale="  177.832">  2  5  1 -1</clus>
<clus scale="   29.493">  1  5  2 -1</clus>
</clustering>
</event>
<event>
10    4  0.2759992E-005  0.8589353E+03  0.7546771E-02  0.9689039E-01
         21   -1    0    0  503  502  0.00000000000E+00  0.00000000000E+00  0.50667550780E+03  0.50667550780E+03  0.00000000000E+00 0.  1.
         -3   -1    0    0    0  501 -0.00000000000E+00 -0.00000000000E+00 -0.11330241981E+04  0.11330241981E+04  0.00000000000E+00 0.  1.
         24    2    1    2    0    0  0.34460461586E+03 -0.27747870821E+03 -0.81884921421E+02  0.45673783971E+03  0.78469988388E+02 0.  0.
         23    2    1    2    0    0 -0.37102839801E+03 -0.16840859568E+03 -0.30457939407E+03  0.51683397402E+03  0.91242655494E+02 0.  0.
        -11    1    3    3    0    0  0.28312861026E+03 -0.25319454520E+03 -0.89418264599E+02  0.39021137056E+03  0.00000000000E+00 0.  1.
         12    1    3    3    0    0  0.61476005606E+02 -0.24284163013E+02  0.75333431786E+01  0.66526469153E+02  0.00000000000E+00 0. -1.
        -11    1    4    4    0    0 -0.33641394350E+03 -0.17877130593E+03 -0.28471827084E+03  0.47560279115E+03  0.00000000000E+00 0.  1.
         11    1    4    4    0    0 -0.34614454510E+02  0.10362710245E+02 -0.19861123229E+02  0.41231182867E+02  0.00000000000E+00 0. -1.
         21    1    1    2  503  501 -0.65218540412E+02  0.31815443670E+02  0.99364634239E+02  0.12304068842E+03  0.00000000000E+00 0.  1.
         -4    1    1    2    0  502  0.91642322559E+02  0.41407186023E+03 -0.33924900902E+03  0.54308720372E+03  0.00000000000E+00 0.  1.
<scales pt_clust_5="13000.00000" pt_clust_6="13000.00000" pt_clust_7="13000.00000" pt_clust_8="13000.00000" pt_clust_9="72.56501" pt_clust_10="13000.00000"></scales>
<clustering>
<clus scale="   72.565">  1  9  2 -1</clus>
<clus scale="   78.470">  5  6 -1 -1</clus>
<clus scale="   91.243">  7  8 -1 -1</clus>
<clus scale="  416.433">  2  5  1 -1</clus>
<clus scale="  371.951">  7 10 -1 -1</clus>
<clus scale="   72.565">  1  5  2 -1</clus>
</clustering>
</event>
<event>
10    4  0.2759992E-005  0.4074134E+03  0.7546771E-02  0.1057769E+00
          2   -1    0    0  503    0 -0.00000000000E+00  0.00000000000E+00  0.29104258373E+03  0.29104258373E+03  0.00000000000E+00 0. -1.
         21   -1    0    0  501  502  0.00000000000E+00 -0.00000000000E+00 -0.56372876640E+03  0.56372876640E+03  0.00000000000E+00 0. -1.
         24    2    1    2    0    0 -0.16735910650E+03 -0.14671050355E+03 -0.32315027388E+02  0.23842012847E+03  0.79163465596E+02 0.  0.
         23    2    1    2    0    0  0.29861119844E+02 -0.67191959147E+02 -0.69883295161E+02  0.13953962388E+03  0.95818504669E+02 0.  0.
        -11    1    3    3    0    0 -0.62550931409E+01 -0.39209223809E+02  0.82179231361E+01  0.40546561909E+02  0.00000000000E+00 0.  1.
         12    1    3    3    0    0 -0.16110401336E+03 -0.10750127974E+03 -0.40532950524E+02  0.19787356656E+03  0.00000000000E+00 0. -1.
        -13    1    4    4    0    0 -0.29122829110E+02 -0.20995043032E+02  0.16676563715E+01  0.35940396284E+02  0.00000000000E+00 0.  1.
         13    1    4    4    0    0  0.58983948954E+02 -0.46196916115E+02 -0.71550951533E+02  0.10359922759E+03  0.00000000000E+00 0. -1.
         21    1    1    2  503  502 -0.71520213924E+02  0.70894179118E+00 -0.16317119715E+03  0.17815858996E+03  0.00000000000E+00 0. -1.
          1    1    1    2  501    0  0.20901820058E+03  0.21319352090E+03 -0.73166629743E+01  0.29865300783E+03  0.00000000000E+00 0. -1.
<scales pt_clust_5="13000.00000" pt_clust_6="13000.00000" pt_clust_7="13000.00000" pt_clust_8="13000.00000" pt_clust_9="71.52373" pt_clust_10="13000.00000"></scales>
<clustering>
<clus scale="   71.524">  2  9  1 -1</clus>
<clus scale="   79.163">  5  6 -1 -1</clus>
<clus scale="   95.819">  7  8 -1 -1</clus>
<clus scale="  254.125">  1  5  2 -1</clus>
<clus scale="  104.692">  7 10 -1 -1</clus>
<clus scale="   71.524">  2  5  1 -1</clus>
</clustering>
</event>
<event>
10    4  0.2759992E-005  0.3258807E+03  0.7546771E-02  0.1087451E+00
         21   -1    0    0  503  502  0.00000000000E+00  0.00000000000E+00  0.79051834354E+03  0.79051834354E+03  0.00000000000E+00 0. -1.
          2   -1    0    0  502    0 -0.00000000000E+00 -0.00000000000E+00 -0.60347546081E+03  0.60347546081E+03  0.00000000000E+00 0. -1.
         24    2    1    2    0    0 -0.34721339153E+02  0.20251558874E+03 -0.54114146250E+03  0.58464152324E+03  0.82179639713E+02 0.  0.
         23    2    1    2    0    0 -0.30232849881E+02  0.80033670667E+01  0.71817564286E+02  0.11282686944E+03  0.81203822766E+02 0.  0.
        -13    1    3    3    0    0  0.26573500678E+02  0.45104353484E+02 -0.13147093094E+03  0.14151027992E+03  0.00000000000E+00 0.  1.
         14    1    3    3    0    0 -0.61294839831E+02  0.15741123526E+03 -0.40967053156E+03  0.44313124332E+03  0.00000000000E+00 0. -1.
        -11    1    4    4    0    0 -0.39417208209E+02 -0.18716378979E+02  0.72438733636E+02  0.84565887187E+02  0.00000000000E+00 0.  1.
         11    1    4    4    0    0  0.91843583275E+01  0.26719746046E+02 -0.62116934979E+00  0.28260982255E+02  0.00000000000E+00 0. -1.
         21    1    1    2  503  501 -0.40660567913E+01 -0.20581510089E+02  0.14773505030E+03  0.14921721235E+03  0.00000000000E+00 0.  1.
          1    1    1    2  501    0  0.69020245826E+02 -0.18993744572E+03  0.50863173064E+03  0.54730819931E+03  0.00000000000E+00 0. -1.
<scales pt_clust_5="13000.00000" pt_clust_6="13000.00000" pt_clust_7="13000.00000" pt_clust_8="13000.00000" pt_clust_9="20.97931" pt_clust_10="13000.00000"></scales>
<clustering>
<clus scale="   20.979">  1  9  2 -1</clus>
<clus scale="   81.204">  7  8 -1 -1</clus>
<clus scale="   82.180">  5  6 -1 -1</clus>
<clus scale="  217.038">  7 10 -1 -1</clus>
<clus scale="  220.679">  2  5  1 -1</clus>
<clus scale="   20.979">  1  5  2 -1</clus>
</clustering>
</event>
<event>
10    4  0.4625496E-005  0.1318747E+03  0.7546771E-02  0.1241095E+00
         21   -1    0    0  503  502  0.00000000000E+00  0.00000000000E+00  0.62694831672E+03  0.62694831672E+03  0.00000000000E+00 0. -1.
          2   -1    0    0  502    0 -0.00000000000E+00 -0.00000000000E+00 -0.78250022062E+03  0.78250022062E+03  0.00000000000E+00 0. -1.
         24    2    1    2    0    0  0.22251498902E+02  0.39897434990E+02 -0.53518223199E+03  0.54301682638E+03  0.79751600445E+02 0.  0.
         23    2    1    2    0    0 -0.81342564164E+02 -0.96532787504E+01 -0.20607452252E+03  0.23996430095E+03  0.91686195044E+02 0.  0.
        -13    1    3    3    0    0  0.51918668685E+02  0.18083664049E+02 -0.30752160150E+03  0.31239734707E+03  0.00000000000E+00 0.  1.
         14    1    3    3    0    0 -0.29667169783E+02  0.21813770941E+02 -0.22766063049E+03  0.23061947931E+03  0.00000000000E+00 0. -1.
        -13    1    4    4    0    0 -0.45959330499E+02  0.13965383306E+02 -0.25375548894E+02  0.54325044615E+02  0.00000000000E+00 0.  1.
         13    1    4    4    0    0 -0.35383233665E+02 -0.23618662056E+02 -0.18069897363E+03  0.18563925633E+03  0.00000000000E+00 0. -1.
         21    1    1    2  503  501  0.79995556340E+02 -0.13675994601E+02  0.59322742832E+03  0.59875295705E+03  0.00000000000E+00 0. -1.
          1    1    1    2  501    0 -0.20904491078E+02 -0.16568161638E+02 -0.75225777094E+01  0.27714452957E+02  0.00000000000E+00 0. -1.
<scales pt_clust_5="13000.00000" pt_clust_6="13000.00000" pt_clust_7="13000.00000" pt_clust_8="13000.00000" pt_clust_9="81.15616" pt_clust_10="13000.00000"></scales>
<clustering>
<clus scale="   79.752">  5  6 -1 -1</clus>
<clus scale="   81.156">  1  9  2 -1</clus>
<clus scale="   91.686">  7  8 -1 -1</clus>
<clus scale="   21.658">  7 10 -1 -1</clus>
<clus scale="   94.155">  2  5  1 -1</clus>
<clus scale="   81.156">  1  5  2 -1</clus>
</clustering>
</event>
<event>
10    4  0.2759992E-005  0.2912212E+03  0.7546771E-02  0.1119417E+00
         -3   -1    0    0    0  501 -0.00000000000E+00  0.00000000000E+00  0.24319027162E+03  0.24319027162E+03  0.00000000000E+00 0.  1.
         21   -1    0    0  501  502  0.00000000000E+00 -0.00000000000E+00 -0.52071850563E+03  0.52071850563E+03  0.00000000000E+00 0. -1.
         24    2    1    2    0    0 -0.10050243990E+03  0.35307855687E+02 -0.60610426713E+02  0.14708101417E+03  0.81313072776E+02 0.  0.
         23    2    1    2    0    0 -0.46789542330E+02  0.52062066420E+02  0.45399577117E+02  0.13495812560E+03  0.10607947036E+03 0.  0.
        -11    1    3    3    0    0 -0.78273305584E+02  0.10157273324E+02 -0.13107914357E+01  0.78940475946E+02  0.00000000000E+00 0.  1.
         12    1    3    3    0    0 -0.22229134317E+02  0.25150582363E+02 -0.59299635277E+02  0.68140538226E+02  0.00000000000E+00 0. -1.
        -13    1    4    4    0    0 -0.10725980499E+02  0.78625556850E+02  0.14824038940E+02  0.80726556833E+02  0.00000000000E+00 0. -1.
         13    1    4    4    0    0 -0.36063561832E+02 -0.26563490430E+02  0.30575538177E+02  0.54231568764E+02  0.00000000000E+00 0.  1.
         21    1    1    2  503  502 -0.15268675573E+02 -0.49480915788E+02 -0.30517535673E+03  0.30953754512E+03  0.00000000000E+00 0. -1.
         -4    1    1    2    0  503  0.16256065780E+03 -0.37889006319E+02  0.42857972314E+02  0.17233209236E+03  0.00000000000E+00 0.  1.
<scales pt_clust_5="13000.00000" pt_clust_6="13000.00000" pt_clust_7="13000.00000" pt_clust_8="13000.00000" pt_clust_9="51.78314" pt_clust_10="13000.00000"></scales>
<clustering>
<clus scale="   51.783">  2  9  1 -1</clus>
<clus scale="   81.313">  5  6 -1 -1</clus>
<clus scale="  106.079">  7  8 -1 -1</clus>
<clus scale="  135.601">  1  5  2 -1</clus>
<clus scale="  109.056">  7 10 -1 -1</clus>
<clus scale="   51.783">  2  5  1 -1</clus>
</clustering>
</event>
<event>
10    4  0.2759992E-005  0.4317753E+03  0.7546771E-02  0.1072453E+00
         21   -1    0    0  501  502  0.00000000000E+00  0.00000000000E+00  0.23126832571E+03  0.23126832571E+03  0.00000000000E+00 0.  1.
          2   -1    0    0  503    0 -0.00000000000E+00 -0.00000000000E+00 -0.14601907994E+04  0.14601907994E+04  0.00000000000E+00 0. -1.
         24    2    1    2    0    0  0.74629839219E+02 -0.86381018780E+02 -0.22329545861E+02  0.14385784992E+03  0.84647380684E+02 0.  0.
         23    2    1    2    0    0  0.19507011752E+03  0.16884213793E+03 -0.71188108244E+03  0.76449562555E+03  0.10544604148E+03 0.  0.
        -11    1    3    3    0    0  0.76136307753E+02 -0.87879185333E+02 -0.42334457612E+02  0.12374043347E+03  0.00000000000E+00 0.  1.
         12    1    3    3    0    0 -0.15064685343E+01  0.14981665535E+01  0.20004911750E+02  0.20117416449E+02  0.00000000000E+00 0. -1.
        -11    1    4    4    0    0  0.69751892286E+02  0.11695502307E+03 -0.27209469701E+03  0.30426851306E+03  0.00000000000E+00 0.  1.
         11    1    4    4    0    0  0.12531822524E+03  0.51887114860E+02 -0.43978638543E+03  0.46022711250E+03  0.00000000000E+00 0. -1.
         21    1    1    2  503  502 -0.10481416376E+03 -0.11416554529E+03  0.86940594808E+02  0.17770325738E+03  0.00000000000E+00 0.  1.
          1    1    1    2  501    0 -0.16488579298E+03  0.31704426147E+02 -0.58165244019E+03  0.60540239225E+03  0.00000000000E+00 0. -1.
<scales pt_clust_5="13000.00000" pt_clust_6="13000.00000" pt_clust_7="13000.00000" pt_clust_8="13000.00000" pt_clust_9="155.46174" pt_clust_10="13000.00000"></scales>
<clustering>
<clus scale="   84.647">  5  6 -1 -1</clus>
<clus scale="  105.446">  7  8 -1 -1</clus>
<clus scale="  142.114">  2  5  1 -1</clus>
<clus scale="  132.835">  7 10 -1 -1</clus>
<clus scale="  155.462">  1  9  2 -1</clus>
<clus scale="  155.462">  1  5  2 -1</clus>
</clustering>
</event>
<event>
10    4  0.2759992E-005  0.2367067E+03  0.7546771E-02  0.1154510E+00
         -1   -1    0    0    0  501 -0.00000000000E+00  0.00000000000E+00  0.75937253472E+03  0.75937253472E+03  0.00000000000E+00 0.  1.
         21   -1    0    0  503  502  0.00000000000E+00 -0.00000000000E+00 -0.51741211473E+02  0.51741211473E+02  0.00000000000E+00 0.  1.
         24    2    1    2    0    0  0.60329346844E+02 -0.32937967000E+02  0.25702963406E+03  0.27771631949E+03  0.79608928933E+02 0.  0.
         23    2    1    2    0    0 -0.90987101875E+02 -0.73220712226E+02  0.29305261873E+03  0.32966111676E+03  0.95690590713E+02 0.  0.
        -13    1    3    3    0    0  0.76452578689E+02 -0.27309634773E+02  0.24095385640E+03  0.25426280470E+03  0.00000000000E+00 0.  1.
         14    1    3    3    0    0 -0.16123231845E+02 -0.56283322269E+01  0.16075777665E+02  0.23453514796E+02  0.00000000000E+00 0. -1.
        -13    1    4    4    0    0 -0.66999051210E+02 -0.94168558467E+02  0.25549948873E+03  0.28042214429E+03  0.00000000000E+00 0.  1.
         13    1    4    4    0    0 -0.23988050665E+02  0.20947846241E+02  0.37553129997E+02  0.49238972465E+02  0.00000000000E+00 0. -1.
         21    1    1    2  503  501  0.25500421560E+02  0.16352585302E+02  0.11897028338E+02  0.32545626881E+02  0.00000000000E+00 0. -1.
         -2    1    1    2    0  502  0.51573334711E+01  0.89806093923E+02  0.14565204212E+03  0.17119068306E+03  0.00000000000E+00 0.  1.
<scales pt_clust_5="13000.00000" pt_clust_6="13000.00000" pt_clust_7="13000.00000" pt_clust_8="13000.00000" pt_clust_9="30.29321" pt_clust_10="13000.00000"></scales>
<clustering>
<clus scale="   30.293">  2  9  1 -1</clus>
<clus scale="   79.609">  5  6 -1 -1</clus>
<clus scale="   95.691">  7  8 -1 -1</clus>
<clus scale="   95.737">  7 10 -1 -1</clus>
<clus scale="  107.790">  1  5  2 -1</clus>
<clus scale="   30.293">  2  5  1 -1</clus>
</clustering>
</event>
<event>
10    4  0.2759992E-005  0.7106756E+03  0.7546771E-02  0.1001179E+00
          2   -1    0    0  503    0 -0.00000000000E+00  0.00000000000E+00  0.35441986983E+04  0.35441986983E+04  0.00000000000E+00 0. -1.
         21   -1    0    0  501  502  0.00000000000E+00 -0.00000000000E+00 -0.51303955615E+03  0.51303955615E+03  0.00000000000E+00 0. -1.
         24    2    1    2    0    0  0.16030685714E+03  0.23834729893E+03  0.96749312512E+03  0.10122949947E+04  0.78679639883E+02 0.  0.
         23    2    1    2    0    0 -0.17092001840E+03  0.22850881043E+03  0.75903022556E+03  0.81601843056E+03  0.91264815611E+02 0.  0.
        -11    1    3    3    0    0  0.13689701887E+03  0.13651145588E+03  0.62658461499E+03  0.65573199640E+03  0.00000000000E+00 0.  1.
         12    1    3    3    0    0  0.23409838266E+02  0.10183584305E+03  0.34090851013E+03  0.35656299827E+03  0.00000000000E+00 0. -1.
        -13    1    4    4    0    0 -0.90585497845E+02  0.15873240114E+03  0.36967235653E+03  0.41238253936E+03  0.00000000000E+00 0.  1.
         13    1    4    4    0    0 -0.80334520552E+02  0.69776409296E+02  0.38935786903E+03  0.40363589120E+03  0.00000000000E+00 0. -1.
         21    1    1    2  503  502 -0.53482731386E+02 -0.11978357301E+03 -0.43474075543E+03  0.45410134480E+03  0.00000000000E+00 0. -1.
          1    1    1    2  501    0  0.64095892646E+02 -0.34707253635E+03  0.17393765469E+04  0.17748234844E+04  0.00000000000E+00 0. -1.
<scales pt_clust_5="13000.00000" pt_clust_6="13000.00000" pt_clust_7="13000.00000" pt_clust_8="13000.00000" pt_clust_9="131.18120" pt_clust_10="13000.00000"></scales>
<clustering>
<clus scale="   78.680">  5  6 -1 -1</clus>
<clus scale="   91.265">  7  8 -1 -1</clus>
<clus scale="  131.181">  2  9  1 -1</clus>
<clus scale="  257.476">  1  5  2 -1</clus>
<clus scale="  278.145">  7 10 -1 -1</clus>
<clus scale="  131.181">  2  5  1 -1</clus>
</clustering>
</event>
<event>
10    4  0.2759992E-005  0.1409004E+03  0.7546771E-02  0.1228020E+00
         21   -1    0    0  501  502  0.00000000000E+00  0.00000000000E+00  0.48556535727E+02  0.48556535727E+02  0.00000000000E+00 0.  1.
          2   -1    0    0  503    0 -0.00000000000E+00 -0.00000000000E+00 -0.11347727561E+04  0.11347727561E+04  0.00000000000E+00 0. -1.
         24    2    1    2    0    0 -0.33025453994E+02  0.41554721347E+02 -0.70996205232E+03  0.71647715680E+03  0.80473132121E+02 0.  0.
         23    2    1    2    0    0  0.29331087035E+02 -0.35725880701E+02 -0.11036668161E+03  0.14441027569E+03  0.80850925150E+02 0.  0.
        -13    1    3    3    0    0 -0.96681594124E+01  0.54425846591E+02 -0.26434636306E+03  0.27006415117E+03  0.00000000000E+00 0.  1.
         14    1    3    3    0    0 -0.23357294581E+02 -0.12871125244E+02 -0.44561568926E+03  0.44641300562E+03  0.00000000000E+00 0. -1.
        -13    1    4    4    0    0  0.45126964508E+02 -0.19523136508E+02 -0.23224481992E+02  0.54378050247E+02  0.00000000000E+00 0.  1.
         13    1    4    4    0    0 -0.15795877473E+02 -0.16202744194E+02 -0.87142199617E+02  0.90032225445E+02  0.00000000000E+00 0. -1.
         21    1    1    2  503  502 -0.29132247574E+02  0.82862019757E+02 -0.12712064337E+03  0.15451362444E+03  0.00000000000E+00 0.  1.
          1    1    1    2  501    0  0.32826614532E+02 -0.88690860402E+02 -0.13876684308E+03  0.16792823491E+03  0.00000000000E+00 0. -1.
<scales pt_clust_5="13000.00000" pt_clust_6="13000.00000" pt_clust_7="13000.00000" pt_clust_8="13000.00000" pt_clust_9="87.83395" pt_clust_10="13000.00000"></scales>
<clustering>
<clus scale="   80.473">  5  6 -1 -1</clus>
<clus scale="   80.851">  7  8 -1 -1</clus>
<clus scale="   87.834">  1  9  2 -1</clus>
<clus scale="   57.841">  7 10 -1 -1</clus>
<clus scale="  100.916">  2  5  1 -1</clus>
<clus scale="   87.834">  1  5  2 -1</clus>
</clustering>
</event>
<event>
10    4  0.2759992E-005  0.1941763E+03  0.7546771E-02  0.1189833E+00
         21   -1    0    0  501  502  0.00000000000E+00  0.00000000000E+00  0.89030753451E+02  0.89030753451E+02  0.00000000000E+00 0. -1.
          2   -1    0    0  503    0 -0.00000000000E+00 -0.00000000000E+00 -0.27709733572E+03  0.27709733572E+03  0.00000000000E+00 0. -1.
         24    2    1    2    0    0 -0.32657853871E+02 -0.22316499161E+01 -0.75028903989E+02  0.11405816625E+03  0.79425519662E+02 0.  0.
         23    2    1    2    0    0 -0.24073225265E+02  0.28892245034E+02 -0.13500116053E+02  0.98891530991E+02  0.90459934615E+02 0.  0.
        -13    1    3    3    0    0  0.96318776612E+01 -0.26738932871E+02 -0.53099088579E+01  0.28912605044E+02  0.00000000000E+00 0.  1.
         14    1    3    3    0    0 -0.42289731532E+02  0.24507282955E+02 -0.69718995131E+02  0.85145561205E+02  0.00000000000E+00 0. -1.
        -11    1    4    4    0    0  0.29615652650E+02  0.10274152955E+02 -0.25977816244E+02  0.40712308183E+02  0.00000000000E+00 0.  1.
         11    1    4    4    0    0 -0.53688877915E+02  0.18618092079E+02  0.12477700191E+02  0.58179222808E+02  0.00000000000E+00 0. -1.
         21    1    1    2  503  502 -0.13904379364E+02  0.23989064041E+02 -0.13352696908E+02  0.30775013790E+02  0.00000000000E+00 0.  1.
          1    1    1    2  501    0  0.70635458500E+02 -0.50649659158E+02 -0.86184865317E+02  0.12240337814E+03  0.00000000000E+00 0. -1.
<scales pt_clust_5="13000.00000" pt_clust_6="13000.00000" pt_clust_7="13000.00000" pt_clust_8="13000.00000" pt_clust_9="27.72737" pt_clust_10="13000.00000"></scales>
<clustering>
<clus scale="   27.727">  1  9  2 -1</clus>
<clus scale="   79.426">  5  6 -1 -1</clus>
<clus scale="   87.292">  2  5  1 -1</clus>
<clus scale="   90.460">  7  8 -1 -1</clus>
<clus scale="   64.454">  7 10 -1 -1</clus>
<clus scale="   27.727">  1  5  2 -1</clus>
</clustering>
</event>
<event>
10    4  0.2759992E-005  0.1500852E+03  0.7546771E-02  0.1218187E+00
         21   -1    0    0  501  502  0.00000000000E+00  0.00000000000E+00  0.62006496630E+02  0.62006496630E+02  0.00000000000E+00 0. -1.
         -3   -1    0    0    0  501 -0.00000000000E+00 -0.00000000000E+00 -0.97294713053E+03  0.97294713053E+03  0.00000000000E+00 0.  1.
         24    2    1    2    0    0  0.37929591548E+02  0.96493427593E+02 -0.13066938219E+03  0.18522243847E+03  0.80518499661E+02 0.  0.
         23    2    1    2    0    0 -0.82642468794E+01 -0.26330980286E+00 -0.37619409334E+03  0.38710733083E+03  0.90894018579E+02 0.  0.
        -13    1    3    3    0    0  0.50770884161E+02  0.37879123547E+02 -0.98577469014E+02  0.11717520248E+03  0.00000000000E+00 0.  1.
         14    1    3    3    0    0 -0.12841292613E+02  0.58614304046E+02 -0.32091913179E+02  0.68047235992E+02  0.00000000000E+00 0. -1.
        -11    1    4    4    0    0 -0.43950331137E+02 -0.17283363149E+02 -0.14331222950E+03  0.15089314555E+03  0.00000000000E+00 0. -1.
         11    1    4    4    0    0  0.35686084258E+02  0.17020053346E+02 -0.23288186384E+03  0.23621418528E+03  0.00000000000E+00 0.  1.
         21    1    1    2  503  502  0.13260327909E+02 -0.69895242327E+02 -0.18144540455E+02  0.73419381259E+02  0.00000000000E+00 0. -1.
         -4    1    1    2    0  503 -0.42925672578E+02 -0.26334875464E+02 -0.38593261792E+03  0.38920447660E+03  0.00000000000E+00 0.  1.
<scales pt_clust_5="13000.00000" pt_clust_6="13000.00000" pt_clust_7="13000.00000" pt_clust_8="13000.00000" pt_clust_9="71.14198" pt_clust_10="13000.00000"></scales>
<clustering>
<clus scale="   71.142">  1  9  2 -1</clus>
<clus scale="   80.518">  5  6 -1 -1</clus>
<clus scale="   90.894">  7  8 -1 -1</clus>
<clus scale="   51.659">  7 10 -1 -1</clus>
<clus scale="  102.537">  2  5  1 -1</clus>
<clus scale="   71.142">  1  5  2 -1</clus>
</clustering>
</event>
<event>
10    4  0.2759992E-005  0.7257574E+03  0.7546771E-02  0.1029377E+00
         21   -1    0    0  503  502  0.00000000000E+00  0.00000000000E+00  0.10347074534E+03  0.10347074534E+03  0.00000000000E+00 0. -1.
          2   -1    0    0  502    0 -0.00000000000E+00 -0.00000000000E+00 -0.18820977406E+04  0.18820977406E+04  0.00000000000E+00 0. -1.
         24    2    1    2    0    0  0.55593484841E+02  0.14562430169E+01 -0.31341573743E+03  0.32994147815E+03  0.86828557164E+02 0.  0.
         23    2    1    2    0    0  0.80777618414E+02  0.26784054844E+03 -0.23328802180E+03  0.37486720434E+03  0.88535511200E+02 0.  0.
        -11    1    3    3    0    0  0.52150378220E+02 -0.26519579390E+02 -0.28081514076E+03  0.28684506849E+03  0.00000000000E+00 0.  1.
         12    1    3    3    0    0  0.34431066209E+01  0.27975822407E+02 -0.32600596667E+02  0.43096409660E+02  0.00000000000E+00 0. -1.
        -13    1    4    4    0    0  0.96085162801E+02  0.24563531896E+03 -0.19491731654E+03  0.32796620058E+03  0.00000000000E+00 0. -1.
         13    1    4    4    0    0 -0.15307544387E+02  0.22205229479E+02 -0.38370705263E+02  0.46901003761E+02  0.00000000000E+00 0.  1.
         21    1    1    2  503  501 -0.21087769617E+02 -0.24343245960E+02 -0.17757524801E+02  0.36777946359E+02  0.00000000000E+00 0. -1.
          1    1    1    2  501    0 -0.11528333364E+03 -0.24495354550E+03 -0.12141657112E+04  0.12439818571E+04  0.00000000000E+00 0. -1.
<scales pt_clust_5="13000.00000" pt_clust_6="13000.00000" pt_clust_7="13000.00000" pt_clust_8="13000.00000" pt_clust_9="32.20695" pt_clust_10="13000.00000"></scales>
<clustering>
<clus scale="   32.207">  1  9  2 -1</clus>
<clus scale="   86.829">  5  6 -1 -1</clus>
<clus scale="   88.536">  7  8 -1 -1</clus>
<clus scale="  102.115">  2  5  1 -1</clus>
<clus scale="  260.323">  7 10 -1 -1</clus>
<clus scale="   32.207">  1  5  2 -1</clus>
</clustering>
</event>
<event>
10    4  0.2759992E-005  0.7080309E+03  0.7546771E-02  0.1014808E+00
          2   -1    0    0  502    0 -0.00000000000E+00  0.00000000000E+00  0.46934379119E+03  0.46934379119E+03  0.00000000000E+00 0. -1.
         21   -1    0    0  503  502  0.00000000000E+00 -0.00000000000E+00 -0.54095249871E+03  0.54095249871E+03  0.00000000000E+00 0. -1.
         24    2    1    2    0    0 -0.14616787851E+03 -0.55535334024E+02  0.67116876677E+02  0.18792737400E+03  0.79767165758E+02 0.  0.
         23    2    1    2    0    0 -0.23444842470E+03  0.22080743728E+03 -0.10806828803E+03  0.35178669809E+03  0.91395502460E+02 0.  0.
        -11    1    3    3    0    0 -0.38958459636E+02  0.10221387971E+02  0.44712673527E+02  0.60178580269E+02  0.00000000000E+00 0.  1.
         12    1    3    3    0    0 -0.10720941887E+03 -0.65756721995E+02  0.22404203150E+02  0.12774879374E+03  0.00000000000E+00 0. -1.
        -11    1    4    4    0    0 -0.78610492545E+02  0.31145896154E+02 -0.54313559150E+02  0.10049696062E+03  0.00000000000E+00 0.  1.
         11    1    4    4    0    0 -0.15583793216E+03  0.18966154113E+03 -0.53754728879E+02  0.25128973747E+03  0.00000000000E+00 0. -1.
         21    1    1    2  503  501  0.58135572181E+02 -0.36979252570E+02 -0.95251906362E+02  0.11755907255E+03  0.00000000000E+00 0.  1.
          1    1    1    2  501    0  0.32248073102E+03 -0.12829285069E+03  0.64594610188E+02  0.35302314526E+03  0.00000000000E+00 0. -1.
<scales pt_clust_5="13000.00000" pt_clust_6="13000.00000" pt_clust_7="13000.00000" pt_clust_8="13000.00000" pt_clust_9="68.90000" pt_clust_10="13000.00000"></scales>
<clustering>
<clus scale="   68.900">  2  9  1 -1</clus>
<clus scale="   79.767">  5  6 -1 -1</clus>
<clus scale="   91.396">  7  8 -1 -1</clus>
<clus scale="  170.623">  1  5  2 -1</clus>
<clus scale="  306.463">  7 10 -1 -1</clus>
<clus scale="   68.900">  2  5  1 -1</clus>
</clustering>
</event>
<event>
10    4  0.2759992E-005  0.2109758E+03  0.7546771E-02  0.1172281E+00
         -1   -1    0    0    0  501 -0.00000000000E+00  0.00000000000E+00  0.22604224312E+03  0.22604224312E+03  0.00000000000E+00 0.  1.
         21   -1    0    0  501  502  0.00000000000E+00 -0.00000000000E+00 -0.21264230889E+03  0.21264230889E+03  0.00000000000E+00 0.  1.
         24    2    1    2    0    0  0.40120306685E+02  0.77322428924E+02 -0.37143492526E+02  0.12506563606E+03  0.81690741593E+02 0.  0.
         23    2    1    2    0    0  0.49717505998E+02  0.23115088336E+02  0.99545269114E+01  0.10836794584E+03  0.92942893051E+02 0.  0.
        -13    1    3    3    0    0  0.46413895156E+02  0.19464319340E+02 -0.43495755254E+02  0.66520599185E+02  0.00000000000E+00 0.  1.
         14    1    3    3    0    0 -0.62935884705E+01  0.57858109585E+02  0.63522627272E+01  0.58545036872E+02  0.00000000000E+00 0. -1.
        -13    1    4    4    0    0  0.19356479376E+01  0.50209991437E+02 -0.73393417477E+01  0.50780467803E+02  0.00000000000E+00 0. -1.
         13    1    4    4    0    0  0.47781858060E+02 -0.27094903101E+02  0.17293868659E+02  0.57587478039E+02  0.00000000000E+00 0.  1.
         21    1    1    2  503  502 -0.46527158167E+02 -0.35127775116E+02 -0.56022063352E+02  0.80853006214E+02  0.00000000000E+00 0.  1.
         -2    1    1    2    0  503 -0.43310654516E+02 -0.65309742144E+02  0.96610963189E+02  0.12439796390E+03  0.00000000000E+00 0.  1.
<scales pt_clust_5="13000.00000" pt_clust_6="13000.00000" pt_clust_7="13000.00000" pt_clust_8="13000.00000" pt_clust_9="58.29869" pt_clust_10="13000.00000"></scales>
<clustering>
<clus scale="   58.299">  2  9  1 -1</clus>
<clus scale="   81.691">  5  6 -1 -1</clus>
<clus scale="   92.943">  7  8 -1 -1</clus>
<clus scale="   83.685">  7 10 -1 -1</clus>
<clus scale="  100.905">  1  5  2 -1</clus>
<clus scale="   58.299">  2  5  1 -1</clus>
</clustering>
</event>
<event>
10    4  0.2759992E-005  0.3444768E+03  0.7546771E-02  0.1095447E+00
         21   -1    0    0  501  502  0.00000000000E+00  0.00000000000E+00  0.63021942278E+02  0.63021942278E+02  0.00000000000E+00 0. -1.
          2   -1    0    0  503    0 -0.00000000000E+00 -0.00000000000E+00 -0.13356805567E+04  0.13356805567E+04  0.00000000000E+00 0. -1.
         24    2    1    2    0    0 -0.11519926849E+03 -0.34924207360E+02 -0.18979613472E+03  0.23838264170E+03  0.79455266594E+02 0.  0.
         23    2    1    2    0    0 -0.25902115996E+02 -0.26336777158E+02 -0.91225073022E+02  0.13516547783E+03  0.92645275132E+02 0.  0.
        -11    1    3    3    0    0 -0.12476485774E+03 -0.36256496189E+02 -0.18804928104E+03  0.22856801033E+03  0.00000000000E+00 0.  1.
         12    1    3    3    0    0  0.95655892508E+01  0.13322888290E+01 -0.17468536726E+01  0.98146313732E+01  0.00000000000E+00 0. -1.
        -11    1    4    4    0    0  0.11431865883E+02 -0.51459466488E+02 -0.35562087056E+02  0.63587941345E+02  0.00000000000E+00 0.  1.
         11    1    4    4    0    0 -0.37333981879E+02  0.25122689330E+02 -0.55662985967E+02  0.71577536482E+02  0.00000000000E+00 0. -1.
         21    1    1    2  503  502  0.61460483554E+01 -0.63980789820E+02 -0.14310392914E+03  0.15687590609E+03  0.00000000000E+00 0.  1.
          1    1    1    2  501    0  0.13495533613E+03  0.12524177434E+03 -0.84853347754E+03  0.86827847336E+03  0.00000000000E+00 0. -1.
<scales pt_clust_5="13000.00000" pt_clust_6="13000.00000" pt_clust_7="13000.00000" pt_clust_8="13000.00000" pt_clust_9="64.27534" pt_clust_10="13000.00000"></scales>
<clustering>
<clus scale="   64.275">  1  9  2 -1</clus>
<clus scale="   79.455">  5  6 -1 -1</clus>
<clus scale="   92.645">  7  8 -1 -1</clus>
<clus scale="  151.323">  2  5  1 -1</clus>
<clus scale="   79.671">  7 10 -1 -1</clus>
<clus scale="   64.275">  1  5  2 -1</clus>
</clustering>
</event>
<event>
10    4  0.2759992E-005  0.2835196E+03  0.7546771E-02  0.1119065E+00
          2   -1    0    0  502    0 -0.00000000000E+00  0.00000000000E+00  0.15762565579E+04  0.15762565579E+04  0.00000000000E+00 0. -1.
         21   -1    0    0  503  502  0.00000000000E+00 -0.00000000000E+00 -0.78182576508E+02  0.78182576508E+02  0.00000000000E+00 0. -1.
         24    2    1    2    0    0 -0.69253856760E+02 -0.78471338066E+02  0.44507276225E+03  0.46475088598E+03  0.83365309000E+02 0.  0.
         23    2    1    2    0    0  0.65818668161E+02 -0.40590887165E+02  0.29278038544E+03  0.31620005406E+03  0.91007707869E+02 0.  0.
        -11    1    3    3    0    0 -0.13956251581E+02  0.17100859585E+02  0.52646588928E+02  0.57086598099E+02  0.00000000000E+00 0.  1.
         12    1    3    3    0    0 -0.55297605179E+02 -0.95572197651E+02  0.39242617332E+03  0.40766428788E+03  0.00000000000E+00 0. -1.
        -13    1    4    4    0    0  0.21203284979E+02 -0.38536032017E+02  0.25171130128E+03  0.25552531038E+03  0.00000000000E+00 0.  1.
         13    1    4    4    0    0  0.44615383182E+02 -0.20548551481E+01  0.41069084160E+02  0.60674743674E+02  0.00000000000E+00 0. -1.
         21    1    1    2  503  501 -0.31776254812E+02 -0.45875073859E+02 -0.31446334568E+02  0.64055637763E+02  0.00000000000E+00 0. -1.
          1    1    1    2  501    0  0.35211443411E+02  0.16493729909E+03  0.79166716826E+03  0.80943255660E+03  0.00000000000E+00 0. -1.
<scales pt_clust_5="13000.00000" pt_clust_6="13000.00000" pt_clust_7="13000.00000" pt_clust_8="13000.00000" pt_clust_9="55.80549" pt_clust_10="13000.00000"></scales>
<clustering>
<clus scale="   55.805">  2  9  1 -1</clus>
<clus scale="   83.365">  5  6 -1 -1</clus>
<clus scale="   91.008">  7  8 -1 -1</clus>
<clus scale="  148.256">  1  5  2 -1</clus>
<clus scale="   93.107">  7 10 -1 -1</clus>
<clus scale="   55.805">  2  5  1 -1</clus>
</clustering>
</event>
<event>
10    4  0.2759992E-005  0.1334005E+03  0.7546771E-02  0.1228773E+00
          2   -1    0    0  503    0 -0.00000000000E+00  0.00000000000E+00  0.13652897713E+03  0.13652897713E+03  0.00000000000E+00 0. -1.
         21   -1    0    0  501  502  0.00000000000E+00 -0.00000000000E+00 -0.26030890972E+03  0.26030890972E+03  0.00000000000E+00 0.  1.
         24    2    1    2    0    0 -0.28607969975E+02  0.52891906491E+02  0.38107531820E+02  0.11714270241E+03  0.93028270045E+02 0.  0.
         23    2    1    2    0    0  0.34107773620E+01 -0.75636369007E+02 -0.59048598581E+02  0.13320109978E+03  0.92321732378E+02 0.  0.
        -11    1    3    3    0    0  0.33515710943E+02  0.28338333865E+02  0.12927886424E+02  0.45754718812E+02  0.00000000000E+00 0.  1.
         12    1    3    3    0    0 -0.62123680918E+02  0.24553572626E+02  0.25179645396E+02  0.71387983595E+02  0.00000000000E+00 0. -1.
        -13    1    4    4    0    0  0.67497956303E+01 -0.24609454132E+02 -0.75330642450E+02  0.79535467973E+02  0.00000000000E+00 0.  1.
         13    1    4    4    0    0 -0.33390182683E+01 -0.51026914875E+02  0.16282043869E+02  0.53665631807E+02  0.00000000000E+00 0. -1.
         21    1    1    2  503  502  0.14929459602E+02  0.61927753385E+02 -0.66283902112E+02  0.91931991617E+02  0.00000000000E+00 0. -1.
          1    1    1    2  501    0  0.10267733011E+02 -0.39183290869E+02 -0.36554963719E+02  0.54562093041E+02  0.00000000000E+00 0. -1.
<scales pt_clust_5="13000.00000" pt_clust_6="13000.00000" pt_clust_7="13000.00000" pt_clust_8="13000.00000" pt_clust_9="63.70193" pt_clust_10="13000.00000"></scales>
<clustering>
<clus scale="   63.702">  2  9  1 -1</clus>
<clus scale="   92.322">  7  8 -1 -1</clus>
<clus scale="   27.462">  7 10 -1 -1</clus>
<clus scale="   93.028">  5  6 -1 -1</clus>
<clus scale="  117.071">  1  5  2 -1</clus>
<clus scale="   63.702">  2  5  1 -1</clus>
</clustering>
</event>
<event>
10    4  0.2759992E-005  0.2078856E+03  0.7546771E-02  0.1163714E+00
         21   -1    0    0  503  502  0.00000000000E+00  0.00000000000E+00  0.52643199462E+02  0.52643199462E+02  0.00000000000E+00 0. -1.
          2   -1    0    0  502    0 -0.00000000000E+00 -0.00000000000E+00 -0.95174362367E+03  0.95174362367E+03  0.00000000000E+00 0. -1.
         24    2    1    2    0    0 -0.65412072832E+02  0.26469696673E+02 -0.79111192526E+02  0.13351131912E+03  0.81162229130E+02 0.  0.
         23    2    1    2    0    0  0.14309192769E+03 -0.36697661579E+02 -0.53928676151E+03  0.56655815304E+03  0.91301213071E+02 0.  0.
        -13    1    3    3    0    0 -0.60654180616E+02  0.23354458740E+02 -0.95863758150E+02  0.11581977593E+03  0.00000000000E+00 0.  1.
         14    1    3    3    0    0 -0.47578922155E+01  0.31152379332E+01  0.16752565624E+02  0.17691543197E+02  0.00000000000E+00 0. -1.
        -13    1    4    4    0    0  0.13706337787E+03 -0.80693929658E+01 -0.49332379726E+03  0.51207407042E+03  0.00000000000E+00 0. -1.
         13    1    4    4    0    0  0.60285498160E+01 -0.28628268613E+02 -0.45962964251E+02  0.54484082624E+02  0.00000000000E+00 0.  1.
         21    1    1    2  503  501 -0.48608295839E+02 -0.59865891748E+01 -0.45754485247E+02  0.67022970648E+02  0.00000000000E+00 0.  1.
          1    1    1    2  501    0 -0.29071559017E+02  0.16214554080E+02 -0.23494798493E+03  0.23729438031E+03  0.00000000000E+00 0. -1.
<scales pt_clust_5="13000.00000" pt_clust_6="13000.00000" pt_clust_7="13000.00000" pt_clust_8="13000.00000" pt_clust_9="48.97556" pt_clust_10="13000.00000"></scales>
<clustering>
<clus scale="   48.976">  1  9  2 -1</clus>
<clus scale="   81.162">  5  6 -1 -1</clus>
<clus scale="   91.301">  7  8 -1 -1</clus>
<clus scale="   34.401">  7 10 -1 -1</clus>
<clus scale="  128.392">  2  5  1 -1</clus>
<clus scale="   48.976">  1  5  2 -1</clus>
</clustering>
</event>
<event>
10    4  0.2759992E-005  0.5009184E+03  0.7546771E-02  0.1076382E+00
          2   -1    0    0  502    0 -0.00000000000E+00  0.00000000000E+00  0.16875772539E+04  0.16875772539E+04  0.00000000000E+00 0. -1.
         21   -1    0    0  503  502  0.00000000000E+00 -0.00000000000E+00 -0.79564931191E+02  0.79564931191E+02  0.00000000000E+00 0. -1.
         24    2    1    2    0    0 -0.35562598214E+01 -0.14202101293E+02  0.78469372207E+03  0.78894624159E+03  0.80483464125E+02 0.  0.
         23    2    1    2    0    0 -0.22131330475E+03 -0.16231621092E+02  0.20119902635E+03  0.31302511584E+03  0.90888011089E+02 0.  0.
        -13    1    3    3    0    0 -0.35732972349E+02 -0.10718451505E+02  0.20617635030E+03  0.20952426575E+03  0.00000000000E+00 0.  1.
         14    1    3    3    0    0  0.32176712528E+02 -0.34836497881E+01  0.57851737177E+03  0.57942197584E+03  0.00000000000E+00 0. -1.
        -11    1    4    4    0    0 -0.93261810401E+02 -0.37754470868E+02  0.13174075306E+03  0.16576728075E+03  0.00000000000E+00 0.  1.
         11    1    4    4    0    0 -0.12805149434E+03  0.21522849776E+02  0.69458273288E+02  0.14725783509E+03  0.00000000000E+00 0. -1.
         21    1    1    2  503  501  0.25899367327E+02 -0.16968785796E+01  0.29895343158E+02  0.39590253439E+02  0.00000000000E+00 0.  1.
          1    1    1    2  501    0  0.19897019724E+03  0.32130600965E+02  0.59222423112E+03  0.62558057421E+03  0.00000000000E+00 0. -1.
<scales pt_clust_5="13000.00000" pt_clust_6="13000.00000" pt_clust_7="13000.00000" pt_clust_8="13000.00000" pt_clust_9="25.95490" pt_clust_10="13000.00000"></scales>
<clustering>
<clus scale="   25.955">  2  9  1 -1</clus>
<clus scale="   80.483">  5  6 -1 -1</clus>
<clus scale="   81.784">  1  5  2 -1</clus>
<clus scale="   90.888">  7  8 -1 -1</clus>
<clus scale="  203.841">  7 10 -1 -1</clus>
<clus scale="   25.955">  2  5  1 -1</clus>
</clustering>
</event>
<event>
10    4  0.2759992E-005  0.2954267E+03  0.7546771E-02  0.1128447E+00
         21   -1    0    0  501  502  0.00000000000E+00  0.00000000000E+00  0.93792129186E+03  0.93792129186E+03  0.00000000000E+00 0. -1.
          2   -1    0    0  503    0 -0.00000000000E+00 -0.00000000000E+00 -0.75968870553E+02  0.75968870553E+02  0.00000000000E+00 0. -1.
         24    2    1    2    0    0  0.59141938701E+02 -0.23527075116E+02  0.56738483428E+02  0.11695870031E+03  0.80054918028E+02 0.  0.
         23    2    1    2    0    0  0.29744261959E+02  0.15256351778E+02  0.69472917038E+02  0.12087593358E+03  0.93096872819E+02 0.  0.
        -11    1    3    3    0    0  0.13018237232E+02 -0.46182737709E+02  0.41281724397E+02  0.63296923560E+02  0.00000000000E+00 0.  1.
         12    1    3    3    0    0  0.46123701468E+02  0.22655662592E+02  0.15456759031E+02  0.53661776754E+02  0.00000000000E+00 0. -1.
        -13    1    4    4    0    0 -0.22695062003E+02  0.20385595688E+02 -0.36752024098E+01  0.30726950119E+02  0.00000000000E+00 0.  1.
         13    1    4    4    0    0  0.52439323962E+02 -0.51292439100E+01  0.73148119447E+02  0.90148983463E+02  0.00000000000E+00 0. -1.
         21    1    1    2  503  502  0.45280649995E+02  0.71399740270E+02  0.15364582260E+03  0.17537188765E+03  0.00000000000E+00 0. -1.
          1    1    1    2  501    0 -0.13416685066E+03 -0.63129016932E+02  0.58209519824E+03  0.60068364087E+03  0.00000000000E+00 0. -1.
<scales pt_clust_5="13000.00000" pt_clust_6="13000.00000" pt_clust_7="13000.00000" pt_clust_8="13000.00000" pt_clust_9="84.54738" pt_clust_10="13000.00000"></scales>
<clustering>
<clus scale="   80.055">  5  6 -1 -1</clus>
<clus scale="   84.547">  1  9  2 -1</clus>
<clus scale="   93.097">  7  8 -1 -1</clus>
<clus scale="   99.908">  7 10 -1 -1</clus>
<clus scale="  103.800">  2  5  1 -1</clus>
<clus scale="   84.547">  1  5  2 -1</clus>
</clustering>
</event>
<event>
10    4  0.2759992E-005  0.5026023E+03  0.7546771E-02  0.1055087E+00
         21   -1    0    0  503  502  0.00000000000E+00  0.00000000000E+00  0.11681830585E+03  0.11681830585E+03  0.00000000000E+00 0. -1.
          2   -1    0    0  502    0 -0.00000000000E+00 -0.00000000000E+00 -0.16514508861E+04  0.16514508861E+04  0.00000000000E+00 0. -1.
         24    2    1    2    0    0 -0.79560329118E+01 -0.14117540407E+03 -0.33129823259E+03  0.36975664728E+03  0.83472547061E+02 0.  0.
         23    2    1    2    0    0 -0.48887296611E+02 -0.18982803518E+03 -0.75853144643E+03  0.78883943603E+03  0.92049171044E+02 0.  0.
        -13    1    3    3    0    0 -0.36955127794E+02 -0.51516794216E+02 -0.84948638347E+02  0.10599968261E+03  0.00000000000E+00 0.  1.
         14    1    3    3    0    0  0.28999094883E+02 -0.89658609850E+02 -0.24634959425E+03  0.26375696467E+03  0.00000000000E+00 0. -1.
        -13    1    4    4    0    0  0.20203880624E+02 -0.73923681378E+02 -0.19844908780E+03  0.21273210362E+03  0.00000000000E+00 0.  1.
         13    1    4    4    0    0 -0.69091177235E+02 -0.11590435380E+03 -0.56008235863E+03  0.57610733241E+03  0.00000000000E+00 0. -1.
         21    1    1    2  503  501  0.56604535767E+02  0.76704182500E+02  0.22479937789E+01  0.95355432768E+02  0.00000000000E+00 0.  1.
          1    1    1    2  501    0  0.23879375551E+00  0.25429925674E+03 -0.44705089500E+03  0.51431767588E+03  0.00000000000E+00 0. -1.
<scales pt_clust_5="13000.00000" pt_clust_6="13000.00000" pt_clust_7="13000.00000" pt_clust_8="13000.00000" pt_clust_9="95.32893" pt_clust_10="13000.00000"></scales>
<clustering>
<clus scale="   83.473">  5  6 -1 -1</clus>
<clus scale="   92.049">  7  8 -1 -1</clus>
<clus scale="   95.329">  1  9  2 -1</clus>
<clus scale="  145.981">  2  5  1 -1</clus>
<clus scale="  235.378">  7 10 -1 -1</clus>
<clus scale="   95.329">  1  5  2 -1</clus>
</clustering>
</event>
<event>
10    4  0.2759992E-005  0.3304038E+03  0.7546771E-02  0.1092534E+00
         21   -1    0    0  501  502  0.00000000000E+00  0.00000000000E+00  0.31837360208E+02  0.31837360208E+02  0.00000000000E+00 0. -1.
          2   -1    0    0  503    0 -0.00000000000E+00 -0.00000000000E+00 -0.29937135822E+04  0.29937135822E+04  0.00000000000E+00 0. -1.
         24    2    1    2    0    0 -0.10956330078E+03  0.14930870060E+03 -0.11394883317E+04  0.11572992022E+04  0.81305476615E+02 0.  0.
         23    2    1    2    0    0 -0.38536413287E+02  0.51137315488E+02 -0.45916145253E+03  0.47255059235E+03  0.91513620022E+02 0.  0.
        -13    1    3    3    0    0 -0.47363884754E+02  0.59088368714E+02 -0.25378611754E+03  0.26484366399E+03  0.00000000000E+00 0.  1.
         14    1    3    3    0    0 -0.62199416027E+02  0.90220331885E+02 -0.88570221413E+03  0.89245553825E+03  0.00000000000E+00 0. -1.
        -11    1    4    4    0    0  0.16725779335E+02  0.50556741310E+02 -0.28147607777E+03  0.28646905268E+03  0.00000000000E+00 0.  1.
         11    1    4    4    0    0 -0.55262192622E+02  0.58057417785E+00 -0.17768537476E+03  0.18608153967E+03  0.00000000000E+00 0. -1.
         21    1    1    2  503  502 -0.86513714855E+01 -0.73144141942E+02 -0.16658520098E+03  0.18214154088E+03  0.00000000000E+00 0. -1.
          1    1    1    2  501    0  0.15675108555E+03 -0.12730187415E+03 -0.11966412368E+04  0.12135596069E+04  0.00000000000E+00 0. -1.
<scales pt_clust_5="13000.00000" pt_clust_6="13000.00000" pt_clust_7="13000.00000" pt_clust_8="13000.00000" pt_clust_9="73.65400" pt_clust_10="13000.00000"></scales>
<clustering>
<clus scale="   73.654">  1  9  2 -1</clus>
<clus scale="   81.305">  5  6 -1 -1</clus>
<clus scale="   91.514">  7  8 -1 -1</clus>
<clus scale="  185.116">  2  5  1 -1</clus>
<clus scale="   94.783">  7 10 -1 -1</clus>
<clus scale="   73.654">  1  5  2 -1</clus>
</clustering>
</event>
<event>
10    4  0.2759992E-005  0.1738868E+03  0.7546771E-02  0.1179165E+00
         21   -1    0    0  501  502  0.00000000000E+00  0.00000000000E+00  0.16280590846E+03  0.16280590846E+03  0.00000000000E+00 0.  1.
          4   -1    0    0  503    0 -0.00000000000E+00 -0.00000000000E+00 -0.10657968968E+04  0.10657968968E+04  0.00000000000E+00 0. -1.
         24    2    1    2    0    0  0.12814421160E+03 -0.30809203142E+02 -0.89396357413E+03  0.90716619913E+03  0.80059321781E+02 0.  0.
         23    2    1    2    0    0 -0.36601030478E+02 -0.21849299331E+02  0.20422043110E+02  0.10250528533E+03  0.90957387620E+02 0.  0.
        -11    1    3    3    0    0  0.46849690077E+02  0.26855949559E+02 -0.27899547473E+03  0.28417355684E+03  0.00000000000E+00 0.  1.
         12    1    3    3    0    0  0.81294521524E+02 -0.57665152701E+02 -0.61496809940E+03  0.62299264229E+03  0.00000000000E+00 0. -1.
        -11    1    4    4    0    0 -0.29922841548E+02 -0.45046629592E+02  0.43276231430E+02  0.69263319951E+02  0.00000000000E+00 0.  1.
         11    1    4    4    0    0 -0.66781889298E+01  0.23197330260E+02 -0.22854188319E+02  0.33241965380E+02  0.00000000000E+00 0. -1.
         21    1    1    2  503  502 -0.12883906619E+03  0.95256742774E+02 -0.24593602624E+02  0.16210551290E+03  0.00000000000E+00 0.  1.
          3    1    1    2  501    0  0.37295885069E+02 -0.42598240302E+02 -0.48558546967E+01  0.56825807911E+02  0.00000000000E+00 0. -1.
<scales pt_clust_5="13000.00000" pt_clust_6="13000.00000" pt_clust_7="13000.00000" pt_clust_8="13000.00000" pt_clust_9="96.15884" pt_clust_10="13000.00000"></scales>
<clustering>
<clus scale="   80.059">  5  6 -1 -1</clus>
<clus scale="   90.957">  7  8 -1 -1</clus>
<clus scale="   56.618">  7 10 -1 -1</clus>
<clus scale="  154.206">  2  5  1 -1</clus>
<clus scale="   96.159">  1  9  2 -1</clus>
<clus scale="   96.159">  1  5  2 -1</clus>
</clustering>
</event>
<event>
10    4  0.2759992E-005  0.1284839E+03  0.7546771E-02  0.1250682E+00
          2   -1    0    0  502    0 -0.00000000000E+00  0.00000000000E+00  0.46515459608E+03  0.46515459608E+03  0.00000000000E+00 0. -1.
         21   -1    0    0  503  502  0.00000000000E+00 -0.00000000000E+00 -0.13259479518E+03  0.13259479518E+03  0.00000000000E+00 0.  1.
         24    2    1    2    0    0 -0.16640410082E+02 -0.87692036924E+01  0.24265748706E+03  0.25582479364E+03  0.78802708306E+02 0.  0.
         23    2    1    2    0    0  0.38130044254E+02  0.46973622117E+01  0.15655559005E+03  0.18565943711E+03  0.92107591040E+02 0.  0.
        -13    1    3    3    0    0  0.26230718370E+02  0.16401895407E+02  0.10514070761E+03  0.10959763298E+03  0.00000000000E+00 0.  1.
         14    1    3    3    0    0 -0.42871128452E+02 -0.25171099099E+02  0.13751677945E+03  0.14622716066E+03  0.00000000000E+00 0. -1.
        -11    1    4    4    0    0  0.14389704152E+02  0.42976500551E+02  0.11787292048E+03  0.12628566255E+03  0.00000000000E+00 0. -1.
         11    1    4    4    0    0  0.23740340102E+02 -0.38279138339E+02  0.38682669570E+02  0.59373774557E+02  0.00000000000E+00 0.  1.
         21    1    1    2  503  501 -0.58831149849E+02  0.18951299287E+02 -0.90451009871E+02  0.10955200192E+03  0.00000000000E+00 0.  1.
          1    1    1    2  501    0  0.37341515677E+02 -0.14879457806E+02  0.23797733665E+02  0.46713158588E+02  0.00000000000E+00 0. -1.
<scales pt_clust_5="13000.00000" pt_clust_6="13000.00000" pt_clust_7="13000.00000" pt_clust_8="13000.00000" pt_clust_9="61.80822" pt_clust_10="13000.00000"></scales>
<clustering>
<clus scale="   61.808">  2  9  1 -1</clus>
<clus scale="   78.803">  5  6 -1 -1</clus>
<clus scale="   83.952">  1  5  2 -1</clus>
<clus scale="   92.108">  7  8 -1 -1</clus>
<clus scale="   16.199">  7 10 -1 -1</clus>
<clus scale="   61.808">  2  5  1 -1</clus>
</clustering>
</event>
<event>
10    4  0.2759992E-005  0.2782777E+03  0.7546771E-02  0.1135510E+00
         21   -1    0    0  501  502  0.00000000000E+00  0.00000000000E+00  0.14175574564E+03  0.14175574564E+03  0.00000000000E+00 0. -1.
          2   -1    0    0  503    0 -0.00000000000E+00 -0.00000000000E+00 -0.10712289122E+04  0.10712289122E+04  0.00000000000E+00 0. -1.
         24    2    1    2    0    0  0.68332687234E+02  0.82063167607E+01 -0.52557622425E+03  0.53586135916E+03  0.78615068278E+02 0.  0.
         23    2    1    2    0    0 -0.16595767386E+03  0.80190114731E+02 -0.42027708768E+03  0.46731895363E+03  0.88214341110E+02 0.  0.
        -11    1    3    3    0    0  0.55190125198E+02 -0.20315487906E+02 -0.19187104654E+03  0.20068175669E+03  0.00000000000E+00 0.  1.
         12    1    3    3    0    0  0.13142562036E+02  0.28521804667E+02 -0.33370517771E+03  0.33517960246E+03  0.00000000000E+00 0. -1.
        -11    1    4    4    0    0 -0.14754033533E+02 -0.18309156965E+02 -0.58003087918E+02  0.62588057505E+02  0.00000000000E+00 0.  1.
         11    1    4    4    0    0 -0.15120364033E+03  0.98499271695E+02 -0.36227399976E+03  0.40473089613E+03  0.00000000000E+00 0. -1.
         21    1    1    2  503  502  0.79986966748E+02 -0.13602937805E+03  0.19000348604E+02  0.15894313382E+03  0.00000000000E+00 0. -1.
          1    1    1    2  501    0  0.17638019883E+02  0.47632946554E+02 -0.26202032292E+01  0.50861211230E+02  0.00000000000E+00 0. -1.
<scales pt_clust_5="13000.00000" pt_clust_6="13000.00000" pt_clust_7="13000.00000" pt_clust_8="13000.00000" pt_clust_9="161.57781" pt_clust_10="13000.00000"></scales>
<clustering>
<clus scale="   78.615">  5  6 -1 -1</clus>
<clus scale="   88.214">  7  8 -1 -1</clus>
<clus scale="   50.794">  7 10 -1 -1</clus>
<clus scale="  104.485">  2  5  1 -1</clus>
<clus scale="  161.578">  1  9  2 -1</clus>
<clus scale="  161.578">  1  5  2 -1</clus>
</clustering>
</event>
<event>
10    4  0.2759992E-005  0.1355408E+03  0.7546771E-02  0.1235779E+00
          2   -1    0    0  502    0 -0.00000000000E+00  0.00000000000E+00  0.73506410582E+03  0.73506410582E+03  0.00000000000E+00 0. -1.
         21   -1    0    0  503  502  0.00000000000E+00 -0.00000000000E+00 -0.54720503023E+02  0.54720503023E+02  0.00000000000E+00 0. -1.
         24    2    1    2    0    0 -0.31426873372E+02 -0.31905545092E+02  0.13635509312E+03  0.16484355537E+03  0.81086830937E+02 0.  0.
         23    2    1    2    0    0  0.27026395031E+02 -0.63905813473E+01  0.43473166740E+03  0.44509808831E+03  0.91375160835E+02 0.  0.
        -11    1    3    3    0    0  0.19647813616E+02  0.38430826841E+01  0.69290429021E+01  0.21185313308E+02  0.00000000000E+00 0.  1.
         12    1    3    3    0    0 -0.51074686988E+02 -0.35748627776E+02  0.12942605022E+03  0.14365824206E+03  0.00000000000E+00 0. -1.
        -11    1    4    4    0    0 -0.30484962373E+02  0.12776289280E+02  0.11434252948E+03  0.11902428553E+03  0.00000000000E+00 0.  1.
         11    1    4    4    0    0  0.57511357404E+02 -0.19166870627E+02  0.32038913792E+03  0.32607380277E+03  0.00000000000E+00 0. -1.
         21    1    1    2  503  501 -0.20070961774E+02  0.54148094537E+01 -0.28975655223E+02  0.35661635739E+02  0.00000000000E+00 0. -1.
          1    1    1    2  501    0  0.24471440114E+02  0.32881316986E+02  0.13823249751E+03  0.14418132942E+03  0.00000000000E+00 0. -1.
<scales pt_clust_5="13000.00000" pt_clust_6="13000.00000" pt_clust_7="13000.00000" pt_clust_8="13000.00000" pt_clust_9="20.78855" pt_clust_10="13000.00000"></scales>
<clustering>
<clus scale="   20.789">  2  9  1 -1</clus>
<clus scale="   81.087">  5  6 -1 -1</clus>
<clus scale="   91.375">  7  8 -1 -1</clus>
<clus scale="   40.056">  7 10 -1 -1</clus>
<clus scale="   96.633">  1  5  2 -1</clus>
<clus scale="   20.789">  2  5  1 -1</clus>
</clustering>
</event>
<event>
10    4  0.2759992E-005  0.2573103E+03  0.7546771E-02  0.1144672E+00
          2   -1    0    0  503    0 -0.00000000000E+00  0.00000000000E+00  0.30913103547E+03  0.30913103547E+03  0.00000000000E+00 0. -1.
         21   -1    0    0  501  502  0.00000000000E+00 -0.00000000000E+00 -0.42104714319E+03  0.42104714319E+03  0.00000000000E+00 0.  1.
         24    2    1    2    0    0 -0.62550056260E+02 -0.27420557334E+02 -0.26370144691E+02  0.10919307318E+03  0.81014481400E+02 0.  0.
         23    2    1    2    0    0 -0.29924952406E+02  0.49287137106E+01  0.67573058206E+02  0.11790351755E+03  0.91735087401E+02 0.  0.
        -13    1    3    3    0    0 -0.36637468610E+02  0.23554497857E+02 -0.28360327028E+02  0.51975250115E+02  0.00000000000E+00 0.  1.
         14    1    3    3    0    0 -0.25912587650E+02 -0.50975055190E+02  0.19901823366E+01  0.57217823063E+02  0.00000000000E+00 0. -1.
        -13    1    4    4    0    0 -0.14158828349E+02  0.38147836639E+02  0.70091651976E+02  0.81046712068E+02  0.00000000000E+00 0.  1.
         13    1    4    4    0    0 -0.15766124057E+02 -0.33219122928E+02 -0.25185937692E+01  0.36856805484E+02  0.00000000000E+00 0. -1.
         21    1    1    2  503  502 -0.63528953645E+02  0.99519208636E+02 -0.26918264943E+03  0.29393757772E+03  0.00000000000E+00 0.  1.
          1    1    1    2  501    0  0.15600396231E+03 -0.77027365013E+02  0.11606362819E+03  0.20914401021E+03  0.00000000000E+00 0. -1.
<scales pt_clust_5="13000.00000" pt_clust_6="13000.00000" pt_clust_7="13000.00000" pt_clust_8="13000.00000" pt_clust_9="118.59628" pt_clust_10="13000.00000"></scales>
<clustering>
<clus scale="   81.014">  5  6 -1 -1</clus>
<clus scale="   91.735">  7  8 -1 -1</clus>
<clus scale="  105.961">  1  5  2 -1</clus>
<clus scale="  118.596">  2  9  1 -1</clus>
<clus scale="   94.728">  7 10 -1 -1</clus>
<clus scale="  118.596">  2  5  1 -1</clus>
</clustering>
</event>
<event>
10    4  0.2759992E-005  0.6061221E+03  0.7546771E-02  0.1047226E+00
         21   -1    0    0  501  502  0.00000000000E+00  0.00000000000E+00  0.74448078593E+03  0.74448078593E+03  0.00000000000E+00 0.  1.
          2   -1    0    0  503    0 -0.00000000000E+00 -0.00000000000E+00 -0.68790386026E+03  0.68790386026E+03  0.00000000000E+00 0. -1.
         24    2    1    2    0    0 -0.53449892007E+02  0.40433374998E+02 -0.21739537038E+03  0.24103770301E+03  0.79666043195E+02 0.  0.
         23    2    1    2    0    0 -0.48704187562E+02 -0.82804175478E+02  0.78974274585E+02  0.15493172366E+03  0.92402779110E+02 0.  0.
        -11    1    3    3    0    0  0.79598297393E+01  0.41930157093E+02 -0.89589356862E+02  0.99235829348E+02  0.00000000000E+00 0.  1.
         12    1    3    3    0    0 -0.61409721747E+02 -0.14967820947E+01 -0.12780601352E+03  0.14180187366E+03  0.00000000000E+00 0. -1.
        -13    1    4    4    0    0 -0.42509604916E+02  0.49129007971E+01  0.12142374081E+02  0.44481910399E+02  0.00000000000E+00 0.  1.
         13    1    4    4    0    0 -0.61945826460E+01 -0.87717076275E+02  0.66831900504E+02  0.11044981326E+03  0.00000000000E+00 0. -1.
         21    1    1    2  503  502  0.46482228795E+03  0.31069889186E+03  0.17087540604E+03  0.58462976761E+03  0.00000000000E+00 0.  1.
          1    1    1    2  501    0 -0.36266820838E+03 -0.26832809138E+03  0.24122615422E+02  0.45178545192E+03  0.00000000000E+00 0. -1.
<scales pt_clust_5="13000.00000" pt_clust_6="13000.00000" pt_clust_7="13000.00000" pt_clust_8="13000.00000" pt_clust_9="549.93484" pt_clust_10="13000.00000"></scales>
<clustering>
<clus scale="   79.666">  5  6 -1 -1</clus>
<clus scale="   92.403">  7  8 -1 -1</clus>
<clus scale="  104.108">  2  5  1 -1</clus>
<clus scale="  460.936">  7 10 -1 -1</clus>
<clus scale="  549.935">  1  9  2 -1</clus>
<clus scale="  549.935">  1  5  2 -1</clus>
</clustering>
</event>
<event>
10    4  0.2759992E-005  0.4481126E+03  0.7546771E-02  0.1035355E+00
         21   -1    0    0  501  502  0.00000000000E+00  0.00000000000E+00  0.33326548725E+03  0.33326548725E+03  0.00000000000E+00 0. -1.
          2   -1    0    0  503    0 -0.00000000000E+00 -0.00000000000E+00 -0.63882193547E+03  0.63882193547E+03  0.00000000000E+00 0. -1.
         24    2    1    2    0    0 -0.57790496585E+02  0.33909859300E+03 -0.26064465609E+03  0.43867649587E+03  0.78573748906E+02 0.  0.
         23    2    1    2    0    0  0.89621286517E+02 -0.63991101944E+02 -0.50274445504E+02  0.15109173824E+03  0.90412152779E+02 0.  0.
        -13    1    3    3    0    0 -0.34424140300E+02  0.44563965649E+02 -0.29677005437E+02  0.63652911336E+02  0.00000000000E+00 0.  1.
         14    1    3    3    0    0 -0.23366356285E+02  0.29453462735E+03 -0.23096765065E+03  0.37502358454E+03  0.00000000000E+00 0. -1.
        -13    1    4    4    0    0  0.36676134849E+02  0.18993994450E+02 -0.28766411741E+02  0.50333062067E+02  0.00000000000E+00 0.  1.
         13    1    4    4    0    0  0.52945151668E+02 -0.82985096394E+02 -0.21508033762E+02  0.10075867618E+03  0.00000000000E+00 0. -1.
         21    1    1    2  503  502  0.32223064450E+02  0.41294524288E+02  0.26704988776E+02  0.58793877609E+02  0.00000000000E+00 0. -1.
          1    1    1    2  501    0 -0.64053854382E+02 -0.31640201534E+03 -0.21342335409E+02  0.32352531100E+03  0.00000000000E+00 0. -1.
<scales pt_clust_5="13000.00000" pt_clust_6="13000.00000" pt_clust_7="13000.00000" pt_clust_8="13000.00000" pt_clust_9="52.37904" pt_clust_10="13000.00000"></scales>
<clustering>
<clus scale="   52.379">  1  9  2 -1</clus>
<clus scale="   78.574">  5  6 -1 -1</clus>
<clus scale="   90.412">  7  8 -1 -1</clus>
<clus scale="  298.694">  7 10 -1 -1</clus>
<clus scale="  363.592">  2  5  1 -1</clus>
<clus scale="   52.379">  1  5  2 -1</clus>
</clustering>
</event>
<event>
10    4  0.2759992E-005  0.1626844E+03  0.7546771E-02  0.1208323E+00
         21   -1    0    0  501  502  0.00000000000E+00  0.00000000000E+00  0.12094268677E+03  0.12094268677E+03  0.00000000000E+00 0.  1.
          2   -1    0    0  503    0 -0.00000000000E+00 -0.00000000000E+00 -0.52561241287E+03  0.52561241287E+03  0.00000000000E+00 0. -1.
         24    2    1    2    0    0 -0.40103758270E+02  0.76209972261E+02 -0.46379217022E+02  0.12595655033E+03  0.79358361254E+02 0.  0.
         23    2    1    2    0    0 -0.16359174322E+02  0.10665109245E+02 -0.23506288033E+03  0.25287439248E+03  0.91156642787E+02 0.  0.
        -11    1    3    3    0    0 -0.54828004001E+02  0.76947311662E+02 -0.21282696685E+02  0.96850152158E+02  0.00000000000E+00 0.  1.
         12    1    3    3    0    0  0.14724245731E+02 -0.73733940089E+00 -0.25096520337E+02  0.29106398176E+02  0.00000000000E+00 0. -1.
        -13    1    4    4    0    0  0.30493704359E+02  0.16244335724E+02 -0.43317561806E+02  0.55408984917E+02  0.00000000000E+00 0.  1.
         13    1    4    4    0    0 -0.46852878682E+02 -0.55792264789E+01 -0.19174531853E+03  0.19746540757E+03  0.00000000000E+00 0. -1.
         21    1    1    2  503  502  0.27562642145E+02 -0.27380956583E+02  0.60810219647E+02  0.72161616105E+02  0.00000000000E+00 0.  1.
          1    1    1    2  501    0  0.28900290447E+02 -0.59494124923E+02 -0.18403784839E+03  0.19556254071E+03  0.00000000000E+00 0. -1.
<scales pt_clust_5="13000.00000" pt_clust_6="13000.00000" pt_clust_7="13000.00000" pt_clust_8="13000.00000" pt_clust_9="38.85120" pt_clust_10="13000.00000"></scales>
<clustering>
<clus scale="   38.851">  1  9  2 -1</clus>
<clus scale="   79.358">  5  6 -1 -1</clus>
<clus scale="   91.157">  7  8 -1 -1</clus>
<clus scale="   70.036">  7 10 -1 -1</clus>
<clus scale="   99.274">  2  5  1 -1</clus>
<clus scale="   38.851">  1  5  2 -1</clus>
</clustering>
</event>
<event>
10    4  0.3567928E-005  0.8309695E+03  0.7546771E-02  0.9792330E-01
          2   -1    0    0  502    0 -0.00000000000E+00  0.00000000000E+00  0.12117810498E+04  0.12117810498E+04  0.00000000000E+00 0. -1.
         21   -1    0    0  503  502  0.00000000000E+00 -0.00000000000E+00 -0.33311738583E+03  0.33311738583E+03  0.00000000000E+00 0. -1.
         24    2    1    2    0    0  0.26284153869E+03  0.15063752822E+03  0.83452441194E+02  0.33017152170E+03  0.10134882549E+03 0.  0.
         23    2    1    2    0    0  0.18632803378E+03  0.86350192496E+02  0.38140315997E+02  0.22712550957E+03  0.89201017253E+02 0.  0.
        -13    1    3    3    0    0  0.59869246529E+02 -0.73976327455E+01  0.30259895171E+02  0.67488613158E+02  0.00000000000E+00 0.  1.
         14    1    3    3    0    0  0.20297229216E+03  0.15803516096E+03  0.53192546024E+02  0.26268290854E+03  0.00000000000E+00 0. -1.
        -13    1    4    4    0    0  0.92887762960E+01  0.28223984614E+02 -0.15102262158E+02  0.33330961505E+02  0.00000000000E+00 0.  1.
         13    1    4    4    0    0  0.17703925748E+03  0.58126207882E+02  0.53242578155E+02  0.19379454807E+03  0.00000000000E+00 0. -1.
         21    1    1    2  503  501  0.21233904329E+02 -0.27277469748E+01 -0.32633293642E+02  0.39028850233E+02  0.00000000000E+00 0. -1.
          1    1    1    2  501    0 -0.47040347680E+03 -0.23425997374E+03  0.78970420044E+03  0.94857255414E+03  0.00000000000E+00 0. -1.
<scales pt_clust_5="13000.00000" pt_clust_6="13000.00000" pt_clust_7="13000.00000" pt_clust_8="13000.00000" pt_clust_9="21.40839" pt_clust_10="13000.00000"></scales>
<clustering>
<clus scale="   21.408">  2  9  1 -1</clus>
<clus scale="   89.201">  7  8 -1 -1</clus>
<clus scale="  101.349">  5  6 -1 -1</clus>
<clus scale="  326.219">  1  5  2 -1</clus>
<clus scale="  254.861">  7 10 -1 -1</clus>
<clus scale="   21.408">  2  5  1 -1</clus>
</clustering>
</event>
<event>
10    4  0.2759992E-005  0.4609199E+03  0.7546771E-02  0.1076545E+00
         21   -1    0    0  501  502  0.00000000000E+00  0.00000000000E+00  0.56141622111E+03  0.56141622111E+03  0.00000000000E+00 0. -1.
          2   -1    0    0  503    0 -0.00000000000E+00 -0.00000000000E+00 -0.51787732069E+03  0.51787732069E+03  0.00000000000E+00 0. -1.
         24    2    1    2    0    0 -0.64601367987E+00  0.65068251319E+02 -0.38208063750E+03  0.39602664075E+03  0.81346124504E+02 0.  0.
         23    2    1    2    0    0  0.13555255433E+03  0.80781610455E+02  0.24972204900E+03  0.30885592182E+03  0.90170478058E+02 0.  0.
        -13    1    3    3    0    0 -0.27344716611E+02  0.51300191663E+01 -0.47294008583E+02  0.54870519142E+02  0.00000000000E+00 0.  1.
         14    1    3    3    0    0  0.26698702931E+02  0.59938232153E+02 -0.33478662892E+03  0.34115612161E+03  0.00000000000E+00 0. -1.
        -11    1    4    4    0    0  0.35723903483E+02  0.15149902311E+02  0.85795449982E+01  0.39740727377E+02  0.00000000000E+00 0.  1.
         11    1    4    4    0    0  0.99828650852E+02  0.65631708144E+02  0.24114250400E+03  0.26911519444E+03  0.00000000000E+00 0. -1.
         21    1    1    2  503  502  0.38470563213E+02  0.35797873512E+02  0.98506958437E+02  0.11164718018E+03  0.00000000000E+00 0. -1.
          1    1    1    2  501    0 -0.17337710387E+03 -0.18164773529E+03  0.77390530486E+02  0.26276379905E+03  0.00000000000E+00 0. -1.
<scales pt_clust_5="13000.00000" pt_clust_6="13000.00000" pt_clust_7="13000.00000" pt_clust_8="13000.00000" pt_clust_9="52.54971" pt_clust_10="13000.00000"></scales>
<clustering>
<clus scale="   52.550">  1  9  2 -1</clus>
<clus scale="   81.346">  5  6 -1 -1</clus>
<clus scale="   90.170">  7  8 -1 -1</clus>
<clus scale="  104.511">  2  5  1 -1</clus>
<clus scale="  202.960">  7 10 -1 -1</clus>
<clus scale="   52.550">  1  5  2 -1</clus>
</clustering>
</event>
<event>
10    4  0.2759992E-005  0.3137521E+03  0.7546771E-02  0.1115299E+00
         21   -1    0    0  501  502  0.00000000000E+00  0.00000000000E+00  0.42782492837E+03  0.42782492837E+03  0.00000000000E+00 0.  1.
          2   -1    0    0  503    0 -0.00000000000E+00 -0.00000000000E+00 -0.39711045423E+03  0.39711045423E+03  0.00000000000E+00 0. -1.
         24    2    1    2    0    0 -0.80637082315E+02  0.38304062224E+02 -0.15533690137E+03  0.19616936992E+03  0.79895735450E+02 0.  0.
         23    2    1    2    0    0 -0.73243805420E+02  0.47815080391E+02 -0.70336269121E+02  0.14448383559E+03  0.90980498172E+02 0.  0.
        -11    1    3    3    0    0 -0.67198344654E+02  0.74568038710E+01 -0.46008205791E+02  0.81780049208E+02  0.00000000000E+00 0.  1.
         12    1    3    3    0    0 -0.13438737661E+02  0.30847258353E+02 -0.10932869557E+03  0.11438932072E+03  0.00000000000E+00 0. -1.
        -11    1    4    4    0    0 -0.49880787339E+02 -0.17804870387E+02 -0.47605832654E+02  0.71213914776E+02  0.00000000000E+00 0. -1.
         11    1    4    4    0    0 -0.23363018081E+02  0.65619950778E+02 -0.22730436466E+02  0.73269920813E+02  0.00000000000E+00 0.  1.
         21    1    1    2  503  502 -0.40448135749E+02 -0.93600834319E+02  0.27071563688E+03  0.28928208366E+03  0.00000000000E+00 0.  1.
          1    1    1    2  501    0  0.19432902348E+03  0.74816917040E+01 -0.14327992257E+02  0.19500009344E+03  0.00000000000E+00 0. -1.
<scales pt_clust_5="13000.00000" pt_clust_6="13000.00000" pt_clust_7="13000.00000" pt_clust_8="13000.00000" pt_clust_9="101.96650" pt_clust_10="13000.00000"></scales>
<clustering>
<clus scale="   79.896">  5  6 -1 -1</clus>
<clus scale="   90.980">  7  8 -1 -1</clus>
<clus scale="  101.967">  1  9  2 -1</clus>
<clus scale="  120.257">  2  5  1 -1</clus>
<clus scale="  136.157">  7 10 -1 -1</clus>
<clus scale="  101.967">  1  5  2 -1</clus>
</clustering>
</event>
<event>
10    4  0.2759992E-005  0.3704742E+03  0.7546771E-02  0.1061670E+00
         21   -1    0    0  501  502  0.00000000000E+00  0.00000000000E+00  0.23761828031E+03  0.23761828031E+03  0.00000000000E+00 0. -1.
          2   -1    0    0  503    0 -0.00000000000E+00 -0.00000000000E+00 -0.66833514707E+03  0.66833514707E+03  0.00000000000E+00 0. -1.
         24    2    1    2    0    0 -0.90802830393E+02  0.28293809399E+03 -0.35814329634E+03  0.47238209980E+03  0.81111703592E+02 0.  0.
         23    2    1    2    0    0  0.43636405658E+02 -0.79367498992E+02  0.37055531728E+02  0.13419961331E+03  0.91831846252E+02 0.  0.
        -13    1    3    3    0    0  0.76501876434E+01  0.28425751878E+02 -0.67849732543E+02  0.73960360646E+02  0.00000000000E+00 0.  1.
         14    1    3    3    0    0 -0.98453018036E+02  0.25451234211E+03 -0.29029356379E+03  0.39842173915E+03  0.00000000000E+00 0. -1.
        -13    1    4    4    0    0  0.60594757418E+02 -0.25480238560E+02  0.41161441983E+02  0.77557923449E+02  0.00000000000E+00 0. -1.
         13    1    4    4    0    0 -0.16958351760E+02 -0.53887260432E+02 -0.41059102548E+01  0.56641689861E+02  0.00000000000E+00 0.  1.
         21    1    1    2  503  502 -0.13877794561E+02 -0.22709987451E+02  0.45959960767E+02  0.53109836242E+02  0.00000000000E+00 0. -1.
          1    1    1    2  501    0  0.61044219296E+02 -0.18086060754E+03 -0.15558906292E+03  0.24626187803E+03  0.00000000000E+00 0. -1.
<scales pt_clust_5="13000.00000" pt_clust_6="13000.00000" pt_clust_7="13000.00000" pt_clust_8="13000.00000" pt_clust_9="26.61460" pt_clust_10="13000.00000"></scales>
<clustering>
<clus scale="   26.615">  1  9  2 -1</clus>
<clus scale="   81.112">  5  6 -1 -1</clus>
<clus scale="   91.832">  7  8 -1 -1</clus>
<clus scale="  195.064">  7 10 -1 -1</clus>
<clus scale="  302.995">  2  5  1 -1</clus>
<clus scale="   26.615">  1  5  2 -1</clus>
</clustering>
</event>
<event>
10    4  0.2759992E-005  0.3467548E+03  0.7546771E-02  0.1105462E+00
          2   -1    0    0  503    0 -0.00000000000E+00  0.00000000000E+00  0.25490588201E+03  0.25490588201E+03  0.00000000000E+00 0. -1.
         21   -1    0    0  501  502  0.00000000000E+00 -0.00000000000E+00 -0.23486292377E+03  0.23486292377E+03  0.00000000000E+00 0.  1.
         24    2    1    2    0    0  0.12962558883E+02 -0.76580425763E+02 -0.33310052327E+02  0.11599770173E+03  0.79456388532E+02 0.  0.
         23    2    1    2    0    0 -0.30184941528E+02  0.77914012812E+02 -0.12495350543E+03  0.17704558994E+03  0.93541639441E+02 0.  0.
        -11    1    3    3    0    0 -0.12352556378E+02 -0.80109267378E+02 -0.38785933859E+02  0.89857826784E+02  0.00000000000E+00 0.  1.
         12    1    3    3    0    0  0.25315115261E+02  0.35288416155E+01  0.54758815318E+01  0.26139874950E+02  0.00000000000E+00 0. -1.
        -13    1    4    4    0    0 -0.58736935312E+02  0.59479171378E+02 -0.11394755864E+03  0.14132178006E+03  0.00000000000E+00 0. -1.
         13    1    4    4    0    0  0.28551993784E+02  0.18434841434E+02 -0.11005946790E+02  0.35723809882E+02  0.00000000000E+00 0.  1.
         21    1    1    2  503  502 -0.12454588615E+02 -0.16109592854E+02  0.59563642751E+01  0.21215891093E+02  0.00000000000E+00 0.  1.
          1    1    1    2  501    0  0.29676971260E+02  0.14776005804E+02  0.17235015172E+03  0.17550962301E+03  0.00000000000E+00 0. -1.
<scales pt_clust_5="13000.00000" pt_clust_6="13000.00000" pt_clust_7="13000.00000" pt_clust_8="13000.00000" pt_clust_9="20.36262" pt_clust_10="13000.00000"></scales>
<clustering>
<clus scale="   20.363">  2  9  1 -1</clus>
<clus scale="   79.456">  5  6 -1 -1</clus>
<clus scale="   93.542">  7  8 -1 -1</clus>
<clus scale="   33.025">  7 10 -1 -1</clus>
<clus scale="  114.434">  1  5  2 -1</clus>
<clus scale="   20.363">  2  5  1 -1</clus>
</clustering>
</event>
<event>
10    4  0.2759992E-005  0.2799834E+03  0.7546771E-02  0.1112722E+00
          2   -1    0    0  503    0 -0.00000000000E+00  0.00000000000E+00  0.40563478383E+03  0.40563478383E+03  0.00000000000E+00 0. -1.
         21   -1    0    0  501  502  0.00000000000E+00 -0.00000000000E+00 -0.24373697680E+03  0.24373697680E+03  0.00000000000E+00 0.  1.
         24    2    1    2    0    0  0.25623509989E+02 -0.12119580253E+03  0.27651886479E+02  0.14950761165E+03  0.79012102239E+02 0.  0.
         23    2    1    2    0    0  0.36108720752E+02  0.66497854304E+02  0.61001086602E+02  0.13373029831E+03  0.91852358590E+02 0.  0.
        -13    1    3    3    0    0  0.23213152505E+02 -0.13243851351E+03  0.30020313967E+02  0.13776802808E+03  0.00000000000E+00 0.  1.
         14    1    3    3    0    0  0.24103574847E+01  0.11242710987E+02 -0.23684274881E+01  0.11739583566E+02  0.00000000000E+00 0. -1.
        -11    1    4    4    0    0  0.58828519089E+02  0.43126216806E+02  0.10601710883E+02  0.73709304079E+02  0.00000000000E+00 0.  1.
         11    1    4    4    0    0 -0.22719798337E+02  0.23371637498E+02  0.50399375719E+02  0.60020994233E+02  0.00000000000E+00 0. -1.
         21    1    1    2  503  502  0.99128540088E+02 -0.72046751858E+02 -0.43938847974E+02  0.13018380957E+03  0.00000000000E+00 0.  1.
          1    1    1    2  501    0 -0.16086077083E+03  0.12674470008E+03  0.11718368192E+03  0.23595004111E+03  0.00000000000E+00 0. -1.
<scales pt_clust_5="13000.00000" pt_clust_6="13000.00000" pt_clust_7="13000.00000" pt_clust_8="13000.00000" pt_clust_9="122.54469" pt_clust_10="13000.00000"></scales>
<clustering>
<clus scale="   79.012">  5  6 -1 -1</clus>
<clus scale="   91.852">  7  8 -1 -1</clus>
<clus scale="  122.545">  2  9  1 -1</clus>
<clus scale="  158.392">  7 10 -1 -1</clus>
<clus scale="  180.626">  1  5  2 -1</clus>
<clus scale="  122.545">  2  5  1 -1</clus>
</clustering>
</event>
<event>
10    4  0.2759992E-005  0.8273410E+03  0.7546771E-02  0.9827755E-01
          2   -1    0    0  502    0 -0.00000000000E+00  0.00000000000E+00  0.10324030995E+04  0.10324030995E+04  0.00000000000E+00 0. -1.
         21   -1    0    0  503  502  0.00000000000E+00 -0.00000000000E+00 -0.50186057636E+03  0.50186057636E+03  0.00000000000E+00 0. -1.
         24    2    1    2    0    0  0.19582638719E+01  0.28456211512E+03  0.30367618133E+03  0.42394355753E+03  0.80805226988E+02 0.  0.
         23    2    1    2    0    0  0.27177305514E+03  0.12890210597E+03  0.20106874091E+03  0.37326969506E+03  0.91789325369E+02 0.  0.
        -13    1    3    3    0    0 -0.16365616864E+02  0.66321942674E+02  0.12012174453E+03  0.13818707249E+03  0.00000000000E+00 0.  1.
         14    1    3    3    0    0  0.18323880736E+02  0.21824017244E+03  0.18355443680E+03  0.28575648504E+03  0.00000000000E+00 0. -1.
        -11    1    4    4    0    0  0.20155127915E+03  0.10530490485E+03  0.19389380150E+03  0.29884251266E+03  0.00000000000E+00 0.  1.
         11    1    4    4    0    0  0.70221775989E+02  0.23597201125E+02  0.71749394095E+01  0.74427182397E+02  0.00000000000E+00 0. -1.
         21    1    1    2  503  501  0.32265057542E+02 -0.88661255253E+01 -0.18479060593E+03  0.18779566066E+03  0.00000000000E+00 0.  1.
          1    1    1    2  501    0 -0.30599637655E+03 -0.40459809556E+03  0.21058820682E+03  0.54925476261E+03  0.00000000000E+00 0. -1.
<scales pt_clust_5="13000.00000" pt_clust_6="13000.00000" pt_clust_7="13000.00000" pt_clust_8="13000.00000" pt_clust_9="33.46105" pt_clust_10="13000.00000"></scales>
<clustering>
<clus scale="   33.461">  2  9  1 -1</clus>
<clus scale="   80.805">  5  6 -1 -1</clus>
<clus scale="   91.789">  7  8 -1 -1</clus>
<clus scale="  294.299">  1  5  2 -1</clus>
<clus scale="  380.518">  7 10 -1 -1</clus>
<clus scale="   33.461">  2  5  1 -1</clus>
</clustering>
</event>
<event>
10    4  0.2759992E-005  0.4586196E+03  0.7546771E-02  0.1080482E+00
          2   -1    0    0  502    0 -0.00000000000E+00  0.00000000000E+00  0.48179648722E+03  0.48179648722E+03  0.00000000000E+00 0. -1.
         21   -1    0    0  503  502  0.00000000000E+00 -0.00000000000E+00 -0.24156877959E+03  0.24156877959E+03  0.00000000000E+00 0. -1.
         24    2    1    2    0    0 -0.57859392963E+02  0.18618826492E+02  0.23512074766E+02  0.10309547666E+03  0.79884226196E+02 0.  0.
         23    2    1    2    0    0  0.33543244294E+02 -0.21978121548E+03  0.18914932074E+03  0.30619498916E+03  0.92460661550E+02 0.  0.
        -13    1    3    3    0    0 -0.43592413124E+01  0.30862750896E+02  0.35163310048E+02  0.46989049269E+02  0.00000000000E+00 0.  1.
         14    1    3    3    0    0 -0.53500151651E+02 -0.12243924404E+02 -0.11651235282E+02  0.56106427395E+02  0.00000000000E+00 0. -1.
        -11    1    4    4    0    0 -0.30948772073E+02 -0.46202180722E+02  0.42997914684E+02  0.70294300363E+02  0.00000000000E+00 0.  1.
         11    1    4    4    0    0  0.64492016368E+02 -0.17357903476E+03  0.14615140605E+03  0.23590068879E+03  0.00000000000E+00 0. -1.
         21    1    1    2  503  501  0.34539676870E+02 -0.10104746090E+02 -0.71852105415E+02  0.80360563864E+02  0.00000000000E+00 0. -1.
          1    1    1    2  501    0 -0.10223528201E+02  0.21126713508E+03  0.99418417540E+02  0.23371423713E+03  0.00000000000E+00 0. -1.
<scales pt_clust_5="13000.00000" pt_clust_6="13000.00000" pt_clust_7="13000.00000" pt_clust_8="13000.00000" pt_clust_9="35.98743" pt_clust_10="13000.00000"></scales>
<clustering>
<clus scale="   35.987">  2  9  1 -1</clus>
<clus scale="   79.884">  5  6 -1 -1</clus>
<clus scale="   92.461">  7  8 -1 -1</clus>
<clus scale="   95.389">  1  5  2 -1</clus>
<clus scale="  213.929">  7 10 -1 -1</clus>
<clus scale="   35.987">  2  5  1 -1</clus>
</clustering>
</event>
<event>
10    4  0.2759992E-005  0.2699821E+03  0.7546771E-02  0.1138563E+00
         -1   -1    0    0    0  501 -0.00000000000E+00  0.00000000000E+00  0.29833089925E+03  0.29833089925E+03  0.00000000000E+00 0.  1.
         21   -1    0    0  503  502  0.00000000000E+00 -0.00000000000E+00 -0.20239627117E+03  0.20239627117E+03  0.00000000000E+00 0.  1.
         24    2    1    2    0    0 -0.51060611856E+02 -0.37621617984E+02  0.83101613467E+02  0.13234896069E+03  0.81165245093E+02 0.  0.
         23    2    1    2    0    0  0.54400314580E+01 -0.70155775936E+02  0.72985760002E+02  0.13691798462E+03  0.92022749955E+02 0.  0.
        -13    1    3    3    0    0 -0.65742428528E+02 -0.34909577291E+01  0.54275626350E+02  0.85323486276E+02  0.00000000000E+00 0.  1.
         14    1    3    3    0    0  0.14681816672E+02 -0.34130660255E+02  0.28825987117E+02  0.47025474410E+02  0.00000000000E+00 0. -1.
        -11    1    4    4    0    0 -0.18023824341E+02  0.11371646498E+02 -0.47701357880E+01  0.21838653424E+02  0.00000000000E+00 0. -1.
         11    1    4    4    0    0  0.23463855799E+02 -0.81527422434E+02  0.77755895791E+02  0.11507933119E+03  0.00000000000E+00 0.  1.
         21    1    1    2  503  501 -0.60887766065E+01 -0.35211056706E+02 -0.70519314164E+02  0.79056090120E+02  0.00000000000E+00 0.  1.
         -2    1    1    2    0  502  0.51709357004E+02  0.14298845063E+03  0.10366568771E+02  0.15240413499E+03  0.00000000000E+00 0.  1.
<scales pt_clust_5="13000.00000" pt_clust_6="13000.00000" pt_clust_7="13000.00000" pt_clust_8="13000.00000" pt_clust_9="35.73362" pt_clust_10="13000.00000"></scales>
<clustering>
<clus scale="   35.734">  2  9  1 -1</clus>
<clus scale="   81.165">  5  6 -1 -1</clus>
<clus scale="   92.023">  7  8 -1 -1</clus>
<clus scale="  106.250">  1  5  2 -1</clus>
<clus scale="  111.697">  7 10 -1 -1</clus>
<clus scale="   35.734">  2  5  1 -1</clus>
</clustering>
</event>
<event>
10    4  0.2759992E-005  0.3494122E+03  0.7546771E-02  0.1102380E+00
         21   -1    0    0  503  502  0.00000000000E+00  0.00000000000E+00  0.93051375172E+02  0.93051375172E+02  0.00000000000E+00 0. -1.
          4   -1    0    0  502    0 -0.00000000000E+00 -0.00000000000E+00 -0.11524694659E+04  0.11524694659E+04  0.00000000000E+00 0. -1.
         24    2    1    2    0    0 -0.19538146455E+02  0.80826373410E+02 -0.43707335158E+03  0.45378117812E+03  0.89272622640E+02 0.  0.
         23    2    1    2    0    0 -0.70614979513E+02  0.81225609574E+02 -0.47533236809E+03  0.49585558722E+03  0.91366450289E+02 0.  0.
        -11    1    3    3    0    0 -0.53622595204E+02  0.38855181674E+02 -0.20229962208E+03  0.21286203267E+03  0.00000000000E+00 0.  1.
         12    1    3    3    0    0  0.34084448750E+02  0.41971191736E+02 -0.23477372950E+03  0.24091914546E+03  0.00000000000E+00 0. -1.
        -13    1    4    4    0    0 -0.59018422947E+02  0.43776652506E+02 -0.42861646729E+03  0.43486968805E+03  0.00000000000E+00 0.  1.
         13    1    4    4    0    0 -0.11596556566E+02  0.37448957068E+02 -0.46715900794E+02  0.60985899162E+02  0.00000000000E+00 0. -1.
         21    1    1    2  503  501  0.56191371782E+02  0.17013230686E+01  0.19869830012E+02  0.59625287485E+02  0.00000000000E+00 0. -1.
          3    1    1    2  501    0  0.33961754185E+02 -0.16375330605E+03 -0.16688220108E+03  0.23625878826E+03  0.00000000000E+00 0. -1.
<scales pt_clust_5="13000.00000" pt_clust_6="13000.00000" pt_clust_7="13000.00000" pt_clust_8="13000.00000" pt_clust_9="56.21712" pt_clust_10="13000.00000"></scales>
<clustering>
<clus scale="   56.217">  1  9  2 -1</clus>
<clus scale="   89.273">  5  6 -1 -1</clus>
<clus scale="   91.366">  7  8 -1 -1</clus>
<clus scale="  121.082">  2  5  1 -1</clus>
<clus scale="  150.408">  7 10 -1 -1</clus>
<clus scale="   56.217">  1  5  2 -1</clus>
</clustering>
</event>
<event>
10    4  0.2759992E-005  0.2588373E+03  0.7546771E-02  0.1145454E+00
          2   -1    0    0  502    0 -0.00000000000E+00  0.00000000000E+00  0.34976831013E+03  0.34976831013E+03  0.00000000000E+00 0. -1.
         21   -1    0    0  503  502  0.00000000000E+00 -0.00000000000E+00 -0.16260729344E+03  0.16260729344E+03  0.00000000000E+00 0. -1.
         24    2    1    2    0    0 -0.11834887917E+02  0.79039892765E+02  0.71103462692E+02  0.13360509465E+03  0.80045297730E+02 0.  0.
         23    2    1    2    0    0  0.19047571360E+01  0.95534498809E+02  0.89270079813E+02  0.16026987346E+03  0.92665077709E+02 0.  0.
        -13    1    3    3    0    0 -0.29001927144E+02 -0.13557258377E+01  0.29796914633E+02  0.41602955330E+02  0.00000000000E+00 0.  1.
         14    1    3    3    0    0  0.17167039227E+02  0.80395618603E+02  0.41306548060E+02  0.92002139317E+02  0.00000000000E+00 0. -1.
        -11    1    4    4    0    0 -0.28051324951E+02  0.17529270790E+02  0.65527083893E+02  0.73402662687E+02  0.00000000000E+00 0.  1.
         11    1    4    4    0    0  0.29956082087E+02  0.78005228019E+02  0.23742995920E+02  0.86867210774E+02  0.00000000000E+00 0. -1.
         21    1    1    2  503  501 -0.16445728858E+02 -0.57194812093E+02 -0.48333363379E+02  0.76666958616E+02  0.00000000000E+00 0. -1.
          1    1    1    2  501    0  0.26375859639E+02 -0.11737957948E+03  0.75120837560E+02  0.14183367684E+03  0.00000000000E+00 0. -1.
<scales pt_clust_5="13000.00000" pt_clust_6="13000.00000" pt_clust_7="13000.00000" pt_clust_8="13000.00000" pt_clust_9="59.51226" pt_clust_10="13000.00000"></scales>
<clustering>
<clus scale="   59.512">  2  9  1 -1</clus>
<clus scale="   80.045">  5  6 -1 -1</clus>
<clus scale="   92.665">  7  8 -1 -1</clus>
<clus scale="  102.171">  1  5  2 -1</clus>
<clus scale="  102.197">  7 10 -1 -1</clus>
<clus scale="   59.512">  2  5  1 -1</clus>
</clustering>
</event>
<event>
10    4  0.2759992E-005  0.2846167E+03  0.7546771E-02  0.1130371E+00
          2   -1    0    0  503    0 -0.00000000000E+00  0.00000000000E+00  0.81478727159E+03  0.81478727159E+03  0.00000000000E+00 0. -1.
         21   -1    0    0  501  502  0.00000000000E+00 -0.00000000000E+00 -0.31166385883E+03  0.31166385883E+03  0.00000000000E+00 0. -1.
         24    2    1    2    0    0 -0.20733895066E+02 -0.88261543531E+02  0.15993246122E+03  0.20088464468E+03  0.80970697449E+02 0.  0.
         23    2    1    2    0    0 -0.40252742029E+02 -0.41552790534E+02  0.73380526370E+02  0.13065393711E+03  0.91317205338E+02 0.  0.
        -13    1    3    3    0    0 -0.21749346063E+02 -0.41217768399E+02  0.14376464423E+03  0.15112978336E+03  0.00000000000E+00 0.  1.
         14    1    3    3    0    0  0.10154509976E+01 -0.47043775132E+02  0.16167816990E+02  0.49754861327E+02  0.00000000000E+00 0. -1.
        -13    1    4    4    0    0  0.80024720602E+01  0.20036887999E+02  0.40287093841E+02  0.45700835550E+02  0.00000000000E+00 0.  1.
         13    1    4    4    0    0 -0.48255214089E+02 -0.61589678533E+02  0.33093432528E+02  0.84953101563E+02  0.00000000000E+00 0. -1.
         21    1    1    2  503  502  0.92043814647E+02  0.37038691231E+02 -0.24843438947E+03  0.26751368999E+03  0.00000000000E+00 0. -1.
          1    1    1    2  501    0 -0.31057177552E+02  0.92775642834E+02  0.51824481464E+03  0.52739885863E+03  0.00000000000E+00 0. -1.
<scales pt_clust_5="13000.00000" pt_clust_6="13000.00000" pt_clust_7="13000.00000" pt_clust_8="13000.00000" pt_clust_9="99.21657" pt_clust_10="13000.00000"></scales>
<clustering>
<clus scale="   80.971">  5  6 -1 -1</clus>
<clus scale="   91.317">  7  8 -1 -1</clus>
<clus scale="   97.836">  7 10 -1 -1</clus>
<clus scale="   99.217">  2  9  1 -1</clus>
<clus scale="  110.720">  1  5  2 -1</clus>
<clus scale="   99.217">  2  5  1 -1</clus>
</clustering>
</event>
<event>
10    4  0.2759992E-005  0.2860367E+03  0.7546771E-02  0.1112217E+00
         -1   -1    0    0    0  501 -0.00000000000E+00  0.00000000000E+00  0.13520807273E+03  0.13520807273E+03  0.00000000000E+00 0.  1.
         21   -1    0    0  503  502  0.00000000000E+00 -0.00000000000E+00 -0.45893527749E+03  0.45893527749E+03  0.00000000000E+00 0.  1.
         24    2    1    2    0    0  0.95388284696E+02  0.13112690276E+03 -0.73812981129E+02  0.19545768672E+03  0.80387571368E+02 0.  0.
         23    2    1    2    0    0  0.32916832777E+02 -0.27695481023E+02 -0.17974645311E+03  0.20618568758E+03  0.91395803012E+02 0.  0.
        -11    1    3    3    0    0  0.78955235136E+02  0.99641220153E+02 -0.16729081233E+02  0.12822700210E+03  0.00000000000E+00 0.  1.
         12    1    3    3    0    0  0.16433049560E+02  0.31485682606E+02 -0.57083899896E+02  0.67230684619E+02  0.00000000000E+00 0. -1.
        -13    1    4    4    0    0  0.51895507493E+02  0.12892102464E+02 -0.12111565231E+03  0.13239467979E+03  0.00000000000E+00 0.  1.
         13    1    4    4    0    0 -0.18978674716E+02 -0.40587583487E+02 -0.58630800800E+02  0.73791007784E+02  0.00000000000E+00 0. -1.
         21    1    1    2  503  501 -0.18987312541E+02 -0.25759075310E+02 -0.46311964130E+02  0.56292504119E+02  0.00000000000E+00 0.  1.
         -2    1    1    2    0  502 -0.10931780493E+03 -0.77672346427E+02 -0.23855806393E+02  0.13620747180E+03  0.00000000000E+00 0.  1.
<scales pt_clust_5="13000.00000" pt_clust_6="13000.00000" pt_clust_7="13000.00000" pt_clust_8="13000.00000" pt_clust_9="32.00075" pt_clust_10="13000.00000"></scales>
<clustering>
<clus scale="   32.001">  2  9  1 -1</clus>
<clus scale="   80.388">  5  6 -1 -1</clus>
<clus scale="   91.396">  7  8 -1 -1</clus>
<clus scale="  140.084">  7 10 -1 -1</clus>
<clus scale="  171.579">  1  5  2 -1</clus>
<clus scale="   32.001">  2  5  1 -1</clus>
</clustering>
</event>
<event>
10    4  0.2759992E-005  0.2712894E+03  0.7546771E-02  0.1120933E+00
         21   -1    0    0  501  502  0.00000000000E+00  0.00000000000E+00  0.64026600793E+02  0.64026600793E+02  0.00000000000E+00 0. -1.
          2   -1    0    0  503    0 -0.00000000000E+00 -0.00000000000E+00 -0.93130889816E+03  0.93130889816E+03  0.00000000000E+00 0. -1.
         24    2    1    2    0    0  0.12918223922E+03  0.87882566156E+01 -0.26011936815E+03  0.30171224430E+03  0.81258281360E+02 0.  0.
         23    2    1    2    0    0 -0.99597882260E+02  0.88273266771E+02 -0.50170434390E+03  0.52663054437E+03  0.88997605557E+02 0.  0.
        -13    1    3    3    0    0  0.43466064639E+02  0.30048960221E+02 -0.15852034692E+03  0.16709559891E+03  0.00000000000E+00 0.  1.
         14    1    3    3    0    0  0.85716174580E+02 -0.21260703606E+02 -0.10159902123E+03  0.13461664539E+03  0.00000000000E+00 0. -1.
        -13    1    4    4    0    0 -0.20564433570E+02  0.75547128669E+02 -0.20926424549E+03  0.22343184423E+03  0.00000000000E+00 0. -1.
         13    1    4    4    0    0 -0.79033448691E+02  0.12726138102E+02 -0.29244009841E+03  0.30319870013E+03  0.00000000000E+00 0.  1.
         21    1    1    2  503  502  0.26135913827E+02 -0.25490645416E+02 -0.16914570467E+02  0.40236323010E+02  0.00000000000E+00 0. -1.
          1    1    1    2  501    0 -0.55720270785E+02 -0.71570877971E+02 -0.88544014850E+02  0.12675638728E+03  0.00000000000E+00 0. -1.
<scales pt_clust_5="13000.00000" pt_clust_6="13000.00000" pt_clust_7="13000.00000" pt_clust_8="13000.00000" pt_clust_9="36.50834" pt_clust_10="13000.00000"></scales>
<clustering>
<clus scale="   36.508">  1  9  2 -1</clus>
<clus scale="   81.258">  5  6 -1 -1</clus>
<clus scale="   88.998">  7  8 -1 -1</clus>
<clus scale="   93.130">  7 10 -1 -1</clus>
<clus scale="  161.500">  2  5  1 -1</clus>
<clus scale="   36.508">  1  5  2 -1</clus>
</clustering>
</event>
<event>
10    4  0.2759992E-005  0.2925513E+03  0.7546771E-02  0.1135871E+00
          2   -1    0    0  502    0 -0.00000000000E+00  0.00000000000E+00  0.12797094015E+04  0.12797094015E+04  0.00000000000E+00 0. -1.
         21   -1    0    0  503  502  0.00000000000E+00 -0.00000000000E+00 -0.41747994981E+02  0.41747994981E+02  0.00000000000E+00 0. -1.
         24    2    1    2    0    0  0.24999418377E+02 -0.40035788220E+02  0.14696225796E+03  0.17583108762E+03  0.84207071253E+02 0.  0.
         23    2    1    2    0    0  0.56849566999E+02 -0.71478630326E+02  0.25653623253E+03  0.29086735174E+03  0.10223458243E+03 0.  0.
        -11    1    3    3    0    0 -0.19622385830E+02 -0.32003713026E+02  0.11331306360E+03  0.11936970326E+03  0.00000000000E+00 0.  1.
         12    1    3    3    0    0  0.44621804206E+02 -0.80320751942E+01  0.33649194364E+02  0.56461384361E+02  0.00000000000E+00 0. -1.
        -13    1    4    4    0    0  0.41858868376E+02  0.17768126585E+02  0.68987469317E+02  0.82626521812E+02  0.00000000000E+00 0.  1.
         13    1    4    4    0    0  0.14990698623E+02 -0.89246756911E+02  0.18754876322E+03  0.20824082993E+03  0.00000000000E+00 0. -1.
         21    1    1    2  503  501 -0.21276684665E+02  0.37407681390E+02  0.56973221089E+02  0.71400139065E+02  0.00000000000E+00 0. -1.
          1    1    1    2  501    0 -0.60572300711E+02  0.74106737156E+02  0.77748969496E+03  0.78335881809E+03  0.00000000000E+00 0. -1.
<scales pt_clust_5="13000.00000" pt_clust_6="13000.00000" pt_clust_7="13000.00000" pt_clust_8="13000.00000" pt_clust_9="43.03524" pt_clust_10="13000.00000"></scales>
<clustering>
<clus scale="   43.035">  2  9  1 -1</clus>
<clus scale="   84.207">  5  6 -1 -1</clus>
<clus scale="   89.138">  1  5  2 -1</clus>
<clus scale="  102.235">  7  8 -1 -1</clus>
<clus scale="   77.195">  7 10 -1 -1</clus>
<clus scale="   43.035">  2  5  1 -1</clus>
</clustering>
</event>
<event>
10    4  0.2759992E-005  0.3944980E+03  0.7546771E-02  0.1090449E+00
          2   -1    0    0  502    0 -0.00000000000E+00  0.00000000000E+00  0.73610720508E+03  0.73610720508E+03  0.00000000000E+00 0. -1.
         21   -1    0    0  503  502  0.00000000000E+00 -0.00000000000E+00 -0.16576652046E+03  0.16576652046E+03  0.00000000000E+00 0. -1.
         24    2    1    2    0    0  0.76764390333E+02  0.18094293345E+02  0.19585180271E+03  0.22596980929E+03  0.80524847159E+02 0.  0.
         23    2    1    2    0    0  0.99118116023E+02 -0.10656874698E+03  0.30570016546E+03  0.35120563712E+03  0.93335468203E+02 0.  0.
        -13    1    3    3    0    0  0.25947410749E+02 -0.15381779560E+02  0.14052475577E+03  0.14372569099E+03  0.00000000000E+00 0.  1.
         14    1    3    3    0    0  0.50816979584E+02  0.33476072906E+02  0.55327046942E+02  0.82244118298E+02  0.00000000000E+00 0. -1.
        -13    1    4    4    0    0  0.11864159466E+02 -0.32465508755E+02  0.13022710769E+02  0.36937224237E+02  0.00000000000E+00 0.  1.
         13    1    4    4    0    0  0.87253956557E+02 -0.74103238224E+02  0.29267745469E+03  0.31426841288E+03  0.00000000000E+00 0. -1.
         21    1    1    2  503  501  0.14734576706E+02  0.17853547586E+02 -0.73178794356E+02  0.76752803568E+02  0.00000000000E+00 0. -1.
          1    1    1    2  501    0 -0.19061708306E+03  0.70620906048E+02  0.14196751081E+03  0.24794547556E+03  0.00000000000E+00 0. -1.
<scales pt_clust_5="13000.00000" pt_clust_6="13000.00000" pt_clust_7="13000.00000" pt_clust_8="13000.00000" pt_clust_9="23.14858" pt_clust_10="13000.00000"></scales>
<clustering>
<clus scale="   23.149">  2  9  1 -1</clus>
<clus scale="   80.525">  5  6 -1 -1</clus>
<clus scale="   93.335">  7  8 -1 -1</clus>
<clus scale="  114.898">  1  5  2 -1</clus>
<clus scale="  176.918">  7 10 -1 -1</clus>
<clus scale="   23.149">  2  5  1 -1</clus>
</clustering>
</event>
<event>
10    4  0.2759992E-005  0.2716842E+03  0.7546771E-02  0.1128691E+00
         21   -1    0    0  501  502  0.00000000000E+00  0.00000000000E+00  0.72531068217E+03  0.72531068217E+03  0.00000000000E+00 0. -1.
          2   -1    0    0  503    0 -0.00000000000E+00 -0.00000000000E+00 -0.86626264894E+02  0.86626264894E+02  0.00000000000E+00 0. -1.
         24    2    1    2    0    0 -0.74057690995E+02  0.11927857283E+02  0.21638603644E+03  0.24357332056E+03  0.82935097211E+02 0.  0.
         23    2    1    2    0    0  0.69722292224E+02  0.82338418374E+02  0.12450188767E+03  0.18833332225E+03  0.91257367176E+02 0.  0.
        -13    1    3    3    0    0 -0.73328064239E+02  0.25084246793E+02  0.10035493106E+03  0.12679643776E+03  0.00000000000E+00 0.  1.
         14    1    3    3    0    0 -0.72962675672E+00 -0.13156389511E+02  0.11603110538E+03  0.11677688280E+03  0.00000000000E+00 0. -1.
        -11    1    4    4    0    0  0.84747676585E+01 -0.18134176613E+02  0.35653959861E+02  0.40888566887E+02  0.00000000000E+00 0.  1.
         11    1    4    4    0    0  0.61247524565E+02  0.10047259499E+03  0.88847927810E+02  0.14744475537E+03  0.00000000000E+00 0. -1.
         21    1    1    2  503  502 -0.61198920763E+02  0.38962536420E+02  0.16732214496E+03  0.18237348311E+03  0.00000000000E+00 0. -1.
          1    1    1    2  501    0  0.65534319535E+02 -0.13322881208E+03  0.13047434821E+03  0.19765682114E+03  0.00000000000E+00 0. -1.
<scales pt_clust_5="13000.00000" pt_clust_6="13000.00000" pt_clust_7="13000.00000" pt_clust_8="13000.00000" pt_clust_9="72.54921" pt_clust_10="13000.00000"></scales>
<clustering>
<clus scale="   72.549">  1  9  2 -1</clus>
<clus scale="   82.935">  5  6 -1 -1</clus>
<clus scale="   91.257">  7  8 -1 -1</clus>
<clus scale="  130.488">  7 10 -1 -1</clus>
<clus scale="  132.662">  2  5  1 -1</clus>
<clus scale="   72.549">  1  5  2 -1</clus>
</clustering>
</event>
<event>
10    4  0.2759992E-005  0.2035359E+03  0.7546771E-02  0.1179401E+00
         21   -1    0    0  503  502  0.00000000000E+00  0.00000000000E+00  0.59963220625E+03  0.59963220625E+03  0.00000000000E+00 0.  1.
          2   -1    0    0  502    0 -0.00000000000E+00 -0.00000000000E+00 -0.14316795785E+03  0.14316795785E+03  0.00000000000E+00 0. -1.
         24    2    1    2    0    0  0.11157088657E+02 -0.51278168273E+02 -0.65565857813E+02  0.11596342001E+03  0.79966880021E+02 0.  0.
         23    2    1    2    0    0  0.51050577029E+02 -0.12634265628E+02  0.17718217779E+03  0.20579983601E+03  0.90522164644E+02 0.  0.
        -13    1    3    3    0    0  0.32872496750E+02 -0.12528497591E+01 -0.48905765832E+02  0.58940178203E+02  0.00000000000E+00 0.  1.
         14    1    3    3    0    0 -0.21715408092E+02 -0.50025318514E+02 -0.16660091982E+02  0.57023241804E+02  0.00000000000E+00 0. -1.
        -13    1    4    4    0    0 -0.11738732175E+02 -0.23256772213E+02  0.11835484784E+02  0.28613877523E+02  0.00000000000E+00 0. -1.
         13    1    4    4    0    0  0.62789309204E+02  0.10622506585E+02  0.16534669300E+03  0.17718595848E+03  0.00000000000E+00 0.  1.
         21    1    1    2  503  501 -0.11959519343E+03  0.10091140170E+02  0.31465082643E+03  0.33676398854E+03  0.00000000000E+00 0.  1.
          1    1    1    2  501    0  0.57387527748E+02  0.53821293730E+02  0.30197101995E+02  0.84272919546E+02  0.00000000000E+00 0. -1.
<scales pt_clust_5="13000.00000" pt_clust_6="13000.00000" pt_clust_7="13000.00000" pt_clust_8="13000.00000" pt_clust_9="117.24342" pt_clust_10="13000.00000"></scales>
<clustering>
<clus scale="   79.967">  5  6 -1 -1</clus>
<clus scale="   90.522">  7  8 -1 -1</clus>
<clus scale="   78.677">  7 10 -1 -1</clus>
<clus scale="   95.648">  2  5  1 -1</clus>
<clus scale="  117.243">  1  9  2 -1</clus>
<clus scale="  117.243">  1  5  2 -1</clus>
</clustering>
</event>
<event>
10    4  0.2759992E-005  0.2369667E+03  0.7546771E-02  0.1144270E+00
          2   -1    0    0  503    0 -0.00000000000E+00  0.00000000000E+00  0.26963181264E+03  0.26963181264E+03  0.00000000000E+00 0. -1.
         21   -1    0    0  501  502  0.00000000000E+00 -0.00000000000E+00 -0.26083605976E+03  0.26083605976E+03  0.00000000000E+00 0. -1.
         24    2    1    2    0    0 -0.13937583111E+02  0.10923637097E+03  0.15591143639E+03  0.20759113812E+03  0.81601860648E+02 0.  0.
         23    2    1    2    0    0 -0.28177679047E+02 -0.67183813575E+02 -0.11656693187E+03  0.16569671950E+03  0.92519764612E+02 0.  0.
        -13    1    3    3    0    0 -0.20283246553E+02  0.33837064158E+02  0.63225001408E+01  0.39954111298E+02  0.00000000000E+00 0.  1.
         14    1    3    3    0    0  0.63456634425E+01  0.75399306817E+02  0.14958893625E+03  0.16763702682E+03  0.00000000000E+00 0. -1.
        -13    1    4    4    0    0  0.23393241279E+02 -0.57172257643E+02 -0.82578525674E+02  0.10312673603E+03  0.00000000000E+00 0. -1.
         13    1    4    4    0    0 -0.51570920326E+02 -0.10011555932E+02 -0.33988406194E+02  0.62569983467E+02  0.00000000000E+00 0.  1.
         21    1    1    2  503  502 -0.22809913161E+02 -0.40561808910E+01 -0.68936320293E+02  0.72725243192E+02  0.00000000000E+00 0.  1.
          1    1    1    2  501    0  0.64925175319E+02 -0.37996376508E+02  0.38387568648E+02  0.84454771592E+02  0.00000000000E+00 0. -1.
<scales pt_clust_5="13000.00000" pt_clust_6="13000.00000" pt_clust_7="13000.00000" pt_clust_8="13000.00000" pt_clust_9="23.16775" pt_clust_10="13000.00000"></scales>
<clustering>
<clus scale="   23.168">  2  9  1 -1</clus>
<clus scale="   81.602">  5  6 -1 -1</clus>
<clus scale="   92.520">  7  8 -1 -1</clus>
<clus scale="   73.111">  7 10 -1 -1</clus>
<clus scale="  136.973">  1  5  2 -1</clus>
<clus scale="   23.168">  2  5  1 -1</clus>
</clustering>
</event>
<event>
10    4  0.2759992E-005  0.2528939E+03  0.7546771E-02  0.1118799E+00
          2   -1    0    0  503    0 -0.00000000000E+00  0.00000000000E+00  0.79567036747E+03  0.79567036747E+03  0.00000000000E+00 0. -1.
         21   -1    0    0  501  502  0.00000000000E+00 -0.00000000000E+00 -0.14658966944E+03  0.14658966944E+03  0.00000000000E+00 0. -1.
         24    2    1    2    0    0 -0.16919282621E+03  0.10478168302E+03  0.58333399599E+03  0.62189380521E+03  0.82873038720E+02 0.  0.
         23    2    1    2    0    0  0.43356050547E+02 -0.46108135961E+01  0.30091985674E+02  0.10491340700E+03  0.90555445149E+02 0.  0.
        -13    1    3    3    0    0 -0.10651332604E+03  0.76256570994E+02  0.25800118213E+03  0.28935231678E+03  0.00000000000E+00 0.  1.
         14    1    3    3    0    0 -0.62679500177E+02  0.28525112030E+02  0.32533281386E+03  0.33254148844E+03  0.00000000000E+00 0. -1.
        -11    1    4    4    0    0 -0.20811008560E+02 -0.41899311261E+01 -0.15424894176E+02  0.26240826216E+02  0.00000000000E+00 0. -1.
         11    1    4    4    0    0  0.64167059108E+02 -0.42088247000E+00  0.45516879850E+02  0.78672580788E+02  0.00000000000E+00 0.  1.
         21    1    1    2  503  502  0.23127088926E+02 -0.15198874934E+02 -0.49897907390E+02  0.57058471793E+02  0.00000000000E+00 0. -1.
          1    1    1    2  501    0  0.10270968674E+03 -0.84971994493E+02  0.85552623761E+02  0.15839435290E+03  0.00000000000E+00 0. -1.
<scales pt_clust_5="13000.00000" pt_clust_6="13000.00000" pt_clust_7="13000.00000" pt_clust_8="13000.00000" pt_clust_9="27.67432" pt_clust_10="13000.00000"></scales>
<clustering>
<clus scale="   27.674">  2  9  1 -1</clus>
<clus scale="   82.873">  5  6 -1 -1</clus>
<clus scale="   90.555">  7  8 -1 -1</clus>
<clus scale="  144.067">  7 10 -1 -1</clus>
<clus scale="  210.300">  1  5  2 -1</clus>
<clus scale="   27.674">  2  5  1 -1</clus>
</clustering>
</event>
<event>
10    4  0.2759992E-005  0.2666092E+03  0.7546771E-02  0.1148841E+00
         -1   -1    0    0    0  501 -0.00000000000E+00  0.00000000000E+00  0.46003036074E+02  0.46003036074E+02  0.00000000000E+00 0.  1.
         21   -1    0    0  503  502  0.00000000000E+00 -0.00000000000E+00 -0.83079050577E+03  0.83079050577E+03  0.00000000000E+00 0.  1.
         24    2    1    2    0    0  0.14424874817E+02  0.29567838768E+02 -0.11952679364E+03  0.14733550472E+03  0.79616345368E+02 0.  0.
         23    2    1    2    0    0  0.38489567553E+02  0.78217901291E+02 -0.17320597401E+03  0.21426252527E+03  0.91151705465E+02 0.  0.
        -13    1    3    3    0    0 -0.15254035175E+02  0.25922549324E+02 -0.11272634860E+03  0.11667002109E+03  0.00000000000E+00 0.  1.
         14    1    3    3    0    0  0.29678909992E+02  0.36452894440E+01 -0.68004450417E+01  0.30665483629E+02  0.00000000000E+00 0. -1.
        -13    1    4    4    0    0  0.22078899473E+02  0.95303718275E+02 -0.11243171742E+03  0.14903411556E+03  0.00000000000E+00 0.  1.
         13    1    4    4    0    0  0.16410668080E+02 -0.17085816985E+02 -0.60774256594E+02  0.65228409711E+02  0.00000000000E+00 0. -1.
         21    1    1    2  503  501  0.26307908691E+02 -0.13889236928E+02 -0.89890279912E+02  0.94685159264E+02  0.00000000000E+00 0.  1.
         -2    1    1    2    0  502 -0.79222351060E+02 -0.93896503131E+02 -0.40216442213E+03  0.42051035259E+03  0.00000000000E+00 0.  1.
<scales pt_clust_5="13000.00000" pt_clust_6="13000.00000" pt_clust_7="13000.00000" pt_clust_8="13000.00000" pt_clust_9="29.74923" pt_clust_10="13000.00000"></scales>
<clustering>
<clus scale="   29.749">  2  9  1 -1</clus>
<clus scale="   79.616">  5  6 -1 -1</clus>
<clus scale="   86.248">  1  5  2 -1</clus>
<clus scale="   91.152">  7  8 -1 -1</clus>
<clus scale="  109.813">  7 10 -1 -1</clus>
<clus scale="   29.749">  2  5  1 -1</clus>
</clustering>
</event>
<event>
10    4  0.2759992E-005  0.2046858E+03  0.7546771E-02  0.1184583E+00
          2   -1    0    0  503    0 -0.00000000000E+00  0.00000000000E+00  0.67693790662E+03  0.67693790662E+03  0.00000000000E+00 0. -1.
         21   -1    0    0  501  502  0.00000000000E+00 -0.00000000000E+00 -0.56338554461E+02  0.56338554461E+02  0.00000000000E+00 0. -1.
         24    2    1    2    0    0 -0.26774169418E+02 -0.96522502345E+00  0.20349913304E+03  0.22005406173E+03  0.79335396458E+02 0.  0.
         23    2    1    2    0    0  0.56568723977E+01 -0.22537139963E+02  0.95781387264E+02  0.13543869109E+03  0.92895866508E+02 0.  0.
        -13    1    3    3    0    0  0.57017187836E+01 -0.29387768876E+02  0.34714702186E+02  0.45839514662E+02  0.00000000000E+00 0.  1.
         14    1    3    3    0    0 -0.32475888202E+02  0.28422543852E+02  0.16878443085E+03  0.17421454707E+03  0.00000000000E+00 0. -1.
        -13    1    4    4    0    0  0.93144859079E+01  0.19196819059E+02 -0.85683009598E+01  0.22993331447E+02  0.00000000000E+00 0. -1.
         13    1    4    4    0    0 -0.36576135102E+01 -0.41733959022E+02  0.10434968822E+03  0.11244535964E+03  0.00000000000E+00 0.  1.
         21    1    1    2  503  502  0.95145864613E+02 -0.22309524513E+02  0.99375778054E+02  0.13937717066E+03  0.00000000000E+00 0. -1.
          1    1    1    2  501    0 -0.74028567592E+02  0.45811889500E+02  0.22194305380E+03  0.23840653760E+03  0.00000000000E+00 0. -1.
<scales pt_clust_5="13000.00000" pt_clust_6="13000.00000" pt_clust_7="13000.00000" pt_clust_8="13000.00000" pt_clust_9="91.11119" pt_clust_10="13000.00000"></scales>
<clustering>
<clus scale="   79.335">  5  6 -1 -1</clus>
<clus scale="   83.737">  1  5  2 -1</clus>
<clus scale="   91.111">  2  9  1 -1</clus>
<clus scale="   92.896">  7  8 -1 -1</clus>
<clus scale="   66.645">  7 10 -1 -1</clus>
<clus scale="   91.111">  2  5  1 -1</clus>
</clustering>
</event>
<event>
10    4  0.2759992E-005  0.1616160E+03  0.7546771E-02  0.1217133E+00
          2   -1    0    0  502    0 -0.00000000000E+00  0.00000000000E+00  0.14360061939E+03  0.14360061939E+03  0.00000000000E+00 0. -1.
         21   -1    0    0  503  502  0.00000000000E+00 -0.00000000000E+00 -0.29863979931E+03  0.29863979931E+03  0.00000000000E+00 0. -1.
         24    2    1    2    0    0 -0.50158433830E+01  0.28606136197E+02 -0.15556519316E+03  0.17752987372E+03  0.80454067795E+02 0.  0.
         23    2    1    2    0    0  0.31482665435E+02 -0.39994516829E+02  0.58739439325E+02  0.12055913083E+03  0.92159984238E+02 0.  0.
        -11    1    3    3    0    0 -0.25805276117E+02 -0.19984820662E+02 -0.62209501082E+02  0.70251885079E+02  0.00000000000E+00 0.  1.
         12    1    3    3    0    0  0.20789432734E+02  0.48590956859E+02 -0.93355692083E+02  0.10727798864E+03  0.00000000000E+00 0. -1.
        -11    1    4    4    0    0 -0.13545518437E+02  0.23685422844E+02  0.14721241562E+02  0.31003149488E+02  0.00000000000E+00 0.  1.
         11    1    4    4    0    0  0.45028183873E+02 -0.63679939674E+02  0.44018197763E+02  0.89555981341E+02  0.00000000000E+00 0. -1.
         21    1    1    2  503  501  0.24679167994E+02 -0.11770588489E+02 -0.79527792264E+02  0.84096836020E+02  0.00000000000E+00 0. -1.
          1    1    1    2  501    0 -0.51145990047E+02  0.23158969121E+02  0.21314366183E+02  0.60054578130E+02  0.00000000000E+00 0. -1.
<scales pt_clust_5="13000.00000" pt_clust_6="13000.00000" pt_clust_7="13000.00000" pt_clust_8="13000.00000" pt_clust_9="27.34242" pt_clust_10="13000.00000"></scales>
<clustering>
<clus scale="   27.342">  2  9  1 -1</clus>
<clus scale="   80.454">  5  6 -1 -1</clus>
<clus scale="   83.964">  1  5  2 -1</clus>
<clus scale="   92.160">  7  8 -1 -1</clus>
<clus scale="   52.803">  7 10 -1 -1</clus>
<clus scale="   27.342">  2  5  1 -1</clus>
</clustering>
</event>
<event>
10    4  0.2759992E-005  0.4419652E+03  0.7546771E-02  0.1044018E+00
          2   -1    0    0  503    0 -0.00000000000E+00  0.00000000000E+00  0.14593912922E+04  0.14593912922E+04  0.00000000000E+00 0. -1.
         21   -1    0    0  501  502  0.00000000000E+00 -0.00000000000E+00 -0.20301486760E+03  0.20301486760E+03  0.00000000000E+00 0.  1.
         24    2    1    2    0    0  0.17673498780E+03 -0.23394096729E+03  0.63761908779E+03  0.70610697024E+03  0.77880165754E+02 0.  0.
         23    2    1    2    0    0 -0.13594072565E+03 -0.51257467392E+02  0.29710104324E+03  0.34334714037E+03  0.92255189840E+02 0.  0.
        -11    1    3    3    0    0  0.15059850880E+03 -0.14317855780E+03  0.40945086858E+03  0.45916230686E+03  0.00000000000E+00 0.  1.
         12    1    3    3    0    0  0.26136479003E+02 -0.90762409489E+02  0.22816821922E+03  0.24694466338E+03  0.00000000000E+00 0. -1.
        -13    1    4    4    0    0 -0.42467172940E+02 -0.54300286853E+02  0.18458937869E+03  0.19704116487E+03  0.00000000000E+00 0. -1.
         13    1    4    4    0    0 -0.93473552707E+02  0.30428194607E+01  0.11251166456E+03  0.14630597550E+03  0.00000000000E+00 0.  1.
         21    1    1    2  503  502 -0.49995010153E+01  0.27822136403E+02 -0.10755569478E+03  0.11120833495E+03  0.00000000000E+00 0.  1.
          1    1    1    2  501    0 -0.35794761142E+02  0.25737629828E+03  0.42921198838E+03  0.50174371427E+03  0.00000000000E+00 0. -1.
<scales pt_clust_5="13000.00000" pt_clust_6="13000.00000" pt_clust_7="13000.00000" pt_clust_8="13000.00000" pt_clust_9="28.26776" pt_clust_10="13000.00000"></scales>
<clustering>
<clus scale="   28.268">  2  9  1 -1</clus>
<clus scale="   77.880">  5  6 -1 -1</clus>
<clus scale="   92.255">  7  8 -1 -1</clus>
<clus scale="  270.794">  7 10 -1 -1</clus>
<clus scale="  294.497">  1  5  2 -1</clus>
<clus scale="   28.268">  2  5  1 -1</clus>
</clustering>
</event>
<event>
10    4  0.2759992E-005  0.1891250E+03  0.7546771E-02  0.1192613E+00
         21   -1    0    0  501  502  0.00000000000E+00  0.00000000000E+00  0.60614468345E+02  0.60614468345E+02  0.00000000000E+00 0. -1.
          2   -1    0    0  503    0 -0.00000000000E+00 -0.00000000000E+00 -0.12532139303E+04  0.12532139303E+04  0.00000000000E+00 0. -1.
         24    2    1    2    0    0  0.11061461411E+02  0.34704145972E+02 -0.96370926712E+03  0.96779068509E+03  0.80972371508E+02 0.  0.
         23    2    1    2    0    0 -0.70673850557E+02  0.29380860524E+02 -0.15319009206E+03  0.19433418549E+03  0.91872429097E+02 0.  0.
        -13    1    3    3    0    0 -0.11566838969E+02  0.27226174475E+02 -0.11489654898E+03  0.11864347141E+03  0.00000000000E+00 0.  1.
         14    1    3    3    0    0  0.22628300380E+02  0.74779714970E+01 -0.84881271814E+03  0.84914721369E+03  0.00000000000E+00 0. -1.
        -11    1    4    4    0    0 -0.12844641316E+02 -0.22746645275E+02 -0.45184095595E+01  0.26510577262E+02  0.00000000000E+00 0.  1.
         11    1    4    4    0    0 -0.57829209241E+02  0.52127505799E+02 -0.14867168250E+03  0.16782360823E+03  0.00000000000E+00 0. -1.
         21    1    1    2  503  502  0.21239642410E+02 -0.41611781062E+01  0.21984035606E+02  0.30850212876E+02  0.00000000000E+00 0. -1.
          1    1    1    2  501    0  0.38372746736E+02 -0.59923828390E+02 -0.97684138427E+02  0.12085331523E+03  0.00000000000E+00 0. -1.
<scales pt_clust_5="13000.00000" pt_clust_6="13000.00000" pt_clust_7="13000.00000" pt_clust_8="13000.00000" pt_clust_9="21.64342" pt_clust_10="13000.00000"></scales>
<clustering>
<clus scale="   21.643">  1  9  2 -1</clus>
<clus scale="   80.972">  5  6 -1 -1</clus>
<clus scale="   88.858">  2  5  1 -1</clus>
<clus scale="   91.872">  7  8 -1 -1</clus>
<clus scale="   68.661">  7 10 -1 -1</clus>
<clus scale="   21.643">  1  5  2 -1</clus>
</clustering>
</event>
<event>
10    4  0.2759992E-005  0.1732747E+03  0.7546771E-02  0.1185948E+00
         -3   -1    0    0    0  501 -0.00000000000E+00  0.00000000000E+00  0.57285964954E+03  0.57285964954E+03  0.00000000000E+00 0.  1.
         21   -1    0    0  501  502  0.00000000000E+00 -0.00000000000E+00 -0.57483684374E+03  0.57483684374E+03  0.00000000000E+00 0. -1.
         24    2    1    2    0    0  0.96502208739E+02  0.57359173582E+02  0.29229001676E+03  0.32280923820E+03  0.78546796763E+02 0.  0.
         23    2    1    2    0    0 -0.46785625187E+02 -0.85846970700E+02  0.11871784943E+03  0.17733897446E+03  0.88298284166E+02 0.  0.
        -13    1    3    3    0    0  0.84774700963E+01  0.43877421401E+02  0.66780660221E+02  0.80353918309E+02  0.00000000000E+00 0.  1.
         14    1    3    3    0    0  0.88024738642E+02  0.13481752180E+02  0.22550935654E+03  0.24245531989E+03  0.00000000000E+00 0. -1.
        -11    1    4    4    0    0 -0.21660051402E+02  0.73834393654E+01  0.60274906098E+02  0.64472764085E+02  0.00000000000E+00 0. -1.
         11    1    4    4    0    0 -0.25125573785E+02 -0.93230410066E+02  0.58442943330E+02  0.11286621037E+03  0.00000000000E+00 0.  1.
         21    1    1    2  503  502 -0.58667130655E+02  0.57106021776E+02 -0.52512486912E+03  0.53146877435E+03  0.00000000000E+00 0. -1.
         -4    1    1    2    0  503  0.89505471032E+01 -0.28618224657E+02  0.11213980872E+03  0.11607950627E+03  0.00000000000E+00 0.  1.
<scales pt_clust_5="13000.00000" pt_clust_6="13000.00000" pt_clust_7="13000.00000" pt_clust_8="13000.00000" pt_clust_9="81.87142" pt_clust_10="13000.00000"></scales>
<clustering>
<clus scale="   78.547">  5  6 -1 -1</clus>
<clus scale="   81.871">  2  9  1 -1</clus>
<clus scale="   88.298">  7  8 -1 -1</clus>
<clus scale="   26.988">  7 10 -1 -1</clus>
<clus scale="  133.897">  1  5  2 -1</clus>
<clus scale="   81.871">  2  5  1 -1</clus>
</clustering>
</event>
<event>
10    4  0.2759992E-005  0.1970291E+03  0.7546771E-02  0.1169725E+00
         21   -1    0    0  501  502  0.00000000000E+00  0.00000000000E+00  0.97571113400E+02  0.97571113400E+02  0.00000000000E+00 0. -1.
          2   -1    0    0  503    0 -0.00000000000E+00 -0.00000000000E+00 -0.15888518690E+04  0.15888518690E+04  0.00000000000E+00 0. -1.
         24    2    1    2    0    0 -0.99760620440E+02 -0.22091616127E+02 -0.11301422038E+04  0.11377473351E+04  0.82506828809E+02 0.  0.
         23    2    1    2    0    0 -0.15428828574E+02  0.13507414961E+03 -0.31146409296E+03  0.35186663444E+03  0.91198533882E+02 0.  0.
        -11    1    3    3    0    0 -0.37191792701E+02  0.27600948867E+02 -0.27420756762E+03  0.27809140936E+03  0.00000000000E+00 0.  1.
         12    1    3    3    0    0 -0.62568827738E+02 -0.49692564994E+02 -0.85593463620E+03  0.85965592574E+03  0.00000000000E+00 0. -1.
        -13    1    4    4    0    0 -0.11702245418E+02  0.55199922177E+02 -0.23337765482E+03  0.24010227763E+03  0.00000000000E+00 0.  1.
         13    1    4    4    0    0 -0.37265831560E+01  0.79874227434E+02 -0.78086438143E+02  0.11176435681E+03  0.00000000000E+00 0. -1.
         21    1    1    2  503  502  0.90057787957E+02 -0.12765609283E+03 -0.24113780548E+02  0.15807579708E+03  0.00000000000E+00 0. -1.
          1    1    1    2  501    0  0.25131661056E+02  0.14673559347E+02 -0.25560678291E+02  0.38733215798E+02  0.00000000000E+00 0. -1.
<scales pt_clust_5="13000.00000" pt_clust_6="13000.00000" pt_clust_7="13000.00000" pt_clust_8="13000.00000" pt_clust_9="149.52065" pt_clust_10="13000.00000"></scales>
<clustering>
<clus scale="   82.507">  5  6 -1 -1</clus>
<clus scale="   91.199">  7  8 -1 -1</clus>
<clus scale="   29.102">  7 10 -1 -1</clus>
<clus scale="  131.330">  2  5  1 -1</clus>
<clus scale="  149.521">  1  9  2 -1</clus>
<clus scale="  149.521">  1  5  2 -1</clus>
</clustering>
</event>
<event>
10    4  0.2759992E-005  0.1400018E+03  0.7546771E-02  0.1239181E+00
          2   -1    0    0  503    0 -0.00000000000E+00  0.00000000000E+00  0.61628598170E+03  0.61628598170E+03  0.00000000000E+00 0. -1.
         21   -1    0    0  501  502  0.00000000000E+00 -0.00000000000E+00 -0.15468863776E+03  0.15468863776E+03  0.00000000000E+00 0.  1.
         24    2    1    2    0    0  0.93471870633E+01  0.14232845740E+02  0.52600544291E+03  0.53235021170E+03  0.80156585013E+02 0.  0.
         23    2    1    2    0    0 -0.54037372175E+01 -0.23897006342E+02  0.57306571252E+02  0.10830545857E+03  0.88576305856E+02 0.  0.
        -11    1    3    3    0    0  0.27984196818E+02 -0.24487821294E+02  0.18968524977E+03  0.19329579055E+03  0.00000000000E+00 0.  1.
         12    1    3    3    0    0 -0.18637009755E+02  0.38720667034E+02  0.33632019314E+03  0.33905442115E+03  0.00000000000E+00 0. -1.
        -11    1    4    4    0    0 -0.36324424315E+02  0.11159210448E+02  0.46997230606E+02  0.60437831400E+02  0.00000000000E+00 0. -1.
         11    1    4    4    0    0  0.30920687098E+02 -0.35056216790E+02  0.10309340646E+02  0.47867627169E+02  0.00000000000E+00 0.  1.
         21    1    1    2  503  502 -0.19955381302E+02 -0.25671918796E+01 -0.93548908129E+02  0.95688065761E+02  0.00000000000E+00 0.  1.
          1    1    1    2  501    0  0.16011931456E+02  0.12231352482E+02 -0.28165762095E+02  0.34630883426E+02  0.00000000000E+00 0. -1.
<scales pt_clust_5="13000.00000" pt_clust_6="13000.00000" pt_clust_7="13000.00000" pt_clust_8="13000.00000" pt_clust_9="20.11983" pt_clust_10="13000.00000"></scales>
<clustering>
<clus scale="   20.120">  2  9  1 -1</clus>
<clus scale="   80.157">  5  6 -1 -1</clus>
<clus scale="   81.808">  1  5  2 -1</clus>
<clus scale="   88.576">  7  8 -1 -1</clus>
<clus scale="   12.731">  7 10 -1 -1</clus>
<clus scale="   20.120">  2  5  1 -1</clus>
</clustering>
</event>
<event>
10    4  0.2759992E-005  0.1509070E+03  0.7546771E-02  0.1210103E+00
         21   -1    0    0  501  502  0.00000000000E+00  0.00000000000E+00  0.47249819600E+02  0.47249819600E+02  0.00000000000E+00 0.  1.
          2   -1    0    0  503    0 -0.00000000000E+00 -0.00000000000E+00 -0.59961213065E+03  0.59961213065E+03  0.00000000000E+00 0. -1.
         24    2    1    2    0    0 -0.80055470409E+01 -0.73130414837E+02 -0.16572594088E+03  0.19853071824E+03  0.80853028696E+02 0.  0.
         23    2    1    2    0    0  0.12154000262E+02  0.85581842353E+02 -0.26505172502E+03  0.29348397910E+03  0.91697642239E+02 0.  0.
        -13    1    3    3    0    0 -0.10058735010E+02 -0.25031517233E+02 -0.10886171246E+01  0.26998890574E+02  0.00000000000E+00 0.  1.
         14    1    3    3    0    0  0.20531879692E+01 -0.48098897605E+02 -0.16463732375E+03  0.17153182767E+03  0.00000000000E+00 0. -1.
        -11    1    4    4    0    0  0.22287141549E+02  0.10325138875E+03 -0.22028674912E+03  0.24430271753E+03  0.00000000000E+00 0. -1.
         11    1    4    4    0    0 -0.10133141287E+02 -0.17669546398E+02 -0.44764975902E+02  0.49181261571E+02  0.00000000000E+00 0.  1.
         21    1    1    2  503  502  0.22431821722E+02 -0.30311673103E+02 -0.10363014070E+02  0.39107239901E+02  0.00000000000E+00 0. -1.
          1    1    1    2  501    0 -0.26580274943E+02  0.17860245588E+02 -0.11122163108E+03  0.11574001300E+03  0.00000000000E+00 0. -1.
<scales pt_clust_5="13000.00000" pt_clust_6="13000.00000" pt_clust_7="13000.00000" pt_clust_8="13000.00000" pt_clust_9="37.70921" pt_clust_10="13000.00000"></scales>
<clustering>
<clus scale="   37.709">  1  9  2 -1</clus>
<clus scale="   80.853">  5  6 -1 -1</clus>
<clus scale="   91.698">  7  8 -1 -1</clus>
<clus scale="   29.595">  7 10 -1 -1</clus>
<clus scale="  119.733">  2  5  1 -1</clus>
<clus scale="   37.709">  1  5  2 -1</clus>
</clustering>
</event>
<event>
10    4  0.2759992E-005  0.3615851E+03  0.7546771E-02  0.1083478E+00
          2   -1    0    0  503    0 -0.00000000000E+00  0.00000000000E+00  0.98908775018E+03  0.98908775018E+03  0.00000000000E+00 0. -1.
         21   -1    0    0  501  502  0.00000000000E+00 -0.00000000000E+00 -0.96020419916E+02  0.96020419916E+02  0.00000000000E+00 0. -1.
         24    2    1    2    0    0  0.33924215106E+02 -0.16373450125E+03  0.11636421112E+03  0.22013608206E+03  0.83423172573E+02 0.  0.
         23    2    1    2    0    0  0.11368513836E+03  0.23811235554E+02  0.39243993913E+03  0.42081063452E+03  0.97883597601E+02 0.  0.
        -13    1    3    3    0    0  0.31330604210E+02 -0.38963274297E+02  0.72061629192E+02  0.87707593206E+02  0.00000000000E+00 0.  1.
         14    1    3    3    0    0  0.25936108956E+01 -0.12477122696E+03  0.44302581928E+02  0.13242848885E+03  0.00000000000E+00 0. -1.
        -11    1    4    4    0    0  0.72574162493E+02 -0.96940510270E+01  0.33383911366E+03  0.34177410302E+03  0.00000000000E+00 0. -1.
         11    1    4    4    0    0  0.41110975867E+02  0.33505286581E+02  0.58600825466E+02  0.79036531496E+02  0.00000000000E+00 0.  1.
         21    1    1    2  503  502  0.12165558469E+02  0.17945565138E+02  0.40651195609E+02  0.46071290685E+02  0.00000000000E+00 0. -1.
          1    1    1    2  501    0 -0.15977491193E+03  0.12197770056E+03  0.34361198441E+03  0.39809016284E+03  0.00000000000E+00 0. -1.
<scales pt_clust_5="13000.00000" pt_clust_6="13000.00000" pt_clust_7="13000.00000" pt_clust_8="13000.00000" pt_clust_9="21.68051" pt_clust_10="13000.00000"></scales>
<clustering>
<clus scale="   21.681">  2  9  1 -1</clus>
<clus scale="   83.423">  5  6 -1 -1</clus>
<clus scale="   97.884">  7  8 -1 -1</clus>
<clus scale="  179.599">  1  5  2 -1</clus>
<clus scale="  147.557">  7 10 -1 -1</clus>
<clus scale="   21.681">  2  5  1 -1</clus>
</clustering>
</event>
<event>
10    4  0.2759992E-005  0.2763083E+03  0.7546771E-02  0.1135265E+00
          2   -1    0    0  503    0 -0.00000000000E+00  0.00000000000E+00  0.39367296667E+03  0.39367296667E+03  0.00000000000E+00 0. -1.
         21   -1    0    0  501  502  0.00000000000E+00 -0.00000000000E+00 -0.33736474045E+03  0.33736474045E+03  0.00000000000E+00 0. -1.
         24    2    1    2    0    0  0.15506588237E+02 -0.68847838982E+02  0.27404060754E+03  0.29381193723E+03  0.79036198477E+02 0.  0.
         23    2    1    2    0    0 -0.10701719694E+03  0.87423743614E+02 -0.35639378127E+01  0.16273060881E+03  0.85865930388E+02 0.  0.
        -13    1    3    3    0    0  0.15975559710E+02  0.13118375796E+02  0.89997206911E+02  0.92340714440E+02  0.00000000000E+00 0.  1.
         14    1    3    3    0    0 -0.46897147275E+00 -0.81966214778E+02  0.18404340063E+03  0.20147122279E+03  0.00000000000E+00 0. -1.
        -11    1    4    4    0    0 -0.40899076741E+02  0.23060271088E+02 -0.41787051133E+02  0.62854341324E+02  0.00000000000E+00 0.  1.
         11    1    4    4    0    0 -0.66118120198E+02  0.64363472526E+02  0.38223113320E+02  0.99876267482E+02  0.00000000000E+00 0. -1.
         21    1    1    2  503  502 -0.13489252990E+02 -0.49461337319E+02 -0.11855447398E+03  0.12916480611E+03  0.00000000000E+00 0. -1.
          1    1    1    2  501    0  0.10499986169E+03  0.30885432688E+02 -0.95613969521E+02  0.14533035497E+03  0.00000000000E+00 0. -1.
<scales pt_clust_5="13000.00000" pt_clust_6="13000.00000" pt_clust_7="13000.00000" pt_clust_8="13000.00000" pt_clust_9="51.26777" pt_clust_10="13000.00000"></scales>
<clustering>
<clus scale="   51.268">  2  9  1 -1</clus>
<clus scale="   79.036">  5  6 -1 -1</clus>
<clus scale="   85.866">  7  8 -1 -1</clus>
<clus scale="   97.434">  7 10 -1 -1</clus>
<clus scale="  107.372">  1  5  2 -1</clus>
<clus scale="   51.268">  2  5  1 -1</clus>
</clustering>
</event>
<event>
10    4  0.2759992E-005  0.4859733E+03  0.7546771E-02  0.1061205E+00
          2   -1    0    0  503    0 -0.00000000000E+00  0.00000000000E+00  0.47505390958E+03  0.47505390958E+03  0.00000000000E+00 0. -1.
         21   -1    0    0  501  502  0.00000000000E+00 -0.00000000000E+00 -0.64585721889E+03  0.64585721889E+03  0.00000000000E+00 0.  1.
         24    2    1    2    0    0 -0.15721732788E+02 -0.10903256738E+03  0.35897455766E+03  0.38397646244E+03  0.80249093596E+02 0.  0.
         23    2    1    2    0    0 -0.11768940779E+03  0.20162191734E+03 -0.47702242205E+03  0.53882687446E+03  0.91004479270E+02 0.  0.
        -13    1    3    3    0    0 -0.26068336544E+02 -0.28535202799E+02  0.43321302251E+02  0.58056448373E+02  0.00000000000E+00 0.  1.
         14    1    3    3    0    0  0.10346603755E+02 -0.80497364583E+02  0.31565325541E+03  0.32592001406E+03  0.00000000000E+00 0. -1.
        -11    1    4    4    0    0 -0.11394270299E+01  0.46257975825E+02 -0.42307892264E+02  0.62698136888E+02  0.00000000000E+00 0. -1.
         11    1    4    4    0    0 -0.11654998076E+03  0.15536394152E+03 -0.43471452978E+03  0.47612873757E+03  0.00000000000E+00 0.  1.
         21    1    1    2  503  502  0.25424954473E+02  0.14615101140E+02 -0.33829983687E+02  0.44771612519E+02  0.00000000000E+00 0.  1.
          1    1    1    2  501    0  0.10798618611E+03 -0.10720445110E+03 -0.18925461239E+02  0.15333617906E+03  0.00000000000E+00 0. -1.
<scales pt_clust_5="13000.00000" pt_clust_6="13000.00000" pt_clust_7="13000.00000" pt_clust_8="13000.00000" pt_clust_9="29.32626" pt_clust_10="13000.00000"></scales>
<clustering>
<clus scale="   29.326">  2  9  1 -1</clus>
<clus scale="   80.249">  5  6 -1 -1</clus>
<clus scale="   91.004">  7  8 -1 -1</clus>
<clus scale="  135.990">  1  5  2 -1</clus>
<clus scale="  204.394">  7 10 -1 -1</clus>
<clus scale="   29.326">  2  5  1 -1</clus>
</clustering>
</event>
<event>
10    4  0.2759992E-005  0.1856749E+03  0.7546771E-02  0.1165546E+00
         21   -1    0    0  503  502  0.00000000000E+00  0.00000000000E+00  0.18976947019E+03  0.18976947019E+03  0.00000000000E+00 0. -1.
          2   -1    0    0  502    0 -0.00000000000E+00 -0.00000000000E+00 -0.23987391613E+03  0.23987391613E+03  0.00000000000E+00 0. -1.
         24    2    1    2    0    0  0.12251746456E+03  0.10362001934E+03 -0.72814605419E+02  0.19435875579E+03  0.82010497249E+02 0.  0.
         23    2    1    2    0    0 -0.57744626408E+02 -0.92145517162E+02  0.89465698384E+01  0.14248080787E+03  0.91626968119E+02 0.  0.
        -13    1    3    3    0    0  0.45219037982E+02  0.45246654473E+02 -0.73571519940E+02  0.97492510909E+02  0.00000000000E+00 0.  1.
         14    1    3    3    0    0  0.77298426583E+02  0.58373364865E+02  0.75691452124E+00  0.96866244881E+02  0.00000000000E+00 0. -1.
        -11    1    4    4    0    0  0.20896173048E+02 -0.33231830604E+02 -0.13819459002E+02  0.41617088562E+02  0.00000000000E+00 0.  1.
         11    1    4    4    0    0 -0.78640799456E+02 -0.58913686559E+02  0.22766028840E+02  0.10086371931E+03  0.00000000000E+00 0. -1.
         21    1    1    2  503  501 -0.46964356887E+02  0.19127780576E+02  0.23777790868E+02  0.56008090006E+02  0.00000000000E+00 0. -1.
          1    1    1    2  501    0 -0.17808481270E+02 -0.30602282753E+02 -0.10014201226E+02  0.36795732647E+02  0.00000000000E+00 0. -1.
<scales pt_clust_5="13000.00000" pt_clust_6="13000.00000" pt_clust_7="13000.00000" pt_clust_8="13000.00000" pt_clust_9="50.71018" pt_clust_10="13000.00000"></scales>
<clustering>
<clus scale="   50.710">  1  9  2 -1</clus>
<clus scale="   82.010">  5  6 -1 -1</clus>
<clus scale="   91.627">  7  8 -1 -1</clus>
<clus scale="   36.318">  7 10 -1 -1</clus>
<clus scale="  172.735">  2  5  1 -1</clus>
<clus scale="   50.710">  1  5  2 -1</clus>
</clustering>
</event>
<event>
10    4  0.2759992E-005  0.4425316E+03  0.7546771E-02  0.1087889E+00
          2   -1    0    0  503    0 -0.00000000000E+00  0.00000000000E+00  0.78558004722E+03  0.78558004722E+03  0.00000000000E+00 0. -1.
         21   -1    0    0  501  502  0.00000000000E+00 -0.00000000000E+00 -0.10199170771E+03  0.10199170771E+03  0.00000000000E+00 0. -1.
         24    2    1    2    0    0 -0.24605709568E+02  0.11198069319E+02  0.50196218068E+02  0.98898580920E+02  0.80811084016E+02 0.  0.
         23    2    1    2    0    0  0.22622046352E+03 -0.26398102335E+02  0.24554819683E+03  0.34705523441E+03  0.90999235391E+02 0.  0.
        -13    1    3    3    0    0  0.23504397066E+02  0.49738688964E+01  0.43815172814E+02  0.49969645005E+02  0.00000000000E+00 0.  1.
         14    1    3    3    0    0 -0.48110106634E+02  0.62242004225E+01  0.63810452542E+01  0.48928935915E+02  0.00000000000E+00 0. -1.
        -11    1    4    4    0    0  0.20192736140E+03 -0.52261993115E+02  0.22113326345E+03  0.30398338016E+03  0.00000000000E+00 0. -1.
         11    1    4    4    0    0  0.24293102113E+02  0.25863890780E+02  0.24414933382E+02  0.43071854251E+02  0.00000000000E+00 0.  1.
         21    1    1    2  503  502 -0.21930878376E+02  0.34153672599E+01  0.12890595709E+02  0.25667014193E+02  0.00000000000E+00 0. -1.
          1    1    1    2  501    0 -0.17968387557E+03  0.11784665756E+02  0.37495332891E+03  0.41595092541E+03  0.00000000000E+00 0. -1.
<scales pt_clust_5="13000.00000" pt_clust_6="13000.00000" pt_clust_7="13000.00000" pt_clust_8="13000.00000" pt_clust_9="22.19523" pt_clust_10="13000.00000"></scales>
<clustering>
<clus scale="   22.195">  2  9  1 -1</clus>
<clus scale="   80.811">  5  6 -1 -1</clus>
<clus scale="   87.107">  1  5  2 -1</clus>
<clus scale="   90.999">  7  8 -1 -1</clus>
<clus scale="  203.484">  7 10 -1 -1</clus>
<clus scale="   22.195">  2  5  1 -1</clus>
</clustering>
</event>
<event>
10    4  0.2759992E-005  0.2077053E+03  0.7546771E-02  0.1175940E+00
          2   -1    0    0  502    0 -0.00000000000E+00  0.00000000000E+00  0.61025715075E+02  0.61025715075E+02  0.00000000000E+00 0. -1.
         21   -1    0    0  503  502  0.00000000000E+00 -0.00000000000E+00 -0.48111524435E+03  0.48111524435E+03  0.00000000000E+00 0.  1.
         24    2    1    2    0    0  0.47284011922E+02  0.64261569882E+02 -0.19817385919E+03  0.22347980517E+03  0.65612633741E+02 0.  0.
         23    2    1    2    0    0  0.42834778869E+02 -0.51254805653E+02 -0.18730718862E+03  0.21862774074E+03  0.90841800544E+02 0.  0.
        -11    1    3    3    0    0  0.52937816173E+02  0.34950794549E+02 -0.17356148118E+03  0.18479057923E+03  0.00000000000E+00 0.  1.
         12    1    3    3    0    0 -0.56538042510E+01  0.29310775332E+02 -0.24612378010E+02  0.38689225947E+02  0.00000000000E+00 0. -1.
        -11    1    4    4    0    0  0.46472267190E+02  0.13082886172E+02 -0.83031863612E+02  0.96047508574E+02  0.00000000000E+00 0.  1.
         11    1    4    4    0    0 -0.36374883210E+01 -0.64337691825E+02 -0.10427532501E+03  0.12258023216E+03  0.00000000000E+00 0. -1.
         21    1    1    2  503  501 -0.22920113776E+02 -0.53185719934E+01 -0.19898895399E+02  0.30815334846E+02  0.00000000000E+00 0.  1.
          1    1    1    2  501    0 -0.67198677014E+02 -0.76881922354E+01 -0.14709586058E+02  0.69218078667E+02  0.00000000000E+00 0. -1.
<scales pt_clust_5="13000.00000" pt_clust_6="13000.00000" pt_clust_7="13000.00000" pt_clust_8="13000.00000" pt_clust_9="23.52912" pt_clust_10="13000.00000"></scales>
<clustering>
<clus scale="   23.529">  2  9  1 -1</clus>
<clus scale="   65.613">  5  6 -1 -1</clus>
<clus scale="   90.842">  7  8 -1 -1</clus>
<clus scale="   69.790">  7 10 -1 -1</clus>
<clus scale="   97.314">  1  5  2 -1</clus>
<clus scale="   23.529">  2  5  1 -1</clus>
</clustering>
</event>
<event>
10    4  0.2759992E-005  0.2397901E+03  0.7546771E-02  0.1149741E+00
         21   -1    0    0  503  502  0.00000000000E+00  0.00000000000E+00  0.44576844012E+02  0.44576844012E+02  0.00000000000E+00 0. -1.
          2   -1    0    0  502    0 -0.00000000000E+00 -0.00000000000E+00 -0.11999505054E+04  0.11999505054E+04  0.00000000000E+00 0. -1.
         24    2    1    2    0    0 -0.70751234691E+02  0.27483211442E+02 -0.56338118786E+03  0.57433576627E+03  0.81866632190E+02 0.  0.
         23    2    1    2    0    0  0.52918171860E+02 -0.13828767391E+02 -0.89824528910E+02  0.13902771902E+03  0.90932353660E+02 0.  0.
        -13    1    3    3    0    0 -0.33827303787E+02  0.86423136141E+01 -0.61294031395E+02  0.70540303025E+02  0.00000000000E+00 0.  1.
         14    1    3    3    0    0 -0.36923930904E+02  0.18840897828E+02 -0.50208715646E+03  0.50379546325E+03  0.00000000000E+00 0. -1.
        -11    1    4    4    0    0  0.22228832290E+02  0.82162121080E+01 -0.97611565047E+02  0.10044722374E+03  0.00000000000E+00 0.  1.
         11    1    4    4    0    0  0.30689339570E+02 -0.22044979499E+02  0.77870361370E+01  0.38580495281E+02  0.00000000000E+00 0. -1.
         21    1    1    2  503  501 -0.28225684586E+02  0.29153364679E+02 -0.20599762389E+02  0.45507781235E+02  0.00000000000E+00 0. -1.
          1    1    1    2  501    0  0.46058747417E+02 -0.42807808730E+02 -0.48156818219E+03  0.48565608284E+03  0.00000000000E+00 0. -1.
<scales pt_clust_5="13000.00000" pt_clust_6="13000.00000" pt_clust_7="13000.00000" pt_clust_8="13000.00000" pt_clust_9="40.57842" pt_clust_10="13000.00000"></scales>
<clustering>
<clus scale="   40.578">  1  9  2 -1</clus>
<clus scale="   81.867">  5  6 -1 -1</clus>
<clus scale="   90.932">  7  8 -1 -1</clus>
<clus scale="   60.302">  7 10 -1 -1</clus>
<clus scale="  116.040">  2  5  1 -1</clus>
<clus scale="   40.578">  1  5  2 -1</clus>
</clustering>
</event>
<event>
10    4  0.2759992E-005  0.3805962E+03  0.7546771E-02  0.1099979E+00
         21   -1    0    0  501  502  0.00000000000E+00  0.00000000000E+00  0.43755276319E+02  0.43755276319E+02  0.00000000000E+00 0. -1.
          2   -1    0    0  503    0 -0.00000000000E+00 -0.00000000000E+00 -0.15347158973E+04  0.15347158973E+04  0.00000000000E+00 0. -1.
         24    2    1    2    0    0  0.54683979409E+02 -0.27333155101E+02 -0.23968777506E+03  0.25989333594E+03  0.79730029356E+02 0.  0.
         23    2    1    2    0    0  0.12506193236E+03 -0.14399509527E+02 -0.28026793277E+03  0.32004970008E+03  0.89631822371E+02 0.  0.
        -13    1    3    3    0    0  0.10224439632E+02 -0.30311642596E+02 -0.24916435411E+02  0.40548287217E+02  0.00000000000E+00 0.  1.
         14    1    3    3    0    0  0.44459539777E+02  0.29784874948E+01 -0.21477133965E+03  0.21934504872E+03  0.00000000000E+00 0. -1.
        -13    1    4    4    0    0  0.75380377945E+02 -0.14568486116E+02 -0.25079515444E+03  0.26228353295E+03  0.00000000000E+00 0.  1.
         13    1    4    4    0    0  0.49681554416E+02  0.16897658977E+00 -0.29472778330E+02  0.57766167129E+02  0.00000000000E+00 0. -1.
         21    1    1    2  503  502  0.56725365314E+01  0.25480962011E+02 -0.32212072417E+02  0.41461725786E+02  0.00000000000E+00 0. -1.
          1    1    1    2  501    0 -0.18541844830E+03  0.16251702616E+02 -0.93879284077E+03  0.95706641185E+03  0.00000000000E+00 0. -1.
<scales pt_clust_5="13000.00000" pt_clust_6="13000.00000" pt_clust_7="13000.00000" pt_clust_8="13000.00000" pt_clust_9="26.10473" pt_clust_10="13000.00000"></scales>
<clustering>
<clus scale="   26.105">  1  9  2 -1</clus>
<clus scale="   79.730">  5  6 -1 -1</clus>
<clus scale="   89.632">  7  8 -1 -1</clus>
<clus scale="   99.701">  2  5  1 -1</clus>
<clus scale="  142.652">  7 10 -1 -1</clus>
<clus scale="   26.105">  1  5  2 -1</clus>
</clustering>
</event>
<event>
10    4  0.2759992E-005  0.1641807E+03  0.7546771E-02  0.1194711E+00
         21   -1    0    0  503  502  0.00000000000E+00  0.00000000000E+00  0.26114087217E+03  0.26114087217E+03  0.00000000000E+00 0. -1.
          2   -1    0    0  502    0 -0.00000000000E+00 -0.00000000000E+00 -0.16804580003E+03  0.16804580003E+03  0.00000000000E+00 0. -1.
         24    2    1    2    0    0 -0.92780313544E+02 -0.71563318595E+02  0.37109590488E+02  0.14737252867E+03  0.81314484267E+02 0.  0.
         23    2    1    2    0    0  0.44598404649E+02  0.76674383514E+02 -0.39377777420E+02  0.13307673256E+03  0.91053987333E+02 0.  0.
        -11    1    3    3    0    0 -0.64126584337E+02 -0.88389156072E+01 -0.76155576952E+01  0.65179306278E+02  0.00000000000E+00 0.  1.
         12    1    3    3    0    0 -0.28653729207E+02 -0.62724402988E+02  0.44725148184E+02  0.82193222395E+02  0.00000000000E+00 0. -1.
        -13    1    4    4    0    0  0.45467289063E+02  0.32075988051E+01  0.71119772561E+01  0.46131803404E+02  0.00000000000E+00 0.  1.
         13    1    4    4    0    0 -0.86888441434E+00  0.73466784709E+02 -0.46489754677E+02  0.86944929153E+02  0.00000000000E+00 0. -1.
         21    1    1    2  503  501  0.23046583339E+02  0.12683347758E+02  0.11108687461E+03  0.11415912589E+03  0.00000000000E+00 0. -1.
          1    1    1    2  501    0  0.25135325556E+02 -0.17794412677E+02 -0.15723615534E+02  0.34578285076E+02  0.00000000000E+00 0. -1.
<scales pt_clust_5="13000.00000" pt_clust_6="13000.00000" pt_clust_7="13000.00000" pt_clust_8="13000.00000" pt_clust_9="26.30613" pt_clust_10="13000.00000"></scales>
<clustering>
<clus scale="   26.306">  1  9  2 -1</clus>
<clus scale="   81.314">  5  6 -1 -1</clus>
<clus scale="   91.054">  7  8 -1 -1</clus>
<clus scale="   31.561">  7 10 -1 -1</clus>
<clus scale="  129.711">  2  5  1 -1</clus>
<clus scale="   26.306">  1  5  2 -1</clus>
</clustering>
</event>
<event>
10    4  0.2759992E-005  0.4161690E+03  0.7546771E-02  0.1076344E+00
          2   -1    0    0  503    0 -0.00000000000E+00  0.00000000000E+00  0.29805610983E+03  0.29805610983E+03  0.00000000000E+00 0. -1.
         21   -1    0    0  501  502  0.00000000000E+00 -0.00000000000E+00 -0.42923110104E+03  0.42923110104E+03  0.00000000000E+00 0. -1.
         24    2    1    2    0    0  0.99786687209E+02  0.55296853057E+02 -0.24327070785E+02  0.14334695203E+03  0.83315168980E+02 0.  0.
         23    2    1    2    0    0 -0.94557159491E+02 -0.27000287791E+03 -0.11920350859E+03  0.32304496470E+03  0.91137052087E+02 0.  0.
        -13    1    3    3    0    0  0.74211324630E+02 -0.63476068764E+01 -0.14656074108E+02  0.75910561351E+02  0.00000000000E+00 0.  1.
         14    1    3    3    0    0  0.25575362579E+02  0.61644459934E+02 -0.96709966764E+01  0.67436390683E+02  0.00000000000E+00 0. -1.
        -11    1    4    4    0    0 -0.66011410006E+02 -0.64337735235E+02 -0.28715798469E+02  0.96547643720E+02  0.00000000000E+00 0.  1.
         11    1    4    4    0    0 -0.28545749484E+02 -0.20566514268E+03 -0.90487710117E+02  0.22649732098E+03  0.00000000000E+00 0. -1.
         21    1    1    2  503  502 -0.75905121214E+02  0.11389043068E+03 -0.24356639272E+01  0.13688882381E+03  0.00000000000E+00 0. -1.
          1    1    1    2  501    0  0.70675593495E+02  0.10081559418E+03  0.14791252087E+02  0.12400647033E+03  0.00000000000E+00 0. -1.
<scales pt_clust_5="13000.00000" pt_clust_6="13000.00000" pt_clust_7="13000.00000" pt_clust_8="13000.00000" pt_clust_9="136.86722" pt_clust_10="13000.00000"></scales>
<clustering>
<clus scale="   83.315">  5  6 -1 -1</clus>
<clus scale="   91.137">  7  8 -1 -1</clus>
<clus scale="  123.121">  7 10 -1 -1</clus>
<clus scale="  136.867">  2  9  1 -1</clus>
<clus scale="  142.757">  1  5  2 -1</clus>
<clus scale="  136.867">  2  5  1 -1</clus>
</clustering>
</event>
<event>
10    4  0.2759992E-005  0.3417227E+03  0.7546771E-02  0.1109406E+00
         21   -1    0    0  503  502  0.00000000000E+00  0.00000000000E+00  0.26651631634E+03  0.26651631634E+03  0.00000000000E+00 0.  1.
          2   -1    0    0  502    0 -0.00000000000E+00 -0.00000000000E+00 -0.13875735484E+04  0.13875735484E+04  0.00000000000E+00 0. -1.
         24    2    1    2    0    0 -0.16670609883E+02  0.70673349804E+02 -0.11949472380E+03  0.16112394954E+03  0.80058144436E+02 0.  0.
         23    2    1    2    0    0 -0.20333906793E+03  0.51688942827E+02 -0.11457938769E+04  0.11683150039E+04  0.89987868412E+02 0.  0.
        -11    1    3    3    0    0 -0.46880292286E+02  0.51523214854E+02 -0.61167738176E+02  0.92703266756E+02  0.00000000000E+00 0.  1.
         12    1    3    3    0    0  0.30209682403E+02  0.19150134950E+02 -0.58326985629E+02  0.68420682780E+02  0.00000000000E+00 0. -1.
        -11    1    4    4    0    0 -0.43324506551E+02  0.44346189133E+02 -0.21189529680E+03  0.22077865423E+03  0.00000000000E+00 0.  1.
         11    1    4    4    0    0 -0.16001456138E+03  0.73427536946E+01 -0.93389858014E+03  0.94753634963E+03  0.00000000000E+00 0. -1.
         21    1    1    2  503  501  0.23380986461E+03 -0.98467063627E+02  0.15229910573E+03  0.29590172864E+03  0.00000000000E+00 0.  1.
          1    1    1    2  501    0 -0.13800186794E+02 -0.23895229005E+02 -0.80677370499E+01  0.28749182699E+02  0.00000000000E+00 0. -1.
<scales pt_clust_5="13000.00000" pt_clust_6="13000.00000" pt_clust_7="13000.00000" pt_clust_8="13000.00000" pt_clust_9="251.25745" pt_clust_10="13000.00000"></scales>
<clustering>
<clus scale="   80.058">  5  6 -1 -1</clus>
<clus scale="   89.988">  7  8 -1 -1</clus>
<clus scale="   27.594">  7 10 -1 -1</clus>
<clus scale="  108.083">  2  5  1 -1</clus>
<clus scale="  251.257">  1  9  2 -1</clus>
<clus scale="  251.257">  1  5  2 -1</clus>
</clustering>
</event>
<event>
10    4  0.2759992E-005  0.2156188E+03  0.7546771E-02  0.1179379E+00
         21   -1    0    0  501  502  0.00000000000E+00  0.00000000000E+00  0.66542518381E+03  0.66542518381E+03  0.00000000000E+00 0. -1.
          2   -1    0    0  503    0 -0.00000000000E+00 -0.00000000000E+00 -0.59644286813E+02  0.59644286813E+02  0.00000000000E+00 0. -1.
         24    2    1    2    0    0 -0.13606903034E+01 -0.11454881695E+02  0.10373999897E+03  0.13178746655E+03  0.80454230222E+02 0.  0.
         23    2    1    2    0    0 -0.88712399308E+02 -0.44356464298E+02  0.10424945757E+03  0.16774565285E+03  0.86216407557E+02 0.  0.
        -11    1    3    3    0    0 -0.14230547739E+02 -0.42515928742E+02  0.41732226253E+02  0.61251052185E+02  0.00000000000E+00 0.  1.
         12    1    3    3    0    0  0.12869857435E+02  0.31061047047E+02  0.62007772721E+02  0.70536414368E+02  0.00000000000E+00 0. -1.
        -13    1    4    4    0    0 -0.56532374764E+02 -0.95348274872E+01  0.47508116819E+01  0.57527319973E+02  0.00000000000E+00 0. -1.
         13    1    4    4    0    0 -0.32180024544E+02 -0.34821636810E+02  0.99498645884E+02  0.11021833288E+03  0.00000000000E+00 0.  1.
         21    1    1    2  503  502  0.11966015457E+02  0.34480390090E+02  0.28137291233E+03  0.28373015105E+03  0.00000000000E+00 0. -1.
          1    1    1    2  501    0  0.78107074155E+02  0.21330955903E+02  0.11641852813E+03  0.14180620016E+03  0.00000000000E+00 0. -1.
<scales pt_clust_5="13000.00000" pt_clust_6="13000.00000" pt_clust_7="13000.00000" pt_clust_8="13000.00000" pt_clust_9="36.49771" pt_clust_10="13000.00000"></scales>
<clustering>
<clus scale="   36.498">  1  9  2 -1</clus>
<clus scale="   80.454">  5  6 -1 -1</clus>
<clus scale="   80.492">  2  5  1 -1</clus>
<clus scale="   86.216">  7  8 -1 -1</clus>
<clus scale="   89.154">  7 10 -1 -1</clus>
<clus scale="   36.498">  1  5  2 -1</clus>
</clustering>
</event>
<event>
10    4  0.2759992E-005  0.3086154E+03  0.7546771E-02  0.1117199E+00
          2   -1    0    0  502    0 -0.00000000000E+00  0.00000000000E+00  0.13604716313E+04  0.13604716313E+04  0.00000000000E+00 0. -1.
         21   -1    0    0  503  502  0.00000000000E+00 -0.00000000000E+00 -0.14698681878E+03  0.14698681878E+03  0.00000000000E+00 0.  1.
         24    2    1    2    0    0  0.89844965389E+02  0.71244867422E+01  0.40843952898E+03  0.42583263853E+03  0.79923157364E+02 0.  0.
         23    2    1    2    0    0 -0.95727897979E+02  0.92174106466E+01  0.38929855833E+03  0.41138020414E+03  0.91823274445E+02 0.  0.
        -13    1    3    3    0    0 -0.55243240217E+01  0.22887823547E+02  0.69589075949E+02  0.73464345870E+02  0.00000000000E+00 0.  1.
         14    1    3    3    0    0  0.95369289410E+02 -0.15763336805E+02  0.33885045303E+03  0.35236829266E+03  0.00000000000E+00 0. -1.
        -13    1    4    4    0    0 -0.41522362500E+02 -0.40163502474E+02  0.20635824113E+03  0.21429171053E+03  0.00000000000E+00 0.  1.
         13    1    4    4    0    0 -0.54205535479E+02  0.49380913120E+02  0.18294031720E+03  0.19708849361E+03  0.00000000000E+00 0. -1.
         21    1    1    2  503  501 -0.14139578183E+03 -0.20511354869E+02 -0.72524426652E+02  0.16022882157E+03  0.00000000000E+00 0.  1.
          1    1    1    2  501    0  0.14727871442E+03  0.41694574799E+01  0.48827115182E+03  0.51001678580E+03  0.00000000000E+00 0. -1.
<scales pt_clust_5="13000.00000" pt_clust_6="13000.00000" pt_clust_7="13000.00000" pt_clust_8="13000.00000" pt_clust_9="138.69518" pt_clust_10="13000.00000"></scales>
<clustering>
<clus scale="   79.923">  5  6 -1 -1</clus>
<clus scale="   91.823">  7  8 -1 -1</clus>
<clus scale="  120.460">  1  5  2 -1</clus>
<clus scale="  138.695">  2  9  1 -1</clus>
<clus scale="  111.805">  7 10 -1 -1</clus>
<clus scale="  138.695">  2  5  1 -1</clus>
</clustering>
</event>
<event>
10    4  0.2759992E-005  0.3773225E+03  0.7546771E-02  0.1089809E+00
         21   -1    0    0  501  502  0.00000000000E+00  0.00000000000E+00  0.43143142668E+03  0.43143142668E+03  0.00000000000E+00 0. -1.
          2   -1    0    0  503    0 -0.00000000000E+00 -0.00000000000E+00 -0.18475850705E+03  0.18475850705E+03  0.00000000000E+00 0. -1.
         24    2    1    2    0    0 -0.10440712326E+03 -0.32550706339E+00  0.12169747799E+02  0.13221634350E+03  0.80200407633E+02 0.  0.
         23    2    1    2    0    0 -0.52312019250E+02 -0.25449446953E+02  0.21603054906E+03  0.24243979597E+03  0.93400400604E+02 0.  0.
        -13    1    3    3    0    0 -0.74865266205E+02  0.34274771382E+02  0.22917336952E+02  0.85467961075E+02  0.00000000000E+00 0.  1.
         14    1    3    3    0    0 -0.29541857056E+02 -0.34600278445E+02 -0.10747589153E+02  0.46748382425E+02  0.00000000000E+00 0. -1.
        -13    1    4    4    0    0  0.77923486377E+00  0.22247324025E+02  0.10011150156E+02  0.24408477230E+02  0.00000000000E+00 0.  1.
         13    1    4    4    0    0 -0.53091254114E+02 -0.47696770978E+02  0.20601939890E+03  0.21803131874E+03  0.00000000000E+00 0. -1.
         21    1    1    2  503  502 -0.11875475597E+02  0.17120648804E+02  0.63487040752E+02  0.66818768917E+02  0.00000000000E+00 0. -1.
          1    1    1    2  501    0  0.16859461811E+03  0.86543052119E+01 -0.45014417983E+02  0.17471502534E+03  0.00000000000E+00 0. -1.
<scales pt_clust_5="13000.00000" pt_clust_6="13000.00000" pt_clust_7="13000.00000" pt_clust_8="13000.00000" pt_clust_9="20.83611" pt_clust_10="13000.00000"></scales>
<clustering>
<clus scale="   20.836">  1  9  2 -1</clus>
<clus scale="   80.200">  5  6 -1 -1</clus>
<clus scale="   93.400">  7  8 -1 -1</clus>
<clus scale="  133.553">  2  5  1 -1</clus>
<clus scale="   74.242">  7 10 -1 -1</clus>
<clus scale="   20.836">  1  5  2 -1</clus>
</clustering>
</event>
<event>
10    4  0.2759992E-005  0.3954683E+03  0.7546771E-02  0.1055079E+00
         21   -1    0    0  501  502  0.00000000000E+00  0.00000000000E+00  0.12978171589E+03  0.12978171589E+03  0.00000000000E+00 0. -1.
          2   -1    0    0  503    0 -0.00000000000E+00 -0.00000000000E+00 -0.10285934550E+04  0.10285934550E+04  0.00000000000E+00 0. -1.
         24    2    1    2    0    0  0.20488641207E+03 -0.21628253783E+03 -0.34720313486E+03  0.46397462894E+03  0.77238989054E+02 0.  0.
         23    2    1    2    0    0  0.13073287672E+02 -0.73217761926E+01 -0.86847495981E+02  0.12676714931E+03  0.91120268489E+02 0.  0.
        -13    1    3    3    0    0  0.37027740496E+02 -0.21854614185E+02 -0.18487675957E+02  0.46802477388E+02  0.00000000000E+00 0.  1.
         14    1    3    3    0    0  0.16785867157E+03 -0.19442792364E+03 -0.32871545890E+03  0.41717215155E+03  0.00000000000E+00 0. -1.
        -13    1    4    4    0    0 -0.21358885041E+02 -0.17047174316E+02  0.53713387308E+01  0.27850662507E+02  0.00000000000E+00 0. -1.
         13    1    4    4    0    0  0.34432172713E+02  0.97253981231E+01 -0.92218834712E+02  0.98916486805E+02  0.00000000000E+00 0.  1.
         21    1    1    2  503  502 -0.22324464519E+02  0.41846845414E+01 -0.81551483557E+02  0.84655406036E+02  0.00000000000E+00 0.  1.
          1    1    1    2  501    0 -0.19563523522E+03  0.21941962948E+03 -0.38320962471E+03  0.48297798659E+03  0.00000000000E+00 0. -1.
<scales pt_clust_5="13000.00000" pt_clust_6="13000.00000" pt_clust_7="13000.00000" pt_clust_8="13000.00000" pt_clust_9="22.71330" pt_clust_10="13000.00000"></scales>
<clustering>
<clus scale="   22.713">  1  9  2 -1</clus>
<clus scale="   77.239">  5  6 -1 -1</clus>
<clus scale="   91.120">  7  8 -1 -1</clus>
<clus scale="  299.733">  2  5  1 -1</clus>
<clus scale="   74.022">  7 10 -1 -1</clus>
<clus scale="   22.713">  1  5  2 -1</clus>
</clustering>
</event>
<event>
10    4  0.2759992E-005  0.2260632E+03  0.7546771E-02  0.1154618E+00
         21   -1    0    0  501  502  0.00000000000E+00  0.00000000000E+00  0.51004498050E+03  0.51004498050E+03  0.00000000000E+00 0. -1.
         -1   -1    0    0    0  501 -0.00000000000E+00 -0.00000000000E+00 -0.76105161093E+02  0.76105161093E+02  0.00000000000E+00 0.  1.
         24    2    1    2    0    0 -0.75473202723E+02  0.15717610334E+02  0.14023637447E+03  0.18190398185E+03  0.86484508928E+02 0.  0.
         23    2    1    2    0    0 -0.14385943061E+02  0.64587027611E+01  0.16030010863E+03  0.18325097531E+03  0.87384923916E+02 0.  0.
        -13    1    3    3    0    0 -0.19764664538E+01 -0.27840911629E+02  0.19710538247E+02  0.34169110289E+02  0.00000000000E+00 0.  1.
         14    1    3    3    0    0 -0.73496736269E+02  0.43558521963E+02  0.12052583623E+03  0.14773487156E+03  0.00000000000E+00 0. -1.
        -13    1    4    4    0    0 -0.31197505514E+02  0.30800437651E+02  0.39929834745E+02  0.59298760633E+02  0.00000000000E+00 0.  1.
         13    1    4    4    0    0  0.16811562453E+02 -0.24341734890E+02  0.12037027388E+03  0.12395221468E+03  0.00000000000E+00 0. -1.
         21    1    1    2  503  502 -0.23162962686E+02  0.26801320996E+02  0.78525435575E+02  0.86145677081E+02  0.00000000000E+00 0. -1.
         -2    1    1    2    0  503  0.11302210847E+03 -0.48977634091E+02  0.54877900737E+02  0.13484950735E+03  0.00000000000E+00 0.  1.
<scales pt_clust_5="13000.00000" pt_clust_6="13000.00000" pt_clust_7="13000.00000" pt_clust_8="13000.00000" pt_clust_9="35.42363" pt_clust_10="13000.00000"></scales>
<clustering>
<clus scale="   35.424">  1  9  2 -1</clus>
<clus scale="   86.485">  5  6 -1 -1</clus>
<clus scale="   87.385">  7  8 -1 -1</clus>
<clus scale="  116.151">  7 10 -1 -1</clus>
<clus scale="  123.429">  2  5  1 -1</clus>
<clus scale="   35.424">  1  5  2 -1</clus>
</clustering>
</event>
<event>
10    4  0.2759992E-005  0.4516565E+03  0.7546771E-02  0.1068015E+00
         21   -1    0    0  501  502  0.00000000000E+00  0.00000000000E+00  0.56561217238E+03  0.56561217238E+03  0.00000000000E+00 0. -1.
          2   -1    0    0  503    0 -0.00000000000E+00 -0.00000000000E+00 -0.20742941977E+03  0.20742941977E+03  0.00000000000E+00 0. -1.
         24    2    1    2    0    0 -0.71590428301E+02  0.61421535445E+02  0.94988356878E+02  0.15643875168E+03  0.80947517833E+02 0.  0.
         23    2    1    2    0    0 -0.44934148942E+02  0.72349216787E+02  0.21031020861E+03  0.24432152702E+03  0.90604292449E+02 0.  0.
        -11    1    3    3    0    0 -0.85475309236E+02  0.31682336535E+02  0.74681947862E+02  0.11784393185E+03  0.00000000000E+00 0.  1.
         12    1    3    3    0    0  0.13884880935E+02  0.29739198910E+02  0.20306409016E+02  0.38594819828E+02  0.00000000000E+00 0. -1.
        -11    1    4    4    0    0 -0.23238350885E+02  0.90408445855E+02  0.18085068140E+03  0.20352070410E+03  0.00000000000E+00 0.  1.
         11    1    4    4    0    0 -0.21695798057E+02 -0.18059229068E+02  0.29459527209E+02  0.40800822923E+02  0.00000000000E+00 0. -1.
         21    1    1    2  503  502 -0.54001737276E+02  0.50662843006E+02  0.91967572330E+02  0.11807178177E+03  0.00000000000E+00 0. -1.
          1    1    1    2  501    0  0.17052631452E+03 -0.18443359524E+03 -0.39083385205E+02  0.25420953168E+03  0.00000000000E+00 0. -1.
<scales pt_clust_5="13000.00000" pt_clust_6="13000.00000" pt_clust_7="13000.00000" pt_clust_8="13000.00000" pt_clust_9="74.04668" pt_clust_10="13000.00000"></scales>
<clustering>
<clus scale="   74.047">  1  9  2 -1</clus>
<clus scale="   80.948">  5  6 -1 -1</clus>
<clus scale="   90.604">  7  8 -1 -1</clus>
<clus scale="  140.242">  2  5  1 -1</clus>
<clus scale="  144.615">  7 10 -1 -1</clus>
<clus scale="   74.047">  1  5  2 -1</clus>
</clustering>
</event>
<event>
10    4  0.2759992E-005  0.1602065E+03  0.7546771E-02  0.1213846E+00
         -3   -1    0    0    0  501 -0.00000000000E+00  0.00000000000E+00  0.13618557833E+03  0.13618557833E+03  0.00000000000E+00 0.  1.
         21   -1    0    0  503  502  0.00000000000E+00 -0.00000000000E+00 -0.25580901218E+03  0.25580901218E+03  0.00000000000E+00 0.  1.
         24    2    1    2    0    0 -0.42031258658E+02 -0.20821304385E+02  0.38089859570E+02  0.10061543863E+03  0.80451697729E+02 0.  0.
         23    2    1    2    0    0  0.30654345515E+02 -0.58171191356E+01 -0.78241946245E+02  0.12305316424E+03  0.89703686114E+02 0.  0.
        -13    1    3    3    0    0 -0.18421456275E+02 -0.41373865468E+02  0.49690137788E+02  0.67232853491E+02  0.00000000000E+00 0.  1.
         14    1    3    3    0    0 -0.23609802383E+02  0.20552561083E+02 -0.11600278218E+02  0.33382585137E+02  0.00000000000E+00 0. -1.
        -11    1    4    4    0    0 -0.24311426693E+02  0.22138521471E+02 -0.21759372460E+02  0.39428795196E+02  0.00000000000E+00 0.  1.
         11    1    4    4    0    0  0.54965772207E+02 -0.27955640607E+02 -0.56482573785E+02  0.83624369040E+02  0.00000000000E+00 0. -1.
         21    1    1    2  503  501 -0.79670454953E+01  0.38518485884E+02 -0.11757099550E+03  0.12397615316E+03  0.00000000000E+00 0.  1.
         -4    1    1    2    0  502  0.19343958639E+02 -0.11880062363E+02  0.38099648322E+02  0.44349834496E+02  0.00000000000E+00 0.  1.
<scales pt_clust_5="13000.00000" pt_clust_6="13000.00000" pt_clust_7="13000.00000" pt_clust_8="13000.00000" pt_clust_9="39.33380" pt_clust_10="13000.00000"></scales>
<clustering>
<clus scale="   39.334">  2  9  1 -1</clus>
<clus scale="   80.452">  5  6 -1 -1</clus>
<clus scale="   89.704">  7  8 -1 -1</clus>
<clus scale="   22.087">  7 10 -1 -1</clus>
<clus scale="   92.408">  1  5  2 -1</clus>
<clus scale="   39.334">  2  5  1 -1</clus>
</clustering>
</event>
<event>
10    4  0.2759992E-005  0.4401330E+03  0.7546771E-02  0.1039494E+00
         21   -1    0    0  503  502  0.00000000000E+00  0.00000000000E+00  0.10246913716E+04  0.10246913716E+04  0.00000000000E+00 0. -1.
          2   -1    0    0  502    0 -0.00000000000E+00 -0.00000000000E+00 -0.57394407001E+03  0.57394407001E+03  0.00000000000E+00 0. -1.
         24    2    1    2    0    0  0.12203603262E+03 -0.30549145867E+03 -0.45709027403E+03  0.56880257145E+03  0.79918846935E+02 0.  0.
         23    2    1    2    0    0 -0.15322445074E+03  0.61263812403E+02  0.40412354825E+03  0.44644918531E+03  0.93648522656E+02 0.  0.
        -11    1    3    3    0    0 -0.83817117761E+01 -0.28919453436E+02 -0.23299698120E+02  0.38071824383E+02  0.00000000000E+00 0.  1.
         12    1    3    3    0    0  0.13041774440E+03 -0.27657200523E+03 -0.43379057591E+03  0.53073074706E+03  0.00000000000E+00 0. -1.
        -13    1    4    4    0    0 -0.53125364309E+02 -0.41426271565E+01  0.22398985371E+03  0.23024100473E+03  0.00000000000E+00 0.  1.
         13    1    4    4    0    0 -0.10009908644E+03  0.65406439559E+02  0.18013369454E+03  0.21620818058E+03  0.00000000000E+00 0. -1.
         21    1    1    2  503  501  0.14004481749E+02 -0.22671736852E+02  0.39836230284E+02  0.47927637164E+02  0.00000000000E+00 0. -1.
          1    1    1    2  501    0  0.17183936371E+02  0.26689938312E+03  0.46387779711E+03  0.53545604771E+03  0.00000000000E+00 0. -1.
<scales pt_clust_5="13000.00000" pt_clust_6="13000.00000" pt_clust_7="13000.00000" pt_clust_8="13000.00000" pt_clust_9="26.64832" pt_clust_10="13000.00000"></scales>
<clustering>
<clus scale="   26.648">  1  9  2 -1</clus>
<clus scale="   79.919">  5  6 -1 -1</clus>
<clus scale="   93.649">  7  8 -1 -1</clus>
<clus scale="  256.505">  7 10 -1 -1</clus>
<clus scale="  339.986">  2  5  1 -1</clus>
<clus scale="   26.648">  1  5  2 -1</clus>
</clustering>
</event>
<event>
10    4  0.2759992E-005  0.5952664E+03  0.7546771E-02  0.1010109E+00
         21   -1    0    0  503  502  0.00000000000E+00  0.00000000000E+00  0.31352832136E+03  0.31352832136E+03  0.00000000000E+00 0.  1.
         -1   -1    0    0    0  501 -0.00000000000E+00 -0.00000000000E+00 -0.10356801946E+04  0.10356801946E+04  0.00000000000E+00 0.  1.
         24    2    1    2    0    0 -0.45639494567E+01  0.34556387639E+03 -0.62367237030E+02  0.36069584408E+03  0.82320091008E+02 0.  0.
         23    2    1    2    0    0 -0.14744985341E+03 -0.29468579877E+03 -0.35715363344E+03  0.49881993569E+03  0.11261186037E+03 0.  0.
        -13    1    3    3    0    0  0.24048220065E+02  0.25847098324E+03 -0.21964263522E+02  0.26051486510E+03  0.00000000000E+00 0.  1.
         14    1    3    3    0    0 -0.28612169522E+02  0.87092893152E+02 -0.40402973508E+02  0.10018097899E+03  0.00000000000E+00 0. -1.
        -13    1    4    4    0    0 -0.42597110920E+02 -0.16795515484E+03 -0.12226399950E+03  0.21206587059E+03  0.00000000000E+00 0. -1.
         13    1    4    4    0    0 -0.10485274249E+03 -0.12673064393E+03 -0.23488963395E+03  0.28675406510E+03  0.00000000000E+00 0.  1.
         21    1    1    2  503  501 -0.86227858048E+02 -0.50282094393E+02  0.57732914522E+01  0.99984315841E+02  0.00000000000E+00 0.  1.
         -2    1    1    2    0  502  0.23824166091E+03 -0.59598322429E+00 -0.30840429420E+03  0.38970842032E+03  0.00000000000E+00 0.  1.
<scales pt_clust_5="13000.00000" pt_clust_6="13000.00000" pt_clust_7="13000.00000" pt_clust_8="13000.00000" pt_clust_9="99.81750" pt_clust_10="13000.00000"></scales>
<clustering>
<clus scale="   82.320">  5  6 -1 -1</clus>
<clus scale="   99.817">  1  9  2 -1</clus>
<clus scale="  112.612">  7  8 -1 -1</clus>
<clus scale="  224.952">  7 10 -1 -1</clus>
<clus scale="  331.720">  2  5  1 -1</clus>
<clus scale="   99.817">  1  5  2 -1</clus>
</clustering>
</event>
<event>
10    4  0.2759992E-005  0.1847510E+03  0.7546771E-02  0.1175282E+00
         21   -1    0    0  503  502  0.00000000000E+00  0.00000000000E+00  0.11542230201E+03  0.11542230201E+03  0.00000000000E+00 0.  1.
         -1   -1    0    0    0  501 -0.00000000000E+00 -0.00000000000E+00 -0.33829946220E+03  0.33829946220E+03  0.00000000000E+00 0.  1.
         24    2    1    2    0    0 -0.66998429847E+01 -0.10462853085E+03 -0.51806801736E+01  0.13232887006E+03  0.80573401557E+02 0.  0.
         23    2    1    2    0    0 -0.67972876533E+01  0.11104839302E+03 -0.94860673654E+02  0.17234244543E+03  0.91243752548E+02 0.  0.
        -11    1    3    3    0    0 -0.40199703874E+02 -0.66161052205E+02  0.12340724696E+02  0.78393842274E+02  0.00000000000E+00 0.  1.
         12    1    3    3    0    0  0.33499860889E+02 -0.38467478649E+02 -0.17521404869E+02  0.53935027782E+02  0.00000000000E+00 0. -1.
        -11    1    4    4    0    0 -0.45532605741E+02  0.31375711791E+02 -0.36728103786E+02  0.66382279892E+02  0.00000000000E+00 0. -1.
         11    1    4    4    0    0  0.38735318087E+02  0.79672681225E+02 -0.58132569868E+02  0.10596016554E+03  0.00000000000E+00 0.  1.
         21    1    1    2  503  501  0.43324241954E+02 -0.14266182991E+02 -0.40028531153E+02  0.60686054612E+02  0.00000000000E+00 0.  1.
         -2    1    1    2    0  502 -0.29827111316E+02  0.78463208283E+01 -0.82807275207E+02  0.88364394114E+02  0.00000000000E+00 0.  1.
<scales pt_clust_5="13000.00000" pt_clust_6="13000.00000" pt_clust_7="13000.00000" pt_clust_8="13000.00000" pt_clust_9="45.61267" pt_clust_10="13000.00000"></scales>
<clustering>
<clus scale="   45.613">  1  9  2 -1</clus>
<clus scale="   80.573">  5  6 -1 -1</clus>
<clus scale="   91.244">  7  8 -1 -1</clus>
<clus scale="   29.638">  7 10 -1 -1</clus>
<clus scale="  140.357">  2  5  1 -1</clus>
<clus scale="   45.613">  1  5  2 -1</clus>
</clustering>
</event>
<event>
10    4  0.2759992E-005  0.3812711E+03  0.7546771E-02  0.1105905E+00
         21   -1    0    0  503  502  0.00000000000E+00  0.00000000000E+00  0.41088743096E+03  0.41088743096E+03  0.00000000000E+00 0. -1.
         -1   -1    0    0    0  501 -0.00000000000E+00 -0.00000000000E+00 -0.36215392084E+03  0.36215392084E+03  0.00000000000E+00 0.  1.
         24    2    1    2    0    0  0.67138758978E+01  0.13248050159E+02 -0.20862379396E+03  0.22535385951E+03  0.83904038203E+02 0.  0.
         23    2    1    2    0    0  0.10581340416E+03 -0.10194399375E+03 -0.41625307405E+02  0.17762221315E+03  0.90707938059E+02 0.  0.
        -11    1    3    3    0    0  0.18054600758E+02  0.43721118953E+02 -0.16011384575E+03  0.16695492941E+03  0.00000000000E+00 0.  1.
         12    1    3    3    0    0 -0.11340724860E+02 -0.30473068794E+02 -0.48509948203E+02  0.58398930100E+02  0.00000000000E+00 0. -1.
        -11    1    4    4    0    0  0.21171257947E+01 -0.60654798750E+02 -0.91351790258E+01  0.61375388625E+02  0.00000000000E+00 0. -1.
         11    1    4    4    0    0  0.10369627836E+03 -0.41289194999E+02 -0.32490128379E+02  0.11624682453E+03  0.00000000000E+00 0.  1.
         21    1    1    2  503  501  0.27763761097E+01 -0.21874999563E+02  0.15003807631E+03  0.15164975507E+03  0.00000000000E+00 0. -1.
         -2    1    1    2    0  502 -0.11530365617E+03  0.11057094315E+03  0.14894453518E+03  0.21841552407E+03  0.00000000000E+00 0.  1.
<scales pt_clust_5="13000.00000" pt_clust_6="13000.00000" pt_clust_7="13000.00000" pt_clust_8="13000.00000" pt_clust_9="22.05048" pt_clust_10="13000.00000"></scales>
<clustering>
<clus scale="   22.050">  1  9  2 -1</clus>
<clus scale="   83.904">  5  6 -1 -1</clus>
<clus scale="   85.109">  2  5  1 -1</clus>
<clus scale="   90.708">  7  8 -1 -1</clus>
<clus scale="  148.598">  7 10 -1 -1</clus>
<clus scale="   22.050">  1  5  2 -1</clus>
</clustering>
</event>
<event>
10    4  0.2759992E-005  0.4480753E+03  0.7546771E-02  0.1068769E+00
          2   -1    0    0  503    0 -0.00000000000E+00  0.00000000000E+00  0.39546887642E+03  0.39546887642E+03  0.00000000000E+00 0. -1.
         21   -1    0    0  501  502  0.00000000000E+00 -0.00000000000E+00 -0.46171022849E+03  0.46171022849E+03  0.00000000000E+00 0.  1.
         24    2    1    2    0    0  0.10423909425E+03  0.47442740066E+02 -0.72879189040E+02  0.15843893654E+03  0.81700171741E+02 0.  0.
         23    2    1    2    0    0  0.66031661688E+02 -0.24369272414E+02 -0.13901097162E+02  0.11573447471E+03  0.90814020678E+02 0.  0.
        -13    1    3    3    0    0  0.11126221451E+03  0.48130992957E+02 -0.44405031191E+02  0.12910336811E+03  0.00000000000E+00 0.  1.
         14    1    3    3    0    0 -0.70231202625E+01 -0.68825289105E+00 -0.28474157849E+02  0.29335568436E+02  0.00000000000E+00 0. -1.
        -11    1    4    4    0    0  0.75387315138E+02 -0.41418051761E+01  0.17236103947E+02  0.77443431698E+02  0.00000000000E+00 0. -1.
         11    1    4    4    0    0 -0.93556534498E+01 -0.20227467238E+02 -0.31137201109E+02  0.38291043016E+02  0.00000000000E+00 0.  1.
         21    1    1    2  503  502  0.18530163525E+03 -0.10900114956E+03 -0.14815413160E+02  0.21549348737E+03  0.00000000000E+00 0.  1.
          1    1    1    2  501    0 -0.35557239119E+03  0.85927681910E+02  0.35354347293E+02  0.36751220628E+03  0.00000000000E+00 0. -1.
<scales pt_clust_5="13000.00000" pt_clust_6="13000.00000" pt_clust_7="13000.00000" pt_clust_8="13000.00000" pt_clust_9="235.21830" pt_clust_10="13000.00000"></scales>
<clustering>
<clus scale="   81.700">  5  6 -1 -1</clus>
<clus scale="   90.814">  7  8 -1 -1</clus>
<clus scale="  140.682">  1  5  2 -1</clus>
<clus scale="  235.218">  2  9  1 -1</clus>
<clus scale="  179.856">  7 10 -1 -1</clus>
<clus scale="  235.218">  2  5  1 -1</clus>
</clustering>
</event>
<event>
10    4  0.2759992E-005  0.2635457E+03  0.7546771E-02  0.1128054E+00
          2   -1    0    0  503    0 -0.00000000000E+00  0.00000000000E+00  0.53419746869E+03  0.53419746869E+03  0.00000000000E+00 0. -1.
         21   -1    0    0  501  502  0.00000000000E+00 -0.00000000000E+00 -0.17552937512E+03  0.17552937512E+03  0.00000000000E+00 0.  1.
         24    2    1    2    0    0  0.11257626139E+03 -0.11310633754E+03 -0.41242091767E+02  0.18357800581E+03  0.80830166787E+02 0.  0.
         23    2    1    2    0    0  0.36331718241E+02  0.19877218529E+02  0.77542311117E+02  0.12754893229E+03  0.92416570750E+02 0.  0.
        -13    1    3    3    0    0  0.74716173072E+02 -0.60585431512E+02 -0.63331248226E+02  0.11516921477E+03  0.00000000000E+00 0.  1.
         14    1    3    3    0    0  0.37860088323E+02 -0.52520906033E+02  0.22089156459E+02  0.68408791039E+02  0.00000000000E+00 0. -1.
        -13    1    4    4    0    0  0.58827981606E+02  0.15851083933E+02  0.84029084327E+02  0.10379246261E+03  0.00000000000E+00 0.  1.
         13    1    4    4    0    0 -0.22496263365E+02  0.40261345964E+01 -0.64867732101E+01  0.23756469685E+02  0.00000000000E+00 0. -1.
         21    1    1    2  503  502 -0.27896296480E+02  0.40586362598E+02 -0.10863771052E+01  0.49260901346E+02  0.00000000000E+00 0.  1.
          1    1    1    2  501    0 -0.12101168316E+03  0.52642756418E+02  0.32345425133E+03  0.34933900435E+03  0.00000000000E+00 0. -1.
<scales pt_clust_5="13000.00000" pt_clust_6="13000.00000" pt_clust_7="13000.00000" pt_clust_8="13000.00000" pt_clust_9="49.24892" pt_clust_10="13000.00000"></scales>
<clustering>
<clus scale="   49.249">  2  9  1 -1</clus>
<clus scale="   80.830">  5  6 -1 -1</clus>
<clus scale="   92.417">  7  8 -1 -1</clus>
<clus scale="  135.580">  7 10 -1 -1</clus>
<clus scale="  147.634">  1  5  2 -1</clus>
<clus scale="   49.249">  2  5  1 -1</clus>
</clustering>
</event>
<event>
10    4  0.2759992E-005  0.3127590E+03  0.7546771E-02  0.1088379E+00
         21   -1    0    0  503  502  0.00000000000E+00  0.00000000000E+00  0.70005694487E+02  0.70005694487E+02  0.00000000000E+00 0. -1.
          2   -1    0    0  502    0 -0.00000000000E+00 -0.00000000000E+00 -0.21423181877E+04  0.21423181877E+04  0.00000000000E+00 0. -1.
         24    2    1    2    0    0  0.12518514575E+03  0.19191117901E+03 -0.29017946645E+03  0.37748973082E+03  0.76112763573E+02 0.  0.
         23    2    1    2    0    0  0.15090574755E+02 -0.58013484285E+02 -0.50361711324E+03  0.51516191582E+03  0.90378719615E+02 0.  0.
        -11    1    3    3    0    0  0.24263173656E+02  0.44017923997E+02 -0.21613465192E+02  0.54712165983E+02  0.00000000000E+00 0.  1.
         12    1    3    3    0    0  0.10092197209E+03  0.14789325502E+03 -0.26856600126E+03  0.32277756484E+03  0.00000000000E+00 0. -1.
        -11    1    4    4    0    0 -0.39911571029E+01  0.23654206464E+02 -0.91074275628E+02  0.94180542044E+02  0.00000000000E+00 0.  1.
         11    1    4    4    0    0  0.19081731858E+02 -0.81667690749E+02 -0.41254283761E+03  0.42098137378E+03  0.00000000000E+00 0. -1.
         21    1    1    2  503  501  0.17904533209E+02 -0.89589045793E+01  0.48280032990E+01  0.20594754103E+02  0.00000000000E+00 0. -1.
          1    1    1    2  501    0 -0.15818025371E+03 -0.12493879015E+03 -0.12833439168E+04  0.12990774814E+04  0.00000000000E+00 0. -1.
<scales pt_clust_5="13000.00000" pt_clust_6="13000.00000" pt_clust_7="13000.00000" pt_clust_8="13000.00000" pt_clust_9="20.02085" pt_clust_10="13000.00000"></scales>
<clustering>
<clus scale="   20.021">  1  9  2 -1</clus>
<clus scale="   76.113">  5  6 -1 -1</clus>
<clus scale="   90.379">  7  8 -1 -1</clus>
<clus scale="  200.419">  7 10 -1 -1</clus>
<clus scale="  243.563">  2  5  1 -1</clus>
<clus scale="   20.021">  1  5  2 -1</clus>
</clustering>
</event>
<event>
10    4  0.2759992E-005  0.2011193E+03  0.7546771E-02  0.1181848E+00
         21   -1    0    0  503  502  0.00000000000E+00  0.00000000000E+00  0.72560609994E+02  0.72560609994E+02  0.00000000000E+00 0.  1.
          2   -1    0    0  502    0 -0.00000000000E+00 -0.00000000000E+00 -0.57741986384E+03  0.57741986384E+03  0.00000000000E+00 0. -1.
         24    2    1    2    0    0 -0.43535311792E+02  0.25062754013E+02 -0.19906386839E+03  0.22077196286E+03  0.81181099231E+02 0.  0.
         23    2    1    2    0    0  0.62790260609E+02  0.19360655035E+02 -0.22005438184E+03  0.24736523225E+03  0.91913956321E+02 0.  0.
        -11    1    3    3    0    0 -0.34254782306E+02  0.54295493921E+02 -0.14581686506E+03  0.15932340979E+03  0.00000000000E+00 0.  1.
         12    1    3    3    0    0 -0.92805294863E+01 -0.29232739908E+02 -0.53247003328E+02  0.61448553063E+02  0.00000000000E+00 0. -1.
        -13    1    4    4    0    0 -0.14436146337E+02  0.27231122364E+02 -0.34695760708E+02  0.46408319915E+02  0.00000000000E+00 0. -1.
         13    1    4    4    0    0  0.77226406945E+02 -0.78704673281E+01 -0.18535862114E+03  0.20095691234E+03  0.00000000000E+00 0.  1.
         21    1    1    2  503  501  0.31871793620E+02  0.24184829840E+02  0.20884486987E+02  0.45131796105E+02  0.00000000000E+00 0.  1.
          1    1    1    2  501    0 -0.51126742437E+02 -0.68608238889E+02 -0.10662549060E+03  0.13671148262E+03  0.00000000000E+00 0. -1.
<scales pt_clust_5="13000.00000" pt_clust_6="13000.00000" pt_clust_7="13000.00000" pt_clust_8="13000.00000" pt_clust_9="40.00896" pt_clust_10="13000.00000"></scales>
<clustering>
<clus scale="   40.009">  1  9  2 -1</clus>
<clus scale="   81.181">  5  6 -1 -1</clus>
<clus scale="   91.914">  7  8 -1 -1</clus>
<clus scale="   71.070">  7 10 -1 -1</clus>
<clus scale="   93.838">  2  5  1 -1</clus>
<clus scale="   40.009">  1  5  2 -1</clus>
</clustering>
</event>
<event>
10    4  0.2759992E-005  0.4179103E+03  0.7546771E-02  0.1049382E+00
          2   -1    0    0  503    0 -0.00000000000E+00  0.00000000000E+00  0.21642605398E+03  0.21642605398E+03  0.00000000000E+00 0. -1.
         21   -1    0    0  501  502  0.00000000000E+00 -0.00000000000E+00 -0.10376780029E+04  0.10376780029E+04  0.00000000000E+00 0.  1.
         24    2    1    2    0    0 -0.21851210669E+03 -0.49608116840E+02 -0.58497874018E+03  0.63158135266E+03  0.80538019246E+02 0.  0.
         23    2    1    2    0    0  0.11098633999E+03 -0.13769777768E+03 -0.46150803241E+02  0.20406990860E+03  0.90752329516E+02 0.  0.
        -11    1    3    3    0    0 -0.22563642866E+03 -0.49261947842E+02 -0.56889067206E+03  0.61398300808E+03  0.00000000000E+00 0.  1.
         12    1    3    3    0    0  0.71243219723E+01 -0.34616899829E+00 -0.16088068115E+02  0.17598344588E+02  0.00000000000E+00 0. -1.
        -11    1    4    4    0    0  0.35465200943E+02 -0.15661523819E+02 -0.46517614010E+02  0.60555364911E+02  0.00000000000E+00 0. -1.
         11    1    4    4    0    0  0.75521139046E+02 -0.12203625386E+03  0.36681076928E+00  0.14351454369E+03  0.00000000000E+00 0.  1.
         21    1    1    2  503  502 -0.10244188416E+03  0.66060430534E+02 -0.10683501497E+03  0.16208652176E+03  0.00000000000E+00 0.  1.
          1    1    1    2  501    0  0.20996765086E+03  0.12124546399E+03 -0.83287390509E+02  0.25636627384E+03  0.00000000000E+00 0. -1.
<scales pt_clust_5="13000.00000" pt_clust_6="13000.00000" pt_clust_7="13000.00000" pt_clust_8="13000.00000" pt_clust_9="121.89471" pt_clust_10="13000.00000"></scales>
<clustering>
<clus scale="   80.538">  5  6 -1 -1</clus>
<clus scale="   90.752">  7  8 -1 -1</clus>
<clus scale="  121.895">  2  9  1 -1</clus>
<clus scale="  232.885">  7 10 -1 -1</clus>
<clus scale="  298.614">  1  5  2 -1</clus>
<clus scale="  121.895">  2  5  1 -1</clus>
</clustering>
</event>
<event>
10    4  0.3311171E-005  0.2306163E+03  0.7546771E-02  0.1155627E+00
         21   -1    0    0  503  502  0.00000000000E+00  0.00000000000E+00  0.38936413206E+03  0.38936413206E+03  0.00000000000E+00 0. -1.
          2   -1    0    0  502    0 -0.00000000000E+00 -0.00000000000E+00 -0.75557208294E+03  0.75557208294E+03  0.00000000000E+00 0. -1.
         24    2    1    2    0    0  0.18144549928E+02 -0.75418755591E+02 -0.27807697410E+03  0.30036328151E+03  0.82910095686E+02 0.  0.
         23    2    1    2    0    0 -0.22902091862E+02  0.22880071076E+02 -0.34100422819E+03  0.35408127114E+03  0.89675300181E+02 0.  0.
        -11    1    3    3    0    0  0.25115284141E+02 -0.17482137348E+02 -0.21914907599E+02  0.37638621106E+02  0.00000000000E+00 0.  1.
         12    1    3    3    0    0 -0.69707342131E+01 -0.57936618242E+02 -0.25616206650E+03  0.26272466040E+03  0.00000000000E+00 0. -1.
        -13    1    4    4    0    0 -0.41309589402E+02 -0.16186823685E+02 -0.10237540559E+03  0.11157606870E+03  0.00000000000E+00 0.  1.
         13    1    4    4    0    0  0.18407497540E+02  0.39066894761E+02 -0.23862882260E+03  0.24250520244E+03  0.00000000000E+00 0. -1.
         21    1    1    2  503  501 -0.71920645549E+02  0.91999906377E+02  0.34504393939E+03  0.36426896950E+03  0.00000000000E+00 0. -1.
          1    1    1    2  501    0  0.76678187483E+02 -0.39461221863E+02 -0.92170687980E+02  0.12622269285E+03  0.00000000000E+00 0. -1.
<scales pt_clust_5="13000.00000" pt_clust_6="13000.00000" pt_clust_7="13000.00000" pt_clust_8="13000.00000" pt_clust_9="115.32253" pt_clust_10="13000.00000"></scales>
<clustering>
<clus scale="   82.910">  5  6 -1 -1</clus>
<clus scale="   89.675">  7  8 -1 -1</clus>
<clus scale="   86.237">  7 10 -1 -1</clus>
<clus scale="  113.540">  2  5  1 -1</clus>
<clus scale="  115.323">  1  9  2 -1</clus>
<clus scale="  115.323">  1  5  2 -1</clus>
</clustering>
</event>
<event>
10    4  0.2759992E-005  0.2613033E+03  0.7546771E-02  0.1150913E+00
         21   -1    0    0  501  502  0.00000000000E+00  0.00000000000E+00  0.15011742041E+03  0.15011742041E+03  0.00000000000E+00 0. -1.
         -1   -1    0    0    0  501 -0.00000000000E+00 -0.00000000000E+00 -0.36230063970E+03  0.36230063970E+03  0.00000000000E+00 0.  1.
         24    2    1    2    0    0 -0.12539609753E+02  0.30184720353E+02 -0.16952867413E+03  0.19028881733E+03  0.80009396288E+02 0.  0.
         23    2    1    2    0    0  0.87043874586E+02  0.13200512984E+02  0.63406693940E+02  0.14219517212E+03  0.91913918918E+02 0.  0.
        -13    1    3    3    0    0 -0.93751448808E+01  0.57399661037E+02 -0.10204764140E+03  0.11745780325E+03  0.00000000000E+00 0.  1.
         14    1    3    3    0    0 -0.31644648719E+01 -0.27214940684E+02 -0.67481032722E+02  0.72831014078E+02  0.00000000000E+00 0. -1.
        -13    1    4    4    0    0  0.58928979343E+02  0.16464393050E+01  0.86039376346E+02  0.10429817664E+03  0.00000000000E+00 0. -1.
         13    1    4    4    0    0  0.28114895244E+02  0.11554073679E+02 -0.22632682406E+02  0.37896995475E+02  0.00000000000E+00 0.  1.
         21    1    1    2  503  502 -0.46523401505E+02  0.36040586508E+01  0.13400661730E+02  0.48548881152E+02  0.00000000000E+00 0. -1.
         -2    1    1    2    0  503 -0.27980863329E+02 -0.46989291988E+02 -0.11946190083E+03  0.13138518952E+03  0.00000000000E+00 0.  1.
<scales pt_clust_5="13000.00000" pt_clust_6="13000.00000" pt_clust_7="13000.00000" pt_clust_8="13000.00000" pt_clust_9="46.66279" pt_clust_10="13000.00000"></scales>
<clustering>
<clus scale="   46.663">  1  9  2 -1</clus>
<clus scale="   80.009">  5  6 -1 -1</clus>
<clus scale="   87.218">  2  5  1 -1</clus>
<clus scale="   91.914">  7  8 -1 -1</clus>
<clus scale="   49.001">  7 10 -1 -1</clus>
<clus scale="   46.663">  1  5  2 -1</clus>
</clustering>
</event>
<event>
10    4  0.2759992E-005  0.1759160E+03  0.7546771E-02  0.1200576E+00
          2   -1    0    0  503    0 -0.00000000000E+00  0.00000000000E+00  0.18323630383E+03  0.18323630383E+03  0.00000000000E+00 0. -1.
         21   -1    0    0  501  502  0.00000000000E+00 -0.00000000000E+00 -0.13169594908E+03  0.13169594908E+03  0.00000000000E+00 0. -1.
         24    2    1    2    0    0 -0.22293407096E+02 -0.19883505083E+02  0.24065783576E+02  0.94855864303E+02  0.86753232097E+02 0.  0.
         23    2    1    2    0    0 -0.25182641935E+02 -0.28738020962E+00 -0.19870154886E+02  0.97106059433E+02  0.91654327127E+02 0.  0.
        -11    1    3    3    0    0 -0.25035872904E+01 -0.50257264846E+02  0.29299351777E+02  0.58228108622E+02  0.00000000000E+00 0.  1.
         12    1    3    3    0    0 -0.19789819806E+02  0.30373759763E+02 -0.52335682013E+01  0.36627755681E+02  0.00000000000E+00 0. -1.
        -13    1    4    4    0    0 -0.28576779420E+02 -0.20135672259E+02  0.28247842311E+02  0.44944612743E+02  0.00000000000E+00 0. -1.
         13    1    4    4    0    0  0.33941374845E+01  0.19848292049E+02 -0.48117997197E+02  0.52161446690E+02  0.00000000000E+00 0.  1.
         21    1    1    2  503  502 -0.27582906254E+02  0.25852184370E+02  0.10937973741E+02  0.39354687442E+02  0.00000000000E+00 0. -1.
          1    1    1    2  501    0  0.75058955286E+02 -0.56812990774E+01  0.36406752319E+02  0.83615641732E+02  0.00000000000E+00 0. -1.
<scales pt_clust_5="13000.00000" pt_clust_6="13000.00000" pt_clust_7="13000.00000" pt_clust_8="13000.00000" pt_clust_9="37.80415" pt_clust_10="13000.00000"></scales>
<clustering>
<clus scale="   37.804">  2  9  1 -1</clus>
<clus scale="   86.753">  5  6 -1 -1</clus>
<clus scale="   91.654">  7  8 -1 -1</clus>
<clus scale="   69.519">  7 10 -1 -1</clus>
<clus scale="   92.785">  1  5  2 -1</clus>
<clus scale="   37.804">  2  5  1 -1</clus>
</clustering>
</event>
<event>
10    4  0.2759992E-005  0.1484412E+03  0.7546771E-02  0.1219388E+00
          2   -1    0    0  502    0 -0.00000000000E+00  0.00000000000E+00  0.15001196748E+04  0.15001196748E+04  0.00000000000E+00 0. -1.
         21   -1    0    0  503  502  0.00000000000E+00 -0.00000000000E+00 -0.23263835902E+02  0.23263835902E+02  0.00000000000E+00 0. -1.
         24    2    1    2    0    0  0.33573992484E+02 -0.55194985346E+02  0.94114342379E+03  0.94654358344E+03  0.77589379577E+02 0.  0.
         23    2    1    2    0    0  0.14151040063E+02  0.57366800494E+02  0.32986785169E+03  0.34702579100E+03  0.90127123043E+02 0.  0.
        -13    1    3    3    0    0  0.19893518062E+02  0.85600869348E+01  0.78302240153E+02  0.81242033223E+02  0.00000000000E+00 0.  1.
         14    1    3    3    0    0  0.13680474422E+02 -0.63755072281E+02  0.86284118364E+03  0.86530155022E+03  0.00000000000E+00 0. -1.
        -11    1    4    4    0    0 -0.72533048309E+01  0.76978639581E+02  0.26295097265E+03  0.27408308120E+03  0.00000000000E+00 0.  1.
         11    1    4    4    0    0  0.21404344894E+02 -0.19611839087E+02  0.66916879038E+02  0.72942709799E+02  0.00000000000E+00 0. -1.
         21    1    1    2  503  501 -0.58357480238E+01 -0.25411381133E+02  0.95627429053E+01  0.27771213476E+02  0.00000000000E+00 0. -1.
          1    1    1    2  501    0 -0.41889284523E+02  0.23239565984E+02  0.19628182054E+03  0.20204292282E+03  0.00000000000E+00 0. -1.
<scales pt_clust_5="13000.00000" pt_clust_6="13000.00000" pt_clust_7="13000.00000" pt_clust_8="13000.00000" pt_clust_9="26.07286" pt_clust_10="13000.00000"></scales>
<clustering>
<clus scale="   26.073">  2  9  1 -1</clus>
<clus scale="   77.589">  5  6 -1 -1</clus>
<clus scale="   90.127">  7  8 -1 -1</clus>
<clus scale="   46.713">  7 10 -1 -1</clus>
<clus scale="  103.338">  1  5  2 -1</clus>
<clus scale="   26.073">  2  5  1 -1</clus>
</clustering>
</event>
<event>
10    4  0.2759992E-005  0.4945850E+03  0.7546771E-02  0.1060462E+00
         21   -1    0    0  501  502  0.00000000000E+00  0.00000000000E+00  0.41998557464E+03  0.41998557464E+03  0.00000000000E+00 0. -1.
          2   -1    0    0  503    0 -0.00000000000E+00 -0.00000000000E+00 -0.46501963894E+03  0.46501963894E+03  0.00000000000E+00 0. -1.
         24    2    1    2    0    0  0.48400103549E+02  0.98252940239E+02  0.19817392000E+03  0.24036963932E+03  0.80674969166E+02 0.  0.
         23    2    1    2    0    0 -0.77421268989E+02 -0.25940778383E+03 -0.93164755661E+02  0.30044538106E+03  0.91111492668E+02 0.  0.
        -11    1    3    3    0    0  0.52805381754E+02  0.44486952333E+02  0.58004941333E+02  0.90177993375E+02  0.00000000000E+00 0.  1.
         12    1    3    3    0    0 -0.44052782049E+01  0.53765987907E+02  0.14016897866E+03  0.15019164594E+03  0.00000000000E+00 0. -1.
        -11    1    4    4    0    0 -0.27810092209E+02 -0.14865653237E+03 -0.65993869410E+01  0.15137938351E+03  0.00000000000E+00 0.  1.
         11    1    4    4    0    0 -0.49611176780E+02 -0.11075125146E+03 -0.86565368720E+02  0.14906599754E+03  0.00000000000E+00 0. -1.
         21    1    1    2  503  502  0.22173444307E+02 -0.23829265708E+02  0.57509487576E+02  0.66082045200E+02  0.00000000000E+00 0. -1.
          1    1    1    2  501    0  0.68477211332E+01  0.18498410930E+03 -0.20755271622E+03  0.27810814801E+03  0.00000000000E+00 0. -1.
<scales pt_clust_5="13000.00000" pt_clust_6="13000.00000" pt_clust_7="13000.00000" pt_clust_8="13000.00000" pt_clust_9="32.54989" pt_clust_10="13000.00000"></scales>
<clustering>
<clus scale="   32.550">  1  9  2 -1</clus>
<clus scale="   80.675">  5  6 -1 -1</clus>
<clus scale="   91.111">  7  8 -1 -1</clus>
<clus scale="  131.716">  2  5  1 -1</clus>
<clus scale="  231.542">  7 10 -1 -1</clus>
<clus scale="   32.550">  1  5  2 -1</clus>
</clustering>
</event>
<event>
10    4  0.2759992E-005  0.2490084E+03  0.7546771E-02  0.1154621E+00
          2   -1    0    0  502    0 -0.00000000000E+00  0.00000000000E+00  0.90095261176E+03  0.90095261176E+03  0.00000000000E+00 0. -1.
         21   -1    0    0  503  502  0.00000000000E+00 -0.00000000000E+00 -0.50152636073E+02  0.50152636073E+02  0.00000000000E+00 0. -1.
         24    2    1    2    0    0 -0.40291112436E+02  0.17164528162E+02  0.14156748642E+03  0.16825533123E+03  0.79690077857E+02 0.  0.
         23    2    1    2    0    0  0.13692366160E+03  0.96880088680E+01  0.52236052098E+03  0.54819890176E+03  0.93912594427E+02 0.  0.
        -13    1    3    3    0    0 -0.59303013980E+02  0.83129746396E+01  0.13250767707E+03  0.14541058248E+03  0.00000000000E+00 0.  1.
         14    1    3    3    0    0  0.19011901544E+02  0.88515535228E+01  0.90598093456E+01  0.22844748750E+02  0.00000000000E+00 0. -1.
        -13    1    4    4    0    0  0.39184366566E+02 -0.38739527181E+02  0.21893499076E+03  0.22576247635E+03  0.00000000000E+00 0. -1.
         13    1    4    4    0    0  0.97739295038E+02  0.48427536049E+02  0.30342553022E+03  0.32243642541E+03  0.00000000000E+00 0.  1.
         21    1    1    2  503  501 -0.14561406679E+02 -0.22498403433E+02 -0.37555173545E+01  0.27061349414E+02  0.00000000000E+00 0. -1.
          1    1    1    2  501    0 -0.82071142489E+02 -0.43541335977E+01  0.19062748564E+03  0.20758966542E+03  0.00000000000E+00 0. -1.
<scales pt_clust_5="13000.00000" pt_clust_6="13000.00000" pt_clust_7="13000.00000" pt_clust_8="13000.00000" pt_clust_9="26.79949" pt_clust_10="13000.00000"></scales>
<clustering>
<clus scale="   26.799">  2  9  1 -1</clus>
<clus scale="   79.690">  5  6 -1 -1</clus>
<clus scale="   92.350">  1  5  2 -1</clus>
<clus scale="   93.913">  7  8 -1 -1</clus>
<clus scale="   99.913">  7 10 -1 -1</clus>
<clus scale="   26.799">  2  5  1 -1</clus>
</clustering>
</event>
<event>
10    4  0.2759992E-005  0.1405455E+03  0.7546771E-02  0.1219719E+00
          2   -1    0    0  503    0 -0.00000000000E+00  0.00000000000E+00  0.55996329056E+03  0.55996329056E+03  0.00000000000E+00 0. -1.
         21   -1    0    0  501  502  0.00000000000E+00 -0.00000000000E+00 -0.82929880585E+02  0.82929880585E+02  0.00000000000E+00 0. -1.
         24    2    1    2    0    0 -0.83890992497E+02  0.62030083559E+02  0.12986334534E+03  0.18523468710E+03  0.81005993322E+02 0.  0.
         23    2    1    2    0    0  0.67117006949E+02 -0.14459896596E+02  0.30413725960E+03  0.32481491307E+03  0.91057530409E+02 0.  0.
        -11    1    3    3    0    0 -0.78034659458E+02  0.12575727001E+02  0.98856448898E+02  0.12657074889E+03  0.00000000000E+00 0.  1.
         12    1    3    3    0    0 -0.58563330389E+01  0.49454356558E+02  0.31006896442E+02  0.58663938209E+02  0.00000000000E+00 0. -1.
        -13    1    4    4    0    0 -0.74220520102E+01 -0.31512721862E+02  0.51241883986E+02  0.60612450616E+02  0.00000000000E+00 0. -1.
         13    1    4    4    0    0  0.74539058959E+02  0.17052825266E+02  0.25289537561E+03  0.26420246245E+03  0.00000000000E+00 0.  1.
         21    1    1    2  503  502  0.69737383871E+01 -0.27713664164E+02 -0.38731871377E+02  0.48133544112E+02  0.00000000000E+00 0. -1.
          1    1    1    2  501    0  0.98002471607E+01 -0.19856522799E+02  0.81764676414E+02  0.84710026863E+02  0.00000000000E+00 0. -1.
<scales pt_clust_5="13000.00000" pt_clust_6="13000.00000" pt_clust_7="13000.00000" pt_clust_8="13000.00000" pt_clust_9="28.57762" pt_clust_10="13000.00000"></scales>
<clustering>
<clus scale="   28.578">  2  9  1 -1</clus>
<clus scale="   81.006">  5  6 -1 -1</clus>
<clus scale="   91.058">  7  8 -1 -1</clus>
<clus scale="   23.186">  7 10 -1 -1</clus>
<clus scale="  120.907">  1  5  2 -1</clus>
<clus scale="   28.578">  2  5  1 -1</clus>
</clustering>
</event>
<event>
10    4  0.2759992E-005  0.1979703E+03  0.7546771E-02  0.1180082E+00
         21   -1    0    0  501  502  0.00000000000E+00  0.00000000000E+00  0.13481138128E+04  0.13481138128E+04  0.00000000000E+00 0. -1.
         -3   -1    0    0    0  501 -0.00000000000E+00 -0.00000000000E+00 -0.20573822898E+02  0.20573822898E+02  0.00000000000E+00 0.  1.
         24    2    1    2    0    0  0.23955239323E+02 -0.67973012884E+02  0.50695025871E+03  0.51838141471E+03  0.80787018347E+02 0.  0.
         23    2    1    2    0    0  0.59745236254E+02  0.15063846950E+02  0.50134784000E+03  0.51331722137E+03  0.91370128281E+02 0.  0.
        -11    1    3    3    0    0  0.50893538918E+02 -0.51324830914E+02  0.41192553618E+03  0.41821888758E+03  0.00000000000E+00 0.  1.
         12    1    3    3    0    0 -0.26938299595E+02 -0.16648181970E+02  0.95024722536E+02  0.10016252713E+03  0.00000000000E+00 0. -1.
        -13    1    4    4    0    0  0.81280117643E+02  0.25593286289E+02  0.41763409860E+03  0.42623903404E+03  0.00000000000E+00 0. -1.
         13    1    4    4    0    0 -0.21534881388E+02 -0.10529439340E+02  0.83713741394E+02  0.87078187323E+02  0.00000000000E+00 0.  1.
         21    1    1    2  503  502 -0.18346421266E+02  0.16832346716E+02  0.14947108950E+03  0.15153060967E+03  0.00000000000E+00 0.  1.
         -4    1    1    2    0  503 -0.65354054312E+02  0.36076819219E+02  0.16977080172E+03  0.18545838999E+03  0.00000000000E+00 0.  1.
<scales pt_clust_5="13000.00000" pt_clust_6="13000.00000" pt_clust_7="13000.00000" pt_clust_8="13000.00000" pt_clust_9="24.89817" pt_clust_10="13000.00000"></scales>
<clustering>
<clus scale="   24.898">  1  9  2 -1</clus>
<clus scale="   80.787">  5  6 -1 -1</clus>
<clus scale="   91.370">  7  8 -1 -1</clus>
<clus scale="   78.244">  7 10 -1 -1</clus>
<clus scale="  102.365">  2  5  1 -1</clus>
<clus scale="   24.898">  1  5  2 -1</clus>
</clustering>
</event>
<event>
10    4  0.2759992E-005  0.2339951E+03  0.7546771E-02  0.1160377E+00
         21   -1    0    0  503  502  0.00000000000E+00  0.00000000000E+00  0.95972917447E+02  0.95972917447E+02  0.00000000000E+00 0. -1.
          2   -1    0    0  502    0 -0.00000000000E+00 -0.00000000000E+00 -0.12686716107E+04  0.12686716107E+04  0.00000000000E+00 0. -1.
         24    2    1    2    0    0  0.62513080838E+02  0.27335743802E+02 -0.14439949139E+03  0.17862227674E+03  0.79997352873E+02 0.  0.
         23    2    1    2    0    0  0.20873383813E+02  0.69112695002E+02 -0.63820403234E+03  0.64874106089E+03  0.91369110902E+02 0.  0.
        -11    1    3    3    0    0  0.54003655880E+02  0.21912138016E+01 -0.14203611632E+03  0.15197188755E+03  0.00000000000E+00 0.  1.
         12    1    3    3    0    0  0.85094249575E+01  0.25144530000E+02 -0.23633750739E+01  0.26650389186E+02  0.00000000000E+00 0. -1.
        -11    1    4    4    0    0 -0.35036691950E+02  0.40774752839E+02 -0.29850254186E+03  0.30330499130E+03  0.00000000000E+00 0.  1.
         11    1    4    4    0    0  0.55910075763E+02  0.28337942163E+02 -0.33970149048E+03  0.34543606959E+03  0.00000000000E+00 0. -1.
         21    1    1    2  503  501 -0.24731099787E+02  0.16438122804E+00  0.64377795837E+02  0.68964881749E+02  0.00000000000E+00 0. -1.
          1    1    1    2  501    0 -0.58655364864E+02 -0.96612820032E+02 -0.45447296535E+03  0.46831630877E+03  0.00000000000E+00 0. -1.
<scales pt_clust_5="13000.00000" pt_clust_6="13000.00000" pt_clust_7="13000.00000" pt_clust_8="13000.00000" pt_clust_9="24.73165" pt_clust_10="13000.00000"></scales>
<clustering>
<clus scale="   24.732">  1  9  2 -1</clus>
<clus scale="   79.997">  5  6 -1 -1</clus>
<clus scale="   91.369">  7  8 -1 -1</clus>
<clus scale="   97.277">  2  5  1 -1</clus>
<clus scale="   95.264">  7 10 -1 -1</clus>
<clus scale="   24.732">  1  5  2 -1</clus>
</clustering>
</event>
<event>
10    4  0.2759992E-005  0.5225631E+03  0.7546771E-02  0.1065206E+00
          4   -1    0    0  502    0 -0.00000000000E+00  0.00000000000E+00  0.43981334591E+03  0.43981334591E+03  0.00000000000E+00 0. -1.
         21   -1    0    0  503  502  0.00000000000E+00 -0.00000000000E+00 -0.34591432239E+03  0.34591432239E+03  0.00000000000E+00 0. -1.
         24    2    1    2    0    0  0.28293133257E+02  0.56698292015E+02  0.22025405205E+02  0.10030855522E+03  0.74575398553E+02 0.  0.
         23    2    1    2    0    0  0.10526111851E+03  0.36650552125E+01  0.24664277767E+03  0.28343195963E+03  0.91693403584E+02 0.  0.
        -13    1    3    3    0    0  0.50542087036E+02  0.20609775655E+02  0.19038697188E+02  0.57807762499E+02  0.00000000000E+00 0.  1.
         14    1    3    3    0    0 -0.22248953779E+02  0.36088516360E+02  0.29867080170E+01  0.42500792723E+02  0.00000000000E+00 0. -1.
        -13    1    4    4    0    0  0.53167707512E+02  0.47025651206E+02  0.11018293710E+03  0.13106676399E+03  0.00000000000E+00 0.  1.
         13    1    4    4    0    0  0.52093411001E+02 -0.43360595993E+02  0.13645984057E+03  0.15236519565E+03  0.00000000000E+00 0. -1.
         21    1    1    2  503  501  0.84528601978E+02  0.66663875724E+02 -0.71851558715E+02  0.12942875789E+03  0.00000000000E+00 0. -1.
          3    1    1    2  501    0 -0.21808285375E+03 -0.12702722295E+03 -0.10291760064E+03  0.27255839556E+03  0.00000000000E+00 0. -1.
<scales pt_clust_5="13000.00000" pt_clust_6="13000.00000" pt_clust_7="13000.00000" pt_clust_8="13000.00000" pt_clust_9="112.03026" pt_clust_10="13000.00000"></scales>
<clustering>
<clus scale="   74.575">  5  6 -1 -1</clus>
<clus scale="   91.693">  7  8 -1 -1</clus>
<clus scale="   97.861">  1  5  2 -1</clus>
<clus scale="  112.030">  2  9  1 -1</clus>
<clus scale="  158.633">  7 10 -1 -1</clus>
<clus scale="  112.030">  2  5  1 -1</clus>
</clustering>
</event>
<event>
10    4  0.2759992E-005  0.2546782E+03  0.7546771E-02  0.1154962E+00
         21   -1    0    0  501  502  0.00000000000E+00  0.00000000000E+00  0.11211539964E+03  0.11211539964E+03  0.00000000000E+00 0.  1.
          2   -1    0    0  503    0 -0.00000000000E+00 -0.00000000000E+00 -0.70410332248E+03  0.70410332248E+03  0.00000000000E+00 0. -1.
         24    2    1    2    0    0  0.29930162573E+02 -0.80987463569E+01 -0.19663779243E+03  0.21567023798E+03  0.82980876192E+02 0.  0.
         23    2    1    2    0    0 -0.24588971444E+02  0.17562143227E+02 -0.42651229834E+02  0.10524768362E+03  0.91350430260E+02 0.  0.
        -13    1    3    3    0    0 -0.25845746326E+02 -0.72128128421E+01 -0.10512813195E+03  0.10849862395E+03  0.00000000000E+00 0.  1.
         14    1    3    3    0    0  0.55775908899E+02 -0.88593351489E+00 -0.91509660482E+02  0.10717161403E+03  0.00000000000E+00 0. -1.
        -13    1    4    4    0    0 -0.24160347028E+02  0.52751431880E+02 -0.38904342573E+02  0.69856880871E+02  0.00000000000E+00 0.  1.
         13    1    4    4    0    0 -0.42862441570E+00 -0.35189288653E+02 -0.37468872608E+01  0.35390802745E+02  0.00000000000E+00 0. -1.
         21    1    1    2  503  502 -0.48759837772E+02  0.73723417343E+02  0.35997351679E+02  0.95438322346E+02  0.00000000000E+00 0.  1.
          1    1    1    2  501    0  0.43418646643E+02 -0.83186814213E+02 -0.38869625226E+03  0.39986247818E+03  0.00000000000E+00 0. -1.
<scales pt_clust_5="13000.00000" pt_clust_6="13000.00000" pt_clust_7="13000.00000" pt_clust_8="13000.00000" pt_clust_9="88.38928" pt_clust_10="13000.00000"></scales>
<clustering>
<clus scale="   82.981">  5  6 -1 -1</clus>
<clus scale="   88.389">  1  9  2 -1</clus>
<clus scale="   85.629">  2  5  1 -1</clus>
<clus scale="   91.350">  7  8 -1 -1</clus>
<clus scale="   86.080">  7 10 -1 -1</clus>
<clus scale="   88.389">  1  5  2 -1</clus>
</clustering>
</event>
<event>
10    4  0.2759992E-005  0.8525806E+03  0.7546771E-02  0.9897572E-01
         21   -1    0    0  501  502  0.00000000000E+00  0.00000000000E+00  0.58650256707E+03  0.58650256707E+03  0.00000000000E+00 0. -1.
          2   -1    0    0  503    0 -0.00000000000E+00 -0.00000000000E+00 -0.67377177896E+03  0.67377177896E+03  0.00000000000E+00 0. -1.
         24    2    1    2    0    0 -0.12230588375E+03 -0.16024758484E+03 -0.19569648382E+03  0.29107503796E+03  0.76089068183E+02 0.  0.
         23    2    1    2    0    0  0.21365459551E+03  0.72549081875E+02  0.37088331844E+03  0.44378837864E+03  0.92097956854E+02 0.  0.
        -13    1    3    3    0    0 -0.50127538072E+02 -0.12237040494E+03 -0.13852585839E+03  0.19151161720E+03  0.00000000000E+00 0.  1.
         14    1    3    3    0    0 -0.72178345679E+02 -0.37877179899E+02 -0.57170625427E+02  0.99563420762E+02  0.00000000000E+00 0. -1.
        -13    1    4    4    0    0  0.48858922875E+02  0.25242748393E+01  0.26505768944E+02  0.55642808118E+02  0.00000000000E+00 0.  1.
         13    1    4    4    0    0  0.16479567263E+03  0.70024807036E+02  0.34437754950E+03  0.38814557052E+03  0.00000000000E+00 0. -1.
         21    1    1    2  503  502  0.27803176031E+02 -0.75623254957E+01  0.11486217127E+03  0.11842095994E+03  0.00000000000E+00 0. -1.
          1    1    1    2  501    0 -0.11915188779E+03  0.95260828458E+02 -0.37731821778E+03  0.40698996950E+03  0.00000000000E+00 0. -1.
<scales pt_clust_5="13000.00000" pt_clust_6="13000.00000" pt_clust_7="13000.00000" pt_clust_8="13000.00000" pt_clust_9="28.81328" pt_clust_10="13000.00000"></scales>
<clustering>
<clus scale="   28.813">  1  9  2 -1</clus>
<clus scale="   76.089">  5  6 -1 -1</clus>
<clus scale="   92.098">  7  8 -1 -1</clus>
<clus scale="  151.717">  7 10 -1 -1</clus>
<clus scale="  214.457">  2  5  1 -1</clus>
<clus scale="   28.813">  1  5  2 -1</clus>
</clustering>
</event>
<event>
10    4  0.2759992E-005  0.1837910E+03  0.7546771E-02  0.1175264E+00
         21   -1    0    0  501  502  0.00000000000E+00  0.00000000000E+00  0.77122858630E+02  0.77122858630E+02  0.00000000000E+00 0. -1.
          4   -1    0    0  503    0 -0.00000000000E+00 -0.00000000000E+00 -0.52179511710E+03  0.52179511710E+03  0.00000000000E+00 0. -1.
         24    2    1    2    0    0  0.69219562964E+02  0.75940829507E+02 -0.55685525333E+02  0.14229096376E+03  0.81163311616E+02 0.  0.
         23    2    1    2    0    0 -0.37370415080E+02 -0.26565186931E+02 -0.16258831496E+03  0.19185036078E+03  0.90935931783E+02 0.  0.
        -11    1    3    3    0    0  0.57875971290E+02  0.69090671353E+01 -0.39722170524E+02  0.70535197544E+02  0.00000000000E+00 0.  1.
         12    1    3    3    0    0  0.11343591674E+02  0.69031762372E+02 -0.15963354809E+02  0.71755766214E+02  0.00000000000E+00 0. -1.
        -11    1    4    4    0    0  0.21452313172E+02  0.96486677931E+01 -0.83942877880E+02  0.87176288505E+02  0.00000000000E+00 0.  1.
         11    1    4    4    0    0 -0.58822728252E+02 -0.36213854724E+02 -0.78645437084E+02  0.10467407228E+03  0.00000000000E+00 0. -1.
         21    1    1    2  503  502  0.13431368120E+02  0.17162360289E+02  0.26927520370E+01  0.21959033990E+02  0.00000000000E+00 0. -1.
          3    1    1    2  501    0 -0.45280516003E+02 -0.66538002866E+02 -0.22909117021E+03  0.24281761720E+03  0.00000000000E+00 0. -1.
<scales pt_clust_5="13000.00000" pt_clust_6="13000.00000" pt_clust_7="13000.00000" pt_clust_8="13000.00000" pt_clust_9="21.79331" pt_clust_10="13000.00000"></scales>
<clustering>
<clus scale="   21.793">  1  9  2 -1</clus>
<clus scale="   81.163">  5  6 -1 -1</clus>
<clus scale="   90.936">  7  8 -1 -1</clus>
<clus scale="   78.181">  7 10 -1 -1</clus>
<clus scale="  142.627">  2  5  1 -1</clus>
<clus scale="   21.793">  1  5  2 -1</clus>
</clustering>
</event>
<event>
10    4  0.2759992E-005  0.1605313E+03  0.7546771E-02  0.1195258E+00
          2   -1    0    0  503    0 -0.00000000000E+00  0.00000000000E+00  0.14274246265E+04  0.14274246265E+04  0.00000000000E+00 0. -1.
         21   -1    0    0  501  502  0.00000000000E+00 -0.00000000000E+00 -0.52335627395E+02  0.52335627395E+02  0.00000000000E+00 0. -1.
         24    2    1    2    0    0  0.68646330548E+02 -0.62032576086E+02  0.62143212299E+03  0.63318107776E+03  0.78613195796E+02 0.  0.
         23    2    1    2    0    0 -0.46637581550E+02  0.10452853110E+03  0.56884750481E+03  0.58817156175E+03  0.96213431968E+02 0.  0.
        -13    1    3    3    0    0  0.37447237162E+02 -0.77550397806E+02  0.41686247189E+03  0.42566498592E+03  0.00000000000E+00 0.  1.
         14    1    3    3    0    0  0.31199093386E+02  0.15517821720E+02  0.20456965110E+03  0.20751609184E+03  0.00000000000E+00 0. -1.
        -13    1    4    4    0    0  0.22895637902E+02  0.43330732301E+02  0.11565820571E+03  0.12561283033E+03  0.00000000000E+00 0. -1.
         13    1    4    4    0    0 -0.69533219452E+02  0.61197798794E+02  0.45318929911E+03  0.46255873142E+03  0.00000000000E+00 0.  1.
         21    1    1    2  503  502  0.28386221574E+01 -0.87092307420E+02  0.25017395568E+02  0.90658688874E+02  0.00000000000E+00 0. -1.
          1    1    1    2  501    0 -0.24847371155E+02  0.44596352410E+02  0.15979197569E+03  0.16774892547E+03  0.00000000000E+00 0. -1.
<scales pt_clust_5="13000.00000" pt_clust_6="13000.00000" pt_clust_7="13000.00000" pt_clust_8="13000.00000" pt_clust_9="87.13856" pt_clust_10="13000.00000"></scales>
<clustering>
<clus scale="   78.613">  5  6 -1 -1</clus>
<clus scale="   87.139">  2  9  1 -1</clus>
<clus scale="   96.213">  7  8 -1 -1</clus>
<clus scale="   36.186">  7 10 -1 -1</clus>
<clus scale="  137.107">  1  5  2 -1</clus>
<clus scale="   87.139">  2  5  1 -1</clus>
</clustering>
</event>
<event>
10    4  0.2759992E-005  0.7329989E+03  0.7546771E-02  0.1012759E+00
         21   -1    0    0  501  502  0.00000000000E+00  0.00000000000E+00  0.92639004088E+03  0.92639004088E+03  0.00000000000E+00 0. -1.
          2   -1    0    0  503    0 -0.00000000000E+00 -0.00000000000E+00 -0.21045610308E+04  0.21045610308E+04  0.00000000000E+00 0. -1.
         24    2    1    2    0    0  0.42844725820E+02 -0.13610942652E+03 -0.55704259904E+03  0.58060962407E+03  0.80309600243E+02 0.  0.
         23    2    1    2    0    0 -0.90570461953E+01 -0.20788906431E+03 -0.11405132438E+03  0.25149824471E+03  0.83329282683E+02 0.  0.
        -13    1    3    3    0    0  0.19759687661E+02 -0.29691724829E+02 -0.46605655427E+02  0.58686718238E+02  0.00000000000E+00 0.  1.
         14    1    3    3    0    0  0.23085038159E+02 -0.10641770169E+03 -0.51043694362E+03  0.52192290583E+03  0.00000000000E+00 0. -1.
        -11    1    4    4    0    0 -0.21118993101E+02 -0.11622995648E+03 -0.10596716800E+03  0.15869611005E+03  0.00000000000E+00 0.  1.
         11    1    4    4    0    0  0.12061946906E+02 -0.91659107835E+02 -0.80841563798E+01  0.92802134655E+02  0.00000000000E+00 0. -1.
         21    1    1    2  503  502 -0.23900431625E+03  0.21992289842E+03  0.80341915481E+03  0.86658610810E+03  0.00000000000E+00 0. -1.
          1    1    1    2  501    0  0.20521663662E+03  0.12407559241E+03 -0.13104962213E+04  0.13322570948E+04  0.00000000000E+00 0. -1.
<scales pt_clust_5="13000.00000" pt_clust_6="13000.00000" pt_clust_7="13000.00000" pt_clust_8="13000.00000" pt_clust_9="322.25046" pt_clust_10="13000.00000"></scales>
<clustering>
<clus scale="   80.310">  5  6 -1 -1</clus>
<clus scale="   83.329">  7  8 -1 -1</clus>
<clus scale="  163.741">  2  5  1 -1</clus>
<clus scale="  242.181">  7 10 -1 -1</clus>
<clus scale="  322.250">  1  9  2 -1</clus>
<clus scale="  322.250">  1  5  2 -1</clus>
</clustering>
</event>
<event>
10    4  0.2759992E-005  0.1784106E+03  0.7546771E-02  0.1199770E+00
         21   -1    0    0  503  502  0.00000000000E+00  0.00000000000E+00  0.25034797962E+03  0.25034797962E+03  0.00000000000E+00 0. -1.
          4   -1    0    0  502    0 -0.00000000000E+00 -0.00000000000E+00 -0.13809902659E+03  0.13809902659E+03  0.00000000000E+00 0. -1.
         24    2    1    2    0    0  0.37547066963E+02  0.40206758869E+02  0.61663940193E+02  0.11583274366E+03  0.81169066078E+02 0.  0.
         23    2    1    2    0    0 -0.58398884798E+01  0.10907805429E+02  0.33145051638E+02  0.10190370970E+03  0.95565093450E+02 0.  0.
        -13    1    3    3    0    0 -0.18518133870E+02  0.33019982164E+02  0.97668640521E+01  0.39097725478E+02  0.00000000000E+00 0.  1.
         14    1    3    3    0    0  0.56065200833E+02  0.71867767050E+01  0.51897076141E+02  0.76735018185E+02  0.00000000000E+00 0. -1.
        -13    1    4    4    0    0  0.24307055686E+02 -0.13229177398E+02 -0.21461746822E+02  0.35020717688E+02  0.00000000000E+00 0.  1.
         13    1    4    4    0    0 -0.30146944166E+02  0.24136982827E+02  0.54606798460E+02  0.66882992013E+02  0.00000000000E+00 0. -1.
         21    1    1    2  503  501 -0.15864242241E+02 -0.22165103525E+02  0.88370535850E+02  0.92478741355E+02  0.00000000000E+00 0. -1.
          3    1    1    2  501    0 -0.15842936242E+02 -0.28949460774E+02 -0.70930574656E+02  0.78231811490E+02  0.00000000000E+00 0. -1.
<scales pt_clust_5="13000.00000" pt_clust_6="13000.00000" pt_clust_7="13000.00000" pt_clust_8="13000.00000" pt_clust_9="27.25740" pt_clust_10="13000.00000"></scales>
<clustering>
<clus scale="   27.257">  1  9  2 -1</clus>
<clus scale="   81.169">  5  6 -1 -1</clus>
<clus scale="   90.517">  2  5  1 -1</clus>
<clus scale="   95.565">  7  8 -1 -1</clus>
<clus scale="   10.928">  7 10 -1 -1</clus>
<clus scale="   27.257">  1  5  2 -1</clus>
</clustering>
</event>
<event>
10    4  0.2759992E-005  0.1619032E+03  0.7546771E-02  0.1206320E+00
          2   -1    0    0  503    0 -0.00000000000E+00  0.00000000000E+00  0.47371088615E+03  0.47371088615E+03  0.00000000000E+00 0. -1.
         21   -1    0    0  501  502  0.00000000000E+00 -0.00000000000E+00 -0.68004603218E+03  0.68004603218E+03  0.00000000000E+00 0.  1.
         24    2    1    2    0    0  0.24082816000E+02  0.61729068840E+02  0.44873508829E+03  0.46082024569E+03  0.81250596336E+02 0.  0.
         23    2    1    2    0    0 -0.51190674974E+02 -0.94241316217E+02 -0.50552771895E+03  0.52483733146E+03  0.91618988118E+02 0.  0.
        -13    1    3    3    0    0  0.32141249259E+02 -0.86017436898E+01  0.17086921086E+03  0.17407853721E+03  0.00000000000E+00 0.  1.
         14    1    3    3    0    0 -0.80584332597E+01  0.70330812530E+02  0.27786587743E+03  0.28674170848E+03  0.00000000000E+00 0. -1.
        -13    1    4    4    0    0 -0.26125256992E+02 -0.83962751572E+02 -0.47870443378E+03  0.48671368136E+03  0.00000000000E+00 0.  1.
         13    1    4    4    0    0 -0.25065417982E+02 -0.10278564645E+02 -0.26823285173E+02  0.38123650104E+02  0.00000000000E+00 0. -1.
         21    1    1    2  503  502  0.76760338943E+01  0.41937987676E+02 -0.13619069838E+03  0.14270817297E+03  0.00000000000E+00 0.  1.
          1    1    1    2  501    0  0.19431825080E+02 -0.94257402993E+01 -0.13351816984E+02  0.25391168207E+02  0.00000000000E+00 0. -1.
<scales pt_clust_5="13000.00000" pt_clust_6="13000.00000" pt_clust_7="13000.00000" pt_clust_8="13000.00000" pt_clust_9="42.63468" pt_clust_10="13000.00000"></scales>
<clustering>
<clus scale="   42.635">  2  9  1 -1</clus>
<clus scale="   81.251">  5  6 -1 -1</clus>
<clus scale="   91.619">  7  8 -1 -1</clus>
<clus scale="   21.240">  7 10 -1 -1</clus>
<clus scale="  105.140">  1  5  2 -1</clus>
<clus scale="   42.635">  2  5  1 -1</clus>
</clustering>
</event>
<event>
10    4  0.2759992E-005  0.2547269E+03  0.7546771E-02  0.1154819E+00
          2   -1    0    0  502    0 -0.00000000000E+00  0.00000000000E+00  0.28144143244E+03  0.28144143244E+03  0.00000000000E+00 0. -1.
         21   -1    0    0  503  502  0.00000000000E+00 -0.00000000000E+00 -0.24411895212E+03  0.24411895212E+03  0.00000000000E+00 0. -1.
         24    2    1    2    0    0 -0.14562135834E+02  0.48795066124E+02  0.33389105398E+02  0.94545005402E+02  0.72325039986E+02 0.  0.
         23    2    1    2    0    0  0.59230166835E+02  0.76390368531E+02  0.10889714402E+03  0.17342965122E+03  0.94210163355E+02 0.  0.
        -11    1    3    3    0    0 -0.42218539679E+02  0.42724388578E+02  0.24478399155E+02  0.64861163243E+02  0.00000000000E+00 0.  1.
         12    1    3    3    0    0  0.27656403846E+02  0.60706775459E+01  0.89107062433E+01  0.29683842159E+02  0.00000000000E+00 0. -1.
        -13    1    4    4    0    0  0.32449327889E+02  0.63881652498E+02  0.12169379061E+03  0.14122040603E+03  0.00000000000E+00 0. -1.
         13    1    4    4    0    0  0.26780838946E+02  0.12508716032E+02 -0.12796646595E+02  0.32209245187E+02  0.00000000000E+00 0.  1.
         21    1    1    2  503  501 -0.74869968385E+01 -0.19296237218E+02 -0.13882654002E+03  0.14036099211E+03  0.00000000000E+00 0. -1.
          1    1    1    2  501    0 -0.37181034163E+02 -0.10588919744E+03  0.33862770923E+02  0.11722473583E+03  0.00000000000E+00 0. -1.
<scales pt_clust_5="13000.00000" pt_clust_6="13000.00000" pt_clust_7="13000.00000" pt_clust_8="13000.00000" pt_clust_9="20.69782" pt_clust_10="13000.00000"></scales>
<clustering>
<clus scale="   20.698">  2  9  1 -1</clus>
<clus scale="   72.325">  5  6 -1 -1</clus>
<clus scale="   85.869">  1  5  2 -1</clus>
<clus scale="   94.210">  7  8 -1 -1</clus>
<clus scale="  107.208">  7 10 -1 -1</clus>
<clus scale="   20.698">  2  5  1 -1</clus>
</clustering>
</event>
<event>
10    4  0.2759992E-005  0.3728378E+03  0.7546771E-02  0.1107370E+00
          2   -1    0    0  502    0 -0.00000000000E+00  0.00000000000E+00  0.26244044124E+03  0.26244044124E+03  0.00000000000E+00 0. -1.
         21   -1    0    0  503  502  0.00000000000E+00 -0.00000000000E+00 -0.53046159355E+03  0.53046159355E+03  0.00000000000E+00 0. -1.
         24    2    1    2    0    0 -0.28156271176E+02  0.18104679306E+02  0.35937595061E+02  0.94001566222E+02  0.80151286292E+02 0.  0.
         23    2    1    2    0    0 -0.98143121721E+02 -0.11228809000E+03 -0.11252456199E+03  0.20820565275E+03  0.91908265621E+02 0.  0.
        -13    1    3    3    0    0  0.24105538435E+02  0.23302778997E+02  0.78145206932E+01  0.34426199701E+02  0.00000000000E+00 0.  1.
         14    1    3    3    0    0 -0.52261809611E+02 -0.51980996909E+01  0.28123074368E+02  0.59575366521E+02  0.00000000000E+00 0. -1.
        -11    1    4    4    0    0 -0.85966971788E+02 -0.37722536695E+02 -0.88256149495E+02  0.12885052556E+03  0.00000000000E+00 0.  1.
         11    1    4    4    0    0 -0.12176149933E+02 -0.74565553302E+02 -0.24268412496E+02  0.79355127191E+02  0.00000000000E+00 0. -1.
         21    1    1    2  503  501  0.21185905311E+02  0.49919569431E+02 -0.31668593542E+03  0.32129548346E+03  0.00000000000E+00 0. -1.
          1    1    1    2  501    0  0.10511348759E+03  0.44263841260E+02  0.12525175004E+03  0.16939933236E+03  0.00000000000E+00 0. -1.
<scales pt_clust_5="13000.00000" pt_clust_6="13000.00000" pt_clust_7="13000.00000" pt_clust_8="13000.00000" pt_clust_9="54.22920" pt_clust_10="13000.00000"></scales>
<clustering>
<clus scale="   54.229">  2  9  1 -1</clus>
<clus scale="   80.151">  5  6 -1 -1</clus>
<clus scale="   87.662">  1  5  2 -1</clus>
<clus scale="   91.908">  7  8 -1 -1</clus>
<clus scale="  111.364">  7 10 -1 -1</clus>
<clus scale="   54.229">  2  5  1 -1</clus>
</clustering>
</event>
<event>
10    4  0.2759992E-005  0.1885555E+03  0.7546771E-02  0.1189507E+00
          2   -1    0    0  502    0 -0.00000000000E+00  0.00000000000E+00  0.26770008992E+03  0.26770008992E+03  0.00000000000E+00 0. -1.
         21   -1    0    0  503  502  0.00000000000E+00 -0.00000000000E+00 -0.20086994705E+03  0.20086994705E+03  0.00000000000E+00 0. -1.
         24    2    1    2    0    0  0.77200881294E+01 -0.43327562662E+02  0.11298958246E+03  0.14867217992E+03  0.86022635916E+02 0.  0.
         23    2    1    2    0    0  0.45478919490E+02 -0.22603854598E+02  0.17141820314E+02  0.95886746235E+02  0.79505721424E+02 0.  0.
        -11    1    3    3    0    0 -0.29838006645E+02 -0.50245239043E+02  0.68256675881E+02  0.89854685406E+02  0.00000000000E+00 0.  1.
         12    1    3    3    0    0  0.37558094775E+02  0.69176763811E+01  0.44732906580E+02  0.58817494513E+02  0.00000000000E+00 0. -1.
        -11    1    4    4    0    0  0.24599467914E+02  0.28293135387E+02 -0.22412162506E+01  0.37558732433E+02  0.00000000000E+00 0.  1.
         11    1    4    4    0    0  0.20879451576E+02 -0.50896989985E+02  0.19383036564E+02  0.58328013802E+02  0.00000000000E+00 0. -1.
         21    1    1    2  503  501  0.18875485086E+02  0.10785235311E+02 -0.11670500005E+03  0.11871251945E+03  0.00000000000E+00 0. -1.
          1    1    1    2  501    0 -0.72074492706E+02  0.55146181950E+02  0.53403740149E+02  0.10529859137E+03  0.00000000000E+00 0. -1.
<scales pt_clust_5="13000.00000" pt_clust_6="13000.00000" pt_clust_7="13000.00000" pt_clust_8="13000.00000" pt_clust_9="21.73949" pt_clust_10="13000.00000"></scales>
<clustering>
<clus scale="   21.739">  2  9  1 -1</clus>
<clus scale="   79.506">  7  8 -1 -1</clus>
<clus scale="   86.023">  5  6 -1 -1</clus>
<clus scale="   88.341">  7 10 -1 -1</clus>
<clus scale="   96.024">  1  5  2 -1</clus>
<clus scale="   21.739">  2  5  1 -1</clus>
</clustering>
</event>
<event>
10    4  0.2759992E-005  0.4293059E+03  0.7546771E-02  0.1042211E+00
         21   -1    0    0  503  502  0.00000000000E+00  0.00000000000E+00  0.27981036582E+03  0.27981036582E+03  0.00000000000E+00 0. -1.
          2   -1    0    0  502    0 -0.00000000000E+00 -0.00000000000E+00 -0.67803290419E+03  0.67803290419E+03  0.00000000000E+00 0. -1.
         24    2    1    2    0    0  0.28973802909E+03 -0.13574549055E+03 -0.28389788831E+02  0.33117132574E+03  0.80582275833E+02 0.  0.
         23    2    1    2    0    0 -0.19113071601E+02 -0.33177506782E+02 -0.57085112179E+02  0.11315004735E+03  0.89878622154E+02 0.  0.
        -11    1    3    3    0    0  0.15931488057E+03 -0.11331787506E+03 -0.35245079836E+02  0.19865645631E+03  0.00000000000E+00 0.  1.
         12    1    3    3    0    0  0.13042314852E+03 -0.22427615483E+02  0.68552910049E+01  0.13251486944E+03  0.00000000000E+00 0. -1.
        -13    1    4    4    0    0 -0.28973965605E+02 -0.51388064062E+02 -0.67767707593E+02  0.89848127433E+02  0.00000000000E+00 0.  1.
         13    1    4    4    0    0  0.98608940046E+01  0.18210557279E+02  0.10682595414E+02  0.23301919916E+02  0.00000000000E+00 0. -1.
         21    1    1    2  503  501  0.20659890550E+02  0.10757140295E+02  0.29162251816E+02  0.37322701883E+02  0.00000000000E+00 0. -1.
          1    1    1    2  501    0 -0.29128484804E+03  0.15816585703E+03 -0.34190988918E+03  0.47619919503E+03  0.00000000000E+00 0. -1.
<scales pt_clust_5="13000.00000" pt_clust_6="13000.00000" pt_clust_7="13000.00000" pt_clust_8="13000.00000" pt_clust_9="23.29264" pt_clust_10="13000.00000"></scales>
<clustering>
<clus scale="   23.293">  1  9  2 -1</clus>
<clus scale="   80.582">  5  6 -1 -1</clus>
<clus scale="   89.879">  7  8 -1 -1</clus>
<clus scale="  327.952">  7 10 -1 -1</clus>
<clus scale="  338.571">  2  5  1 -1</clus>
<clus scale="   23.293">  1  5  2 -1</clus>
</clustering>
</event>
<event>
10    4  0.2759992E-005  0.4954735E+03  0.7546771E-02  0.1066502E+00
          2   -1    0    0  502    0 -0.00000000000E+00  0.00000000000E+00  0.26848286182E+04  0.26848286182E+04  0.00000000000E+00 0. -1.
         21   -1    0    0  503  502  0.00000000000E+00 -0.00000000000E+00 -0.80882515308E+03  0.80882515308E+03  0.00000000000E+00 0. -1.
         24    2    1    2    0    0  0.41861013794E+01 -0.78448948208E+02  0.60056288110E+03  0.61069089831E+03  0.78075849041E+02 0.  0.
         23    2    1    2    0    0  0.21692646295E+03 -0.57958910662E+01  0.10133688646E+04  0.10403720795E+04  0.91470899005E+02 0.  0.
        -11    1    3    3    0    0 -0.20630777419E+02 -0.39705680084E+02  0.12245137844E+03  0.13037066422E+03  0.00000000000E+00 0.  1.
         12    1    3    3    0    0  0.24816878798E+02 -0.38743268124E+02  0.47811150266E+03  0.48032023409E+03  0.00000000000E+00 0. -1.
        -11    1    4    4    0    0  0.76590290686E+02 -0.45128266733E+02  0.42776264463E+03  0.43690217810E+03  0.00000000000E+00 0.  1.
         11    1    4    4    0    0  0.14033617226E+03  0.39332375667E+02  0.58560621997E+03  0.60346990140E+03  0.00000000000E+00 0. -1.
         21    1    1    2  503  501 -0.52809761279E+02  0.23715759065E+03 -0.75877432909E+03  0.79672521999E+03  0.00000000000E+00 0. -1.
          1    1    1    2  501    0 -0.16830280305E+03 -0.15291275137E+03  0.10208460485E+04  0.10458655735E+04  0.00000000000E+00 0. -1.
<scales pt_clust_5="13000.00000" pt_clust_6="13000.00000" pt_clust_7="13000.00000" pt_clust_8="13000.00000" pt_clust_9="242.25913" pt_clust_10="13000.00000"></scales>
<clustering>
<clus scale="   78.076">  5  6 -1 -1</clus>
<clus scale="   91.471">  7  8 -1 -1</clus>
<clus scale="  110.759">  1  5  2 -1</clus>
<clus scale="  242.259">  2  9  1 -1</clus>
<clus scale="  205.803">  7 10 -1 -1</clus>
<clus scale="  242.259">  2  5  1 -1</clus>
</clustering>
</event>
<event>
10    4  0.2759992E-005  0.1925759E+03  0.7546771E-02  0.1190790E+00
          2   -1    0    0  503    0 -0.00000000000E+00  0.00000000000E+00  0.39821377883E+03  0.39821377883E+03  0.00000000000E+00 0. -1.
         21   -1    0    0  501  502  0.00000000000E+00 -0.00000000000E+00 -0.20648951500E+03  0.20648951500E+03  0.00000000000E+00 0. -1.
         24    2    1    2    0    0  0.19695985580E+02  0.28273853772E+02  0.26391223955E+03  0.27770035975E+03  0.79249460379E+02 0.  0.
         23    2    1    2    0    0 -0.32893561150E+02  0.54040621842E+01  0.10637696298E+02  0.96823811232E+02  0.90280117333E+02 0.  0.
        -11    1    3    3    0    0  0.32408848937E+02 -0.16817337327E+02  0.80399666920E+02  0.88302110762E+02  0.00000000000E+00 0.  1.
         12    1    3    3    0    0 -0.12712863357E+02  0.45091191100E+02  0.18351257263E+03  0.18939824899E+03  0.00000000000E+00 0. -1.
        -13    1    4    4    0    0 -0.41084794368E+02 -0.35573450166E+02  0.82430252407E+01  0.54967064230E+02  0.00000000000E+00 0. -1.
         13    1    4    4    0    0  0.81912332180E+01  0.40977512350E+02  0.23946710570E+01  0.41856747001E+02  0.00000000000E+00 0.  1.
         21    1    1    2  503  502 -0.32260627625E+02  0.76473161573E+02 -0.73134010047E+02  0.11062312580E+03  0.00000000000E+00 0. -1.
          1    1    1    2  501    0  0.45458203195E+02 -0.11015107753E+03 -0.96916619707E+01  0.11955599705E+03  0.00000000000E+00 0. -1.
<scales pt_clust_5="13000.00000" pt_clust_6="13000.00000" pt_clust_7="13000.00000" pt_clust_8="13000.00000" pt_clust_9="82.99935" pt_clust_10="13000.00000"></scales>
<clustering>
<clus scale="   79.249">  5  6 -1 -1</clus>
<clus scale="   82.999">  2  9  1 -1</clus>
<clus scale="   87.615">  1  5  2 -1</clus>
<clus scale="   90.280">  7  8 -1 -1</clus>
<clus scale="   65.417">  7 10 -1 -1</clus>
<clus scale="   82.999">  2  5  1 -1</clus>
</clustering>
</event>
<event>
10    4  0.2759992E-005  0.8107611E+03  0.7546771E-02  0.9633397E-01
         21   -1    0    0  503  502  0.00000000000E+00  0.00000000000E+00  0.13313184901E+04  0.13313184901E+04  0.00000000000E+00 0.  1.
          2   -1    0    0  502    0 -0.00000000000E+00 -0.00000000000E+00 -0.57953287358E+03  0.57953287358E+03  0.00000000000E+00 0. -1.
         24    2    1    2    0    0  0.38798053007E+03  0.44255767227E+03  0.66298122489E+03  0.89033311553E+03  0.82236044750E+02 0.  0.
         23    2    1    2    0    0  0.16085293817E+02  0.16517321942E+02  0.12706236745E+03  0.15898249814E+03  0.92730959728E+02 0.  0.
        -11    1    3    3    0    0  0.38092424362E+03  0.44281626534E+03  0.64087981212E+03  0.86713116529E+03  0.00000000000E+00 0.  1.
         12    1    3    3    0    0  0.70562864469E+01 -0.25859306713E+00  0.22101412766E+02  0.23201950242E+02  0.00000000000E+00 0. -1.
        -11    1    4    4    0    0  0.51911700069E+02  0.26346250884E+02  0.72631671991E+02  0.93082271759E+02  0.00000000000E+00 0. -1.
         11    1    4    4    0    0 -0.35826406252E+02 -0.98289289419E+01  0.54430695462E+02  0.65900226385E+02  0.00000000000E+00 0.  1.
         21    1    1    2  503  501 -0.23535959716E+02  0.26321405637E+02  0.19795123731E+03  0.20107573237E+03  0.00000000000E+00 0.  1.
          1    1    1    2  501    0 -0.38052986417E+03 -0.48539639985E+03 -0.23620921315E+03  0.66046001763E+03  0.00000000000E+00 0. -1.
<scales pt_clust_5="13000.00000" pt_clust_6="13000.00000" pt_clust_7="13000.00000" pt_clust_8="13000.00000" pt_clust_9="35.30946" pt_clust_10="13000.00000"></scales>
<clustering>
<clus scale="   35.309">  1  9  2 -1</clus>
<clus scale="   82.236">  5  6 -1 -1</clus>
<clus scale="   92.731">  7  8 -1 -1</clus>
<clus scale="  597.655">  2  5  1 -1</clus>
<clus scale="   44.558">  7 10 -1 -1</clus>
<clus scale="   35.309">  1  5  2 -1</clus>
</clustering>
</event>
<event>
10    4  0.2759992E-005  0.2374014E+03  0.7546771E-02  0.1152167E+00
          2   -1    0    0  502    0 -0.00000000000E+00  0.00000000000E+00  0.79082385768E+03  0.79082385768E+03  0.00000000000E+00 0. -1.
         21   -1    0    0  503  502  0.00000000000E+00 -0.00000000000E+00 -0.87463806919E+02  0.87463806919E+02  0.00000000000E+00 0.  1.
         24    2    1    2    0    0 -0.80277365961E+01 -0.82957468085E+02  0.62992719487E+02  0.13130976258E+03  0.79547375656E+02 0.  0.
         23    2    1    2    0    0 -0.37455723875E+02  0.70900308049E+01  0.13678128915E+03  0.16896745867E+03  0.91584284898E+02 0.  0.
        -13    1    3    3    0    0 -0.32587747675E+02 -0.49869312393E+02  0.44768230357E+01  0.59740702721E+02  0.00000000000E+00 0.  1.
         14    1    3    3    0    0  0.24560011079E+02 -0.33088155692E+02  0.58515896452E+02  0.71569059857E+02  0.00000000000E+00 0. -1.
        -13    1    4    4    0    0 -0.53985697873E+00 -0.35824406598E+02  0.85026068324E+02  0.92266526153E+02  0.00000000000E+00 0. -1.
         13    1    4    4    0    0 -0.36915866896E+02  0.42914437403E+02  0.51755220821E+02  0.76700932514E+02  0.00000000000E+00 0.  1.
         21    1    1    2  503  501 -0.26189119170E+02  0.10609362004E+02 -0.26737432063E+02  0.38901398411E+02  0.00000000000E+00 0.  1.
          1    1    1    2  501    0  0.71672579641E+02  0.65258075276E+02  0.53032347419E+03  0.53910904494E+03  0.00000000000E+00 0. -1.
<scales pt_clust_5="13000.00000" pt_clust_6="13000.00000" pt_clust_7="13000.00000" pt_clust_8="13000.00000" pt_clust_9="28.25648" pt_clust_10="13000.00000"></scales>
<clustering>
<clus scale="   28.256">  2  9  1 -1</clus>
<clus scale="   79.547">  5  6 -1 -1</clus>
<clus scale="   91.584">  7  8 -1 -1</clus>
<clus scale="   95.970">  7 10 -1 -1</clus>
<clus scale="  112.910">  1  5  2 -1</clus>
<clus scale="   28.256">  2  5  1 -1</clus>
</clustering>
</event>
<event>
10    4  0.2759992E-005  0.5408760E+03  0.7546771E-02  0.1058315E+00
         21   -1    0    0  503  502  0.00000000000E+00  0.00000000000E+00  0.69341475706E+03  0.69341475706E+03  0.00000000000E+00 0. -1.
         -3   -1    0    0    0  501 -0.00000000000E+00 -0.00000000000E+00 -0.72793565754E+03  0.72793565754E+03  0.00000000000E+00 0.  1.
         24    2    1    2    0    0 -0.30402835245E+02  0.63801833679E+02 -0.34117666614E+02  0.11226417821E+03  0.80275925174E+02 0.  0.
         23    2    1    2    0    0  0.20851895139E+02  0.29436776713E+02 -0.31952276263E+03  0.33426947127E+03  0.91323371761E+02 0.  0.
        -11    1    3    3    0    0  0.43728212615E+01  0.60936897286E+02 -0.44814591434E+02  0.75767899681E+02  0.00000000000E+00 0.  1.
         12    1    3    3    0    0 -0.34775656506E+02  0.28649363927E+01  0.10696924820E+02  0.36496278530E+02  0.00000000000E+00 0. -1.
        -13    1    4    4    0    0  0.55079331761E+02  0.24502863145E+02 -0.15854197792E+03  0.16961627827E+03  0.00000000000E+00 0. -1.
         13    1    4    4    0    0 -0.34227436622E+02  0.49339135679E+01 -0.16098078471E+03  0.16465319301E+03  0.00000000000E+00 0.  1.
         21    1    1    2  503  501  0.12723452742E+03  0.26466506471E+03  0.48195914451E+03  0.56437650414E+03  0.00000000000E+00 0. -1.
         -4    1    1    2    0  502 -0.11768358731E+03 -0.35790367510E+03 -0.16283961575E+03  0.41044026098E+03  0.00000000000E+00 0.  1.
<scales pt_clust_5="13000.00000" pt_clust_6="13000.00000" pt_clust_7="13000.00000" pt_clust_8="13000.00000" pt_clust_9="296.47033" pt_clust_10="13000.00000"></scales>
<clustering>
<clus scale="   80.276">  5  6 -1 -1</clus>
<clus scale="   91.323">  7  8 -1 -1</clus>
<clus scale="  106.954">  2  5  1 -1</clus>
<clus scale="  296.470">  1  9  2 -1</clus>
<clus scale="  130.726">  7 10 -1 -1</clus>
<clus scale="  296.470">  1  5  2 -1</clus>
</clustering>
</event>
<event>
10    4  0.2759992E-005  0.1506788E+03  0.7546771E-02  0.1223663E+00
         21   -1    0    0  501  502  0.00000000000E+00  0.00000000000E+00  0.58917184649E+02  0.58917184649E+02  0.00000000000E+00 0. -1.
          2   -1    0    0  503    0 -0.00000000000E+00 -0.00000000000E+00 -0.47714037099E+03  0.47714037099E+03  0.00000000000E+00 0. -1.
         24    2    1    2    0    0 -0.25470318193E+02 -0.85283904464E+01 -0.12936090782E+03  0.15507442551E+03  0.81193364408E+02 0.  0.
         23    2    1    2    0    0 -0.37979384115E+01 -0.78324178053E+00 -0.20897889435E+03  0.22849379361E+03  0.92315749635E+02 0.  0.
        -13    1    3    3    0    0 -0.10413695792E+02  0.36476090821E+02 -0.61754243062E+02  0.72474387185E+02  0.00000000000E+00 0.  1.
         14    1    3    3    0    0 -0.15056622401E+02 -0.45004481267E+02 -0.67606664757E+02  0.82600038328E+02  0.00000000000E+00 0. -1.
        -11    1    4    4    0    0  0.29908951696E+02 -0.31293050375E+02 -0.13389047125E+03  0.14071410265E+03  0.00000000000E+00 0.  1.
         11    1    4    4    0    0 -0.33706890107E+02  0.30509808594E+02 -0.75088423094E+02  0.87779690953E+02  0.00000000000E+00 0. -1.
         21    1    1    2  503  502 -0.31737604088E+02 -0.35523987799E+01  0.17832584740E+02  0.36577262457E+02  0.00000000000E+00 0. -1.
          1    1    1    2  501    0  0.61005860693E+02  0.12864031007E+02 -0.97715968920E+02  0.11591207407E+03  0.00000000000E+00 0. -1.
<scales pt_clust_5="13000.00000" pt_clust_6="13000.00000" pt_clust_7="13000.00000" pt_clust_8="13000.00000" pt_clust_9="31.93580" pt_clust_10="13000.00000"></scales>
<clustering>
<clus scale="   31.936">  1  9  2 -1</clus>
<clus scale="   81.193">  5  6 -1 -1</clus>
<clus scale="   90.341">  2  5  1 -1</clus>
<clus scale="   92.316">  7  8 -1 -1</clus>
<clus scale="   42.890">  7 10 -1 -1</clus>
<clus scale="   31.936">  1  5  2 -1</clus>
</clustering>
</event>
<event>
10    4  0.2759992E-005  0.2005518E+03  0.7546771E-02  0.1178629E+00
          2   -1    0    0  503    0 -0.00000000000E+00  0.00000000000E+00  0.67728318416E+03  0.67728318416E+03  0.00000000000E+00 0. -1.
         21   -1    0    0  501  502  0.00000000000E+00 -0.00000000000E+00 -0.39065448415E+03  0.39065448415E+03  0.00000000000E+00 0. -1.
         24    2    1    2    0    0 -0.58574608201E+02 -0.67112487796E+02  0.24257166866E+03  0.27001606774E+03  0.78310865500E+02 0.  0.
         23    2    1    2    0    0  0.94051041696E+02  0.44240607676E+01  0.32571598830E+03  0.35103750817E+03  0.90946447716E+02 0.  0.
        -11    1    3    3    0    0 -0.64879991685E+02 -0.74940781647E+02  0.23996469250E+03  0.25963163852E+03  0.00000000000E+00 0.  1.
         12    1    3    3    0    0  0.63053834840E+01  0.78282938512E+01  0.26069761661E+01  0.10384429220E+02  0.00000000000E+00 0. -1.
        -11    1    4    4    0    0  0.88607240812E+02 -0.25880486118E+02  0.18212602294E+03  0.20418357161E+03  0.00000000000E+00 0.  1.
         11    1    4    4    0    0  0.54438008834E+01  0.30304546885E+02  0.14358996536E+03  0.14685393656E+03  0.00000000000E+00 0. -1.
         21    1    1    2  503  502 -0.83233897696E+00  0.11275222047E+03 -0.34263888473E+03  0.36071479223E+03  0.00000000000E+00 0. -1.
          1    1    1    2  501    0 -0.34644094517E+02 -0.50063793440E+02  0.60979927777E+02  0.86169300161E+02  0.00000000000E+00 0. -1.
<scales pt_clust_5="13000.00000" pt_clust_6="13000.00000" pt_clust_7="13000.00000" pt_clust_8="13000.00000" pt_clust_9="112.75529" pt_clust_10="13000.00000"></scales>
<clustering>
<clus scale="   78.311">  5  6 -1 -1</clus>
<clus scale="   90.946">  7  8 -1 -1</clus>
<clus scale="   60.882">  7 10 -1 -1</clus>
<clus scale="  112.755">  2  9  1 -1</clus>
<clus scale="  101.734">  1  5  2 -1</clus>
<clus scale="  112.755">  2  5  1 -1</clus>
</clustering>
</event>
<event>
10    4  0.2759992E-005  0.5375261E+03  0.7546771E-02  0.1056557E+00
         21   -1    0    0  503  502  0.00000000000E+00  0.00000000000E+00  0.25852533659E+03  0.25852533659E+03  0.00000000000E+00 0.  1.
          2   -1    0    0  502    0 -0.00000000000E+00 -0.00000000000E+00 -0.12392116234E+04  0.12392116234E+04  0.00000000000E+00 0. -1.
         24    2    1    2    0    0  0.78851533096E+02  0.19502100480E+02 -0.91069692190E+03  0.91787131517E+03  0.80752532116E+02 0.  0.
         23    2    1    2    0    0  0.17528844915E+03  0.26070488435E+02  0.10234953282E+03  0.22447209790E+03  0.92231150352E+02 0.  0.
        -11    1    3    3    0    0  0.73845226898E+01  0.36238587993E+02 -0.19970380250E+03  0.20309942188E+03  0.00000000000E+00 0.  1.
         12    1    3    3    0    0  0.71467010406E+02 -0.16736487513E+02 -0.71099311940E+03  0.71477189328E+03  0.00000000000E+00 0. -1.
        -11    1    4    4    0    0  0.15547805615E+03 -0.12952957156E+02  0.79963826988E+02  0.17531519806E+03  0.00000000000E+00 0.  1.
         11    1    4    4    0    0  0.19810392999E+02  0.39023445591E+02  0.22385705828E+02  0.49156899842E+02  0.00000000000E+00 0. -1.
         21    1    1    2  503  501  0.25971234260E+01 -0.29347435445E+02  0.18763135659E+02  0.34929533021E+02  0.00000000000E+00 0.  1.
          1    1    1    2  501    0 -0.25673710568E+03 -0.16225153470E+02 -0.19110203335E+03  0.32046401387E+03  0.00000000000E+00 0. -1.
<scales pt_clust_5="13000.00000" pt_clust_6="13000.00000" pt_clust_7="13000.00000" pt_clust_8="13000.00000" pt_clust_9="29.46213" pt_clust_10="13000.00000"></scales>
<clustering>
<clus scale="   29.462">  1  9  2 -1</clus>
<clus scale="   80.753">  5  6 -1 -1</clus>
<clus scale="   92.231">  7  8 -1 -1</clus>
<clus scale="  114.489">  2  5  1 -1</clus>
<clus scale="  193.907">  7 10 -1 -1</clus>
<clus scale="   29.462">  1  5  2 -1</clus>
</clustering>
</event>
<event>
10    4  0.2759992E-005  0.4221969E+03  0.7546771E-02  0.1079692E+00
         21   -1    0    0  503  502  0.00000000000E+00  0.00000000000E+00  0.15894961871E+03  0.15894961871E+03  0.00000000000E+00 0.  1.
          2   -1    0    0  502    0 -0.00000000000E+00 -0.00000000000E+00 -0.95899304590E+03  0.95899304590E+03  0.00000000000E+00 0. -1.
         24    2    1    2    0    0  0.33550803700E+02  0.77569999306E+02 -0.10475890832E+03  0.15600517168E+03  0.78869661459E+02 0.  0.
         23    2    1    2    0    0  0.24311386839E+02 -0.27061649373E+03 -0.39365815614E+03  0.48694504923E+03  0.91238187550E+02 0.  0.
        -13    1    3    3    0    0  0.36986402862E+02  0.91352532209E+02 -0.77913687373E+02  0.12563368106E+03  0.00000000000E+00 0.  1.
         14    1    3    3    0    0 -0.34355991620E+01 -0.13782532903E+02 -0.26845220944E+02  0.30371490618E+02  0.00000000000E+00 0. -1.
        -11    1    4    4    0    0 -0.10097532484E+02 -0.17383516807E+03 -0.18315327928E+03  0.25271673773E+03  0.00000000000E+00 0.  1.
         11    1    4    4    0    0  0.34408919324E+02 -0.96781325658E+02 -0.21050487685E+03  0.23422831149E+03  0.00000000000E+00 0. -1.
         21    1    1    2  503  501 -0.65006155549E+02  0.60274977529E+02  0.48088824674E+02  0.10085339971E+03  0.00000000000E+00 0.  1.
          1    1    1    2  501    0  0.71439650095E+01  0.13277151689E+03 -0.34971518741E+03  0.37413904399E+03  0.00000000000E+00 0. -1.
<scales pt_clust_5="13000.00000" pt_clust_6="13000.00000" pt_clust_7="13000.00000" pt_clust_8="13000.00000" pt_clust_9="88.65029" pt_clust_10="13000.00000"></scales>
<clustering>
<clus scale="   78.870">  5  6 -1 -1</clus>
<clus scale="   88.650">  1  9  2 -1</clus>
<clus scale="   91.238">  7  8 -1 -1</clus>
<clus scale="  124.898">  2  5  1 -1</clus>
<clus scale="  192.883">  7 10 -1 -1</clus>
<clus scale="   88.650">  1  5  2 -1</clus>
</clustering>
</event>
<event>
10    4  0.2759992E-005  0.3376370E+03  0.7546771E-02  0.1112469E+00
         21   -1    0    0  501  502  0.00000000000E+00  0.00000000000E+00  0.58735286062E+02  0.58735286062E+02  0.00000000000E+00 0.  1.
          2   -1    0    0  503    0 -0.00000000000E+00 -0.00000000000E+00 -0.12292318930E+04  0.12292318930E+04  0.00000000000E+00 0. -1.
         24    2    1    2    0    0 -0.22307973009E+02  0.60733461128E+02 -0.21584207447E+03  0.23930596710E+03  0.80581299435E+02 0.  0.
         23    2    1    2    0    0  0.86176489053E+02 -0.10253504808E+03 -0.17493141019E+03  0.23879623619E+03  0.92102230152E+02 0.  0.
        -11    1    3    3    0    0 -0.76521857303E+01  0.59995142295E+02 -0.21632791752E+03  0.22462355385E+03  0.00000000000E+00 0.  1.
         12    1    3    3    0    0 -0.14655787278E+02  0.73831883317E+00  0.48584304984E+00  0.14682413252E+02  0.00000000000E+00 0. -1.
        -13    1    4    4    0    0  0.68646344103E+02 -0.46988712235E+02 -0.40991129782E+02  0.92739055187E+02  0.00000000000E+00 0.  1.
         13    1    4    4    0    0  0.17530144950E+02 -0.55546335840E+02 -0.13394028041E+03  0.14605718100E+03  0.00000000000E+00 0. -1.
         21    1    1    2  503  502 -0.72848966009E+02 -0.38901919228E+02 -0.12307602304E+03  0.14821618878E+03  0.00000000000E+00 0.  1.
          1    1    1    2  501    0  0.89804499650E+01  0.80703506175E+02 -0.65664709927E+03  0.66164878702E+03  0.00000000000E+00 0. -1.
<scales pt_clust_5="13000.00000" pt_clust_6="13000.00000" pt_clust_7="13000.00000" pt_clust_8="13000.00000" pt_clust_9="82.58530" pt_clust_10="13000.00000"></scales>
<clustering>
<clus scale="   80.581">  5  6 -1 -1</clus>
<clus scale="   82.585">  1  9  2 -1</clus>
<clus scale="   92.102">  7  8 -1 -1</clus>
<clus scale="   78.757">  7 10 -1 -1</clus>
<clus scale="  103.659">  2  5  1 -1</clus>
<clus scale="   82.585">  1  5  2 -1</clus>
</clustering>
</event>
<event>
10    4  0.2759992E-005  0.6175666E+03  0.7546771E-02  0.1028029E+00
         21   -1    0    0  503  502  0.00000000000E+00  0.00000000000E+00  0.37034064530E+03  0.37034064530E+03  0.00000000000E+00 0. -1.
          2   -1    0    0  502    0 -0.00000000000E+00 -0.00000000000E+00 -0.91603878526E+03  0.91603878526E+03  0.00000000000E+00 0. -1.
         24    2    1    2    0    0 -0.15102645333E+03  0.39746060139E+02 -0.45740892330E+03  0.49053321406E+03  0.83732741980E+02 0.  0.
         23    2    1    2    0    0 -0.10854446920E+03 -0.21676903219E+03 -0.21480571819E+03  0.33648938160E+03  0.91175063736E+02 0.  0.
        -11    1    3    3    0    0 -0.41990158206E+02 -0.19109320274E+02 -0.70371185124E+02  0.84145369470E+02  0.00000000000E+00 0.  1.
         12    1    3    3    0    0 -0.10903629512E+03  0.58855380414E+02 -0.38703773817E+03  0.40638784459E+03  0.00000000000E+00 0. -1.
        -11    1    4    4    0    0 -0.87738184762E+02 -0.74174694368E+02 -0.96760853907E+02  0.15020831268E+03  0.00000000000E+00 0.  1.
         11    1    4    4    0    0 -0.20806284440E+02 -0.14259433783E+03 -0.11804486428E+03  0.18628106891E+03  0.00000000000E+00 0. -1.
         21    1    1    2  503  501  0.61990957695E+02 -0.57275828636E+02  0.12745822614E+03  0.15286922120E+03  0.00000000000E+00 0. -1.
          1    1    1    2  501    0  0.19757996484E+03  0.23429880069E+03 -0.94172460525E+00  0.30648761371E+03  0.00000000000E+00 0. -1.
<scales pt_clust_5="13000.00000" pt_clust_6="13000.00000" pt_clust_7="13000.00000" pt_clust_8="13000.00000" pt_clust_9="84.40023" pt_clust_10="13000.00000"></scales>
<clustering>
<clus scale="   83.733">  5  6 -1 -1</clus>
<clus scale="   84.400">  1  9  2 -1</clus>
<clus scale="   91.175">  7  8 -1 -1</clus>
<clus scale="  172.516">  2  5  1 -1</clus>
<clus scale="  279.765">  7 10 -1 -1</clus>
<clus scale="   84.400">  1  5  2 -1</clus>
</clustering>
</event>
<event>
10    4  0.2759992E-005  0.2305142E+03  0.7546771E-02  0.1157516E+00
          2   -1    0    0  503    0 -0.00000000000E+00  0.00000000000E+00  0.88111130294E+03  0.88111130294E+03  0.00000000000E+00 0. -1.
         21   -1    0    0  501  502  0.00000000000E+00 -0.00000000000E+00 -0.23488696593E+03  0.23488696593E+03  0.00000000000E+00 0. -1.
         24    2    1    2    0    0 -0.73332852733E+02 -0.29396779327E+02  0.35758258805E+03  0.37432539919E+03  0.77539146736E+02 0.  0.
         23    2    1    2    0    0 -0.51419773653E+02 -0.63508770211E+01  0.23536079163E+03  0.25789163619E+03  0.91809950549E+02 0.  0.
        -11    1    3    3    0    0  0.20147214008E+01 -0.34312799927E+02  0.13394118472E+03  0.13828112057E+03  0.00000000000E+00 0.  1.
         12    1    3    3    0    0 -0.75347574134E+02  0.49160206002E+01  0.22364140332E+03  0.23604427862E+03  0.00000000000E+00 0. -1.
        -13    1    4    4    0    0 -0.71613755928E+01 -0.25182575276E+02  0.10940611406E+02  0.28375066094E+02  0.00000000000E+00 0. -1.
         13    1    4    4    0    0 -0.44258398060E+02  0.18831698254E+02  0.22442018022E+03  0.22951657010E+03  0.00000000000E+00 0.  1.
         21    1    1    2  503  502  0.14002392624E+01  0.29271850570E+02 -0.19992035935E+03  0.20205680387E+03  0.00000000000E+00 0. -1.
          1    1    1    2  501    0  0.12335238712E+03  0.64758057784E+01  0.25320131670E+03  0.28172442962E+03  0.00000000000E+00 0. -1.
<scales pt_clust_5="13000.00000" pt_clust_6="13000.00000" pt_clust_7="13000.00000" pt_clust_8="13000.00000" pt_clust_9="29.30532" pt_clust_10="13000.00000"></scales>
<clustering>
<clus scale="   29.305">  2  9  1 -1</clus>
<clus scale="   77.539">  5  6 -1 -1</clus>
<clus scale="   91.810">  7  8 -1 -1</clus>
<clus scale="  108.770">  1  5  2 -1</clus>
<clus scale="   85.763">  7 10 -1 -1</clus>
<clus scale="   29.305">  2  5  1 -1</clus>
</clustering>
</event>
<event>
10    4  0.2759992E-005  0.9747347E+03  0.7546771E-02  0.9732408E-01
          2   -1    0    0  503    0 -0.00000000000E+00  0.00000000000E+00  0.18854818840E+04  0.18854818840E+04  0.00000000000E+00 0. -1.
         21   -1    0    0  501  502  0.00000000000E+00 -0.00000000000E+00 -0.43091543114E+03  0.43091543114E+03  0.00000000000E+00 0. -1.
         24    2    1    2    0    0  0.10609695274E+03 -0.22601739899E+03  0.21810720467E+03  0.34161695000E+03  0.82407279853E+02 0.  0.
         23    2    1    2    0    0  0.29415495007E+03  0.22735291366E+03  0.13034963556E+04  0.13587175039E+04  0.93776458550E+02 0.  0.
        -11    1    3    3    0    0  0.47681323934E+02 -0.27703318178E+02  0.33998822883E+02  0.64783504441E+02  0.00000000000E+00 0.  1.
         12    1    3    3    0    0  0.58415628806E+02 -0.19831408081E+03  0.18410838179E+03  0.27683344556E+03  0.00000000000E+00 0. -1.
        -13    1    4    4    0    0  0.28348677256E+03  0.18535763429E+03  0.11887939728E+04  0.12361040865E+04  0.00000000000E+00 0. -1.
         13    1    4    4    0    0  0.10668177509E+02  0.41995279371E+02  0.11470238282E+03  0.12261341739E+03  0.00000000000E+00 0.  1.
         21    1    1    2  503  502 -0.45921820848E+02  0.43416739260E+02 -0.21899729171E+03  0.22793341276E+03  0.00000000000E+00 0. -1.
          1    1    1    2  501    0 -0.35433008196E+03 -0.44752253927E+02  0.15196018433E+03  0.38812944856E+03  0.00000000000E+00 0. -1.
<scales pt_clust_5="13000.00000" pt_clust_6="13000.00000" pt_clust_7="13000.00000" pt_clust_8="13000.00000" pt_clust_9="63.19673" pt_clust_10="13000.00000"></scales>
<clustering>
<clus scale="   63.197">  2  9  1 -1</clus>
<clus scale="   82.407">  5  6 -1 -1</clus>
<clus scale="   93.776">  7  8 -1 -1</clus>
<clus scale="  246.459">  1  5  2 -1</clus>
<clus scale="  367.876">  7 10 -1 -1</clus>
<clus scale="   63.197">  2  5  1 -1</clus>
</clustering>
</event>
<event>
10    4  0.2759992E-005  0.7630778E+03  0.7546771E-02  0.9756298E-01
         21   -1    0    0  501  502  0.00000000000E+00  0.00000000000E+00  0.38850035407E+03  0.38850035407E+03  0.00000000000E+00 0. -1.
          2   -1    0    0  503    0 -0.00000000000E+00 -0.00000000000E+00 -0.27572158133E+04  0.27572158133E+04  0.00000000000E+00 0. -1.
         24    2    1    2    0    0 -0.34657113973E+03  0.37894654999E+03 -0.82351246189E+03  0.97377804795E+03  0.79742517715E+02 0.  0.
         23    2    1    2    0    0 -0.11550727259E+03  0.79158284275E+02 -0.28264082658E+03  0.32773788072E+03  0.88984929182E+02 0.  0.
        -13    1    3    3    0    0 -0.16798740962E+02  0.37502782496E+02 -0.10358807137E+03  0.11144121734E+03  0.00000000000E+00 0.  1.
         14    1    3    3    0    0 -0.32977239877E+03  0.34144376750E+03 -0.71992439052E+03  0.86233683061E+03  0.00000000000E+00 0. -1.
        -13    1    4    4    0    0 -0.63698552617E+02  0.58304451742E+02 -0.80612999926E+02  0.11813285087E+03  0.00000000000E+00 0.  1.
         13    1    4    4    0    0 -0.51808719975E+02  0.20853832532E+02 -0.20202782665E+03  0.20960502985E+03  0.00000000000E+00 0. -1.
         21    1    1    2  503  502  0.64650603011E+02 -0.63486223003E+02  0.23150712915E+03  0.24860762625E+03  0.00000000000E+00 0. -1.
          1    1    1    2  501    0  0.39742780931E+03 -0.39461861126E+03 -0.14940692999E+04  0.15955926124E+04  0.00000000000E+00 0. -1.
<scales pt_clust_5="13000.00000" pt_clust_6="13000.00000" pt_clust_7="13000.00000" pt_clust_8="13000.00000" pt_clust_9="90.61016" pt_clust_10="13000.00000"></scales>
<clustering>
<clus scale="   79.743">  5  6 -1 -1</clus>
<clus scale="   88.985">  7  8 -1 -1</clus>
<clus scale="   90.610">  1  9  2 -1</clus>
<clus scale="  474.489">  2  5  1 -1</clus>
<clus scale="  188.834">  7 10 -1 -1</clus>
<clus scale="   90.610">  1  5  2 -1</clus>
</clustering>
</event>
<event>
10    4  0.2759992E-005  0.1458147E+03  0.7546771E-02  0.1217263E+00
         21   -1    0    0  501  502  0.00000000000E+00  0.00000000000E+00  0.15287421056E+03  0.15287421056E+03  0.00000000000E+00 0. -1.
         -1   -1    0    0    0  501 -0.00000000000E+00 -0.00000000000E+00 -0.40764917758E+03  0.40764917758E+03  0.00000000000E+00 0.  1.
         24    2    1    2    0    0  0.26660307605E+02  0.70474345965E+02 -0.24157914110E+03  0.26539985342E+03  0.79994970735E+02 0.  0.
         23    2    1    2    0    0 -0.14455765196E+01 -0.80015021038E+02 -0.10228395228E+03  0.15831447236E+03  0.90537130406E+02 0.  0.
        -11    1    3    3    0    0  0.35615391987E+01  0.80308263142E+02 -0.21125198829E+03  0.22602987468E+03  0.00000000000E+00 0.  1.
         12    1    3    3    0    0  0.23098768407E+02 -0.98339171774E+01 -0.30327152804E+02  0.39369978742E+02  0.00000000000E+00 0. -1.
        -13    1    4    4    0    0  0.31385742297E+02 -0.50516695691E+02 -0.97111734377E+02  0.11387576703E+03  0.00000000000E+00 0.  1.
         13    1    4    4    0    0 -0.32831318816E+02 -0.29498325347E+02 -0.51722179015E+01  0.44438705331E+02  0.00000000000E+00 0. -1.
         21    1    1    2  503  502  0.41831371807E+01  0.26333622324E+02  0.98193974944E+02  0.10174976667E+03  0.00000000000E+00 0. -1.
         -2    1    1    2    0  503 -0.29397868267E+02 -0.16792947251E+02 -0.91058485844E+01  0.35059295692E+02  0.00000000000E+00 0.  1.
<scales pt_clust_5="13000.00000" pt_clust_6="13000.00000" pt_clust_7="13000.00000" pt_clust_8="13000.00000" pt_clust_9="26.66380" pt_clust_10="13000.00000"></scales>
<clustering>
<clus scale="   26.664">  1  9  2 -1</clus>
<clus scale="   79.995">  5  6 -1 -1</clus>
<clus scale="   90.537">  7  8 -1 -1</clus>
<clus scale="   30.195">  7 10 -1 -1</clus>
<clus scale="  114.011">  2  5  1 -1</clus>
<clus scale="   26.664">  1  5  2 -1</clus>
</clustering>
</event>
<event>
10    4  0.2759992E-005  0.4713866E+03  0.7546771E-02  0.1072694E+00
         21   -1    0    0  501  502  0.00000000000E+00  0.00000000000E+00  0.11075460061E+03  0.11075460061E+03  0.00000000000E+00 0. -1.
          2   -1    0    0  503    0 -0.00000000000E+00 -0.00000000000E+00 -0.87638559903E+03  0.87638559903E+03  0.00000000000E+00 0. -1.
         24    2    1    2    0    0 -0.70701495207E+00 -0.76607004300E+02 -0.62137748879E+02  0.12721515014E+03  0.80333440185E+02 0.  0.
         23    2    1    2    0    0  0.13003337588E+03 -0.43633526905E+02 -0.41953925151E+02  0.16993725940E+03  0.91137131762E+02 0.  0.
        -13    1    3    3    0    0 -0.19174065763E+02 -0.87134394913E+01  0.12621165569E+02  0.24553261412E+02  0.00000000000E+00 0.  1.
         14    1    3    3    0    0  0.18467050811E+02 -0.67893564809E+02 -0.74758914448E+02  0.10266188873E+03  0.00000000000E+00 0. -1.
        -11    1    4    4    0    0  0.31199831658E+02 -0.49236876238E+02 -0.40420399593E+02  0.70933124705E+02  0.00000000000E+00 0.  1.
         11    1    4    4    0    0  0.98833544221E+02  0.56033493326E+01 -0.15335255578E+01  0.99004134700E+02  0.00000000000E+00 0. -1.
         21    1    1    2  503  502 -0.18592057861E+02  0.12862490052E+02 -0.20060166898E+02  0.30224469588E+02  0.00000000000E+00 0. -1.
          1    1    1    2  501    0 -0.11073430307E+03  0.10737804115E+03 -0.64147915748E+03  0.65976332050E+03  0.00000000000E+00 0. -1.
<scales pt_clust_5="13000.00000" pt_clust_6="13000.00000" pt_clust_7="13000.00000" pt_clust_8="13000.00000" pt_clust_9="22.60770" pt_clust_10="13000.00000"></scales>
<clustering>
<clus scale="   22.608">  1  9  2 -1</clus>
<clus scale="   80.333">  5  6 -1 -1</clus>
<clus scale="   91.137">  7  8 -1 -1</clus>
<clus scale="  108.500">  2  5  1 -1</clus>
<clus scale="  126.539">  7 10 -1 -1</clus>
<clus scale="   22.608">  1  5  2 -1</clus>
</clustering>
</event>
<event>
10    4  0.2759992E-005  0.7929062E+03  0.7546771E-02  0.1014196E+00
         21   -1    0    0  503  502  0.00000000000E+00  0.00000000000E+00  0.16828073577E+03  0.16828073577E+03  0.00000000000E+00 0.  1.
          2   -1    0    0  502    0 -0.00000000000E+00 -0.00000000000E+00 -0.15163346395E+04  0.15163346395E+04  0.00000000000E+00 0. -1.
         24    2    1    2    0    0  0.80366708658E+02 -0.10074525133E+02 -0.15336778948E+03  0.19492890363E+03  0.88967941991E+02 0.  0.
         23    2    1    2    0    0  0.23770242059E+03 -0.24292271456E+03 -0.76604803488E+03  0.84314260102E+03  0.92444404448E+02 0.  0.
        -13    1    3    3    0    0  0.32400828308E+02  0.36973536339E+02 -0.41038344368E+02  0.64039064429E+02  0.00000000000E+00 0.  1.
         14    1    3    3    0    0  0.47965880350E+02 -0.47048061473E+02 -0.11232944511E+03  0.13088983920E+03  0.00000000000E+00 0. -1.
        -11    1    4    4    0    0  0.15700089607E+03 -0.20258075319E+03 -0.49408057804E+03  0.55660026997E+03  0.00000000000E+00 0.  1.
         11    1    4    4    0    0  0.80701524519E+02 -0.40341961363E+02 -0.27196745684E+03  0.28654233106E+03  0.00000000000E+00 0. -1.
         21    1    1    2  503  501  0.39847880316E+02  0.63765455777E+02 -0.39260570055E+02  0.84824992056E+02  0.00000000000E+00 0. -1.
          1    1    1    2  501    0 -0.35791700956E+03  0.18923178391E+03 -0.38937750931E+03  0.56171887857E+03  0.00000000000E+00 0. -1.
<scales pt_clust_5="13000.00000" pt_clust_6="13000.00000" pt_clust_7="13000.00000" pt_clust_8="13000.00000" pt_clust_9="75.19233" pt_clust_10="13000.00000"></scales>
<clustering>
<clus scale="   75.192">  1  9  2 -1</clus>
<clus scale="   88.968">  5  6 -1 -1</clus>
<clus scale="   92.444">  7  8 -1 -1</clus>
<clus scale="  123.783">  2  5  1 -1</clus>
<clus scale="  376.792">  7 10 -1 -1</clus>
<clus scale="   75.192">  1  5  2 -1</clus>
</clustering>
</event>
<event>
10    4  0.2759992E-005  0.2181135E+03  0.7546771E-02  0.1161000E+00
         21   -1    0    0  501  502  0.00000000000E+00  0.00000000000E+00  0.48845781316E+03  0.48845781316E+03  0.00000000000E+00 0. -1.
          2   -1    0    0  503    0 -0.00000000000E+00 -0.00000000000E+00 -0.69102255293E+03  0.69102255293E+03  0.00000000000E+00 0. -1.
         24    2    1    2    0    0  0.81870279536E+02 -0.27445648210E+02 -0.64669827862E+03  0.65742557721E+03  0.80831427832E+02 0.  0.
         23    2    1    2    0    0 -0.69625309316E+02 -0.91697336226E+01  0.67149152420E+02  0.13316712609E+03  0.91064301945E+02 0.  0.
        -11    1    3    3    0    0  0.88851464921E+01  0.25347293761E+02 -0.11076170238E+03  0.11397186426E+03  0.00000000000E+00 0.  1.
         12    1    3    3    0    0  0.72985133044E+02 -0.52792941971E+02 -0.53593657624E+03  0.54345371295E+03  0.00000000000E+00 0. -1.
        -13    1    4    4    0    0 -0.38125265688E+02 -0.35525555545E+02  0.75024722092E+02  0.91347194295E+02  0.00000000000E+00 0. -1.
         13    1    4    4    0    0 -0.31500043628E+02  0.26355821923E+02 -0.78755696725E+01  0.41819931797E+02  0.00000000000E+00 0.  1.
         21    1    1    2  503  502  0.18180309608E-01 -0.27896352266E+02  0.15102440328E+03  0.15357922120E+03  0.00000000000E+00 0.  1.
          1    1    1    2  501    0 -0.12263150529E+02  0.64511734098E+02  0.22595998315E+03  0.23530844159E+03  0.00000000000E+00 0. -1.
<scales pt_clust_5="13000.00000" pt_clust_6="13000.00000" pt_clust_7="13000.00000" pt_clust_8="13000.00000" pt_clust_9="27.89636" pt_clust_10="13000.00000"></scales>
<clustering>
<clus scale="   27.896">  1  9  2 -1</clus>
<clus scale="   80.831">  5  6 -1 -1</clus>
<clus scale="   91.064">  7  8 -1 -1</clus>
<clus scale="   46.997">  7 10 -1 -1</clus>
<clus scale="  118.382">  2  5  1 -1</clus>
<clus scale="   27.896">  1  5  2 -1</clus>
</clustering>
</event>
<event>
10    4  0.2759992E-005  0.7230874E+03  0.7546771E-02  0.1009164E+00
          2   -1    0    0  503    0 -0.00000000000E+00  0.00000000000E+00  0.59686743896E+03  0.59686743896E+03  0.00000000000E+00 0. -1.
         21   -1    0    0  501  502  0.00000000000E+00 -0.00000000000E+00 -0.39955028228E+03  0.39955028228E+03  0.00000000000E+00 0.  1.
         24    2    1    2    0    0 -0.10112761222E+03  0.14962622780E+03 -0.66168146806E+02  0.20848627360E+03  0.80458067525E+02 0.  0.
         23    2    1    2    0    0  0.35818129943E+03  0.42204073031E+02  0.41513262637E+02  0.37480469711E+03  0.93167499470E+02 0.  0.
        -11    1    3    3    0    0 -0.58851171728E+02  0.12871063342E+03 -0.20810710731E+02  0.14304884917E+03  0.00000000000E+00 0.  1.
         12    1    3    3    0    0 -0.42276440488E+02  0.20915594387E+02 -0.45357436075E+02  0.65437424431E+02  0.00000000000E+00 0. -1.
        -11    1    4    4    0    0  0.31440190445E+02 -0.21886382236E+01  0.32015170714E+02  0.44924902541E+02  0.00000000000E+00 0. -1.
         11    1    4    4    0    0  0.32674110898E+03  0.44392711255E+02  0.94980919238E+01  0.32987979457E+03  0.00000000000E+00 0.  1.
         21    1    1    2  503  502  0.16022338466E+02 -0.16221682138E+02  0.74426054502E+01  0.23984384028E+02  0.00000000000E+00 0.  1.
          1    1    1    2  501    0 -0.27307602568E+03 -0.17560861870E+03  0.21452943539E+03  0.38914236651E+03  0.00000000000E+00 0. -1.
<scales pt_clust_5="13000.00000" pt_clust_6="13000.00000" pt_clust_7="13000.00000" pt_clust_8="13000.00000" pt_clust_9="22.80041" pt_clust_10="13000.00000"></scales>
<clustering>
<clus scale="   22.800">  2  9  1 -1</clus>
<clus scale="   80.458">  5  6 -1 -1</clus>
<clus scale="   93.167">  7  8 -1 -1</clus>
<clus scale="  190.555">  1  5  2 -1</clus>
<clus scale="  338.673">  7 10 -1 -1</clus>
<clus scale="   22.800">  2  5  1 -1</clus>
</clustering>
</event>
<event>
10    4  0.2759992E-005  0.2845951E+03  0.7546771E-02  0.1100343E+00
          2   -1    0    0  503    0 -0.00000000000E+00  0.00000000000E+00  0.22105400573E+03  0.22105400573E+03  0.00000000000E+00 0. -1.
         21   -1    0    0  501  502  0.00000000000E+00 -0.00000000000E+00 -0.55274933407E+03  0.55274933407E+03  0.00000000000E+00 0. -1.
         24    2    1    2    0    0 -0.24384219201E+02 -0.21519568804E+03 -0.22123423334E+03  0.32024089978E+03  0.81889398528E+02 0.  0.
         23    2    1    2    0    0  0.82859812931E+02  0.10910097091E+03 -0.20968246002E+02  0.16649409985E+03  0.92259674244E+02 0.  0.
        -11    1    3    3    0    0  0.23052834328E+01 -0.62386963568E+02 -0.18784478846E+02  0.65194357122E+02  0.00000000000E+00 0.  1.
         12    1    3    3    0    0 -0.26689502634E+02 -0.15280872447E+03 -0.20244975450E+03  0.25504654266E+03  0.00000000000E+00 0. -1.
        -11    1    4    4    0    0  0.65885030083E+02  0.13994159748E+02  0.12332599732E+01  0.67366123729E+02  0.00000000000E+00 0. -1.
         11    1    4    4    0    0  0.16974782848E+02  0.95106811161E+02 -0.22201505975E+02  0.99127976119E+02  0.00000000000E+00 0.  1.
         21    1    1    2  503  502 -0.46408404497E+02  0.13062795631E+01 -0.15573778106E+03  0.16251062373E+03  0.00000000000E+00 0. -1.
          1    1    1    2  501    0 -0.12067189233E+02  0.10478843757E+03  0.66244932062E+02  0.12455771645E+03  0.00000000000E+00 0. -1.
<scales pt_clust_5="13000.00000" pt_clust_6="13000.00000" pt_clust_7="13000.00000" pt_clust_8="13000.00000" pt_clust_9="46.42679" pt_clust_10="13000.00000"></scales>
<clustering>
<clus scale="   46.427">  2  9  1 -1</clus>
<clus scale="   81.889">  5  6 -1 -1</clus>
<clus scale="   92.260">  7  8 -1 -1</clus>
<clus scale="  106.025">  7 10 -1 -1</clus>
<clus scale="  236.219">  1  5  2 -1</clus>
<clus scale="   46.427">  2  5  1 -1</clus>
</clustering>
</event>
<event>
10    4  0.2759992E-005  0.2841639E+03  0.7546771E-02  0.1097949E+00
          2   -1    0    0  502    0 -0.00000000000E+00  0.00000000000E+00  0.10514066747E+04  0.10514066747E+04  0.00000000000E+00 0. -1.
         21   -1    0    0  503  502  0.00000000000E+00 -0.00000000000E+00 -0.11841295743E+03  0.11841295743E+03  0.00000000000E+00 0. -1.
         24    2    1    2    0    0  0.21025909107E+03 -0.19661262704E+02  0.31844652693E+03  0.39073743089E+03  0.81682915965E+02 0.  0.
         23    2    1    2    0    0 -0.20253582874E+03 -0.10547059731E+03  0.36465799853E+03  0.43909525706E+03  0.87660595804E+02 0.  0.
        -11    1    3    3    0    0  0.60034887394E+02 -0.39370539975E+02  0.73690522829E+02  0.10288109776E+03  0.00000000000E+00 0.  1.
         12    1    3    3    0    0  0.15022420367E+03  0.19709277271E+02  0.24475600410E+03  0.28785633313E+03  0.00000000000E+00 0. -1.
        -13    1    4    4    0    0 -0.11448275860E+03 -0.17541935112E+02  0.13485450345E+03  0.17776320937E+03  0.00000000000E+00 0. -1.
         13    1    4    4    0    0 -0.88053070137E+02 -0.87928662203E+02  0.22980349508E+03  0.26133204769E+03  0.00000000000E+00 0.  1.
         21    1    1    2  503  501  0.59072905980E+02  0.10730554991E+03  0.57040986775E+02  0.13512129157E+03  0.00000000000E+00 0. -1.
          1    1    1    2  501    0 -0.66796168311E+02  0.17826310110E+02  0.19284820501E+03  0.20486565258E+03  0.00000000000E+00 0. -1.
<scales pt_clust_5="13000.00000" pt_clust_6="13000.00000" pt_clust_7="13000.00000" pt_clust_8="13000.00000" pt_clust_9="122.49118" pt_clust_10="13000.00000"></scales>
<clustering>
<clus scale="   81.683">  5  6 -1 -1</clus>
<clus scale="   87.661">  7  8 -1 -1</clus>
<clus scale="   69.134">  7 10 -1 -1</clus>
<clus scale="  122.491">  2  9  1 -1</clus>
<clus scale="  252.527">  1  5  2 -1</clus>
<clus scale="  122.491">  2  5  1 -1</clus>
</clustering>
</event>
<event>
10    4  0.2759992E-005  0.1745016E+03  0.7546771E-02  0.1205971E+00
          2   -1    0    0  503    0 -0.00000000000E+00  0.00000000000E+00  0.32362179494E+03  0.32362179494E+03  0.00000000000E+00 0. -1.
         21   -1    0    0  501  502  0.00000000000E+00 -0.00000000000E+00 -0.92246885773E+02  0.92246885773E+02  0.00000000000E+00 0.  1.
         24    2    1    2    0    0  0.25367435075E+02 -0.40770725321E+02  0.25593986994E+02  0.92924992304E+02  0.75327572767E+02 0.  0.
         23    2    1    2    0    0  0.41853212648E+01  0.57531730634E+02  0.12015538323E+03  0.16034264627E+03  0.89134904216E+02 0.  0.
        -11    1    3    3    0    0  0.34172697755E+02  0.94766095462E+01 -0.83509431992E+00  0.35472197322E+02  0.00000000000E+00 0.  1.
         12    1    3    3    0    0 -0.88052626800E+01 -0.50247334867E+02  0.26429081314E+02  0.57452794981E+02  0.00000000000E+00 0. -1.
        -13    1    4    4    0    0  0.35726643353E+01 -0.20435660531E+02  0.51108085655E+01  0.21365872694E+02  0.00000000000E+00 0. -1.
         13    1    4    4    0    0  0.61265692955E+00  0.77967391165E+02  0.11504457466E+03  0.13897677357E+03  0.00000000000E+00 0.  1.
         21    1    1    2  503  502  0.12030066400E+02  0.35855901337E+02 -0.15816671097E+02  0.40994331838E+02  0.00000000000E+00 0. -1.
          1    1    1    2  501    0 -0.41582822740E+02 -0.52616906651E+02  0.10144221004E+03  0.12160671030E+03  0.00000000000E+00 0. -1.
<scales pt_clust_5="13000.00000" pt_clust_6="13000.00000" pt_clust_7="13000.00000" pt_clust_8="13000.00000" pt_clust_9="37.82021" pt_clust_10="13000.00000"></scales>
<clustering>
<clus scale="   37.820">  2  9  1 -1</clus>
<clus scale="   75.328">  5  6 -1 -1</clus>
<clus scale="   84.604">  1  5  2 -1</clus>
<clus scale="   89.135">  7  8 -1 -1</clus>
<clus scale="   61.738">  7 10 -1 -1</clus>
<clus scale="   37.820">  2  5  1 -1</clus>
</clustering>
</event>
<event>
10    4  0.2759992E-005  0.4010131E+03  0.7546771E-02  0.1074591E+00
          2   -1    0    0  502    0 -0.00000000000E+00  0.00000000000E+00  0.26269412843E+03  0.26269412843E+03  0.00000000000E+00 0. -1.
         21   -1    0    0  503  502  0.00000000000E+00 -0.00000000000E+00 -0.47025566468E+03  0.47025566468E+03  0.00000000000E+00 0.  1.
         24    2    1    2    0    0 -0.76592632713E+02 -0.13896145326E+03  0.37246441760E+02  0.17995079774E+03  0.76277619953E+02 0.  0.
         23    2    1    2    0    0 -0.19829685658E+02  0.43636525884E+02 -0.22255401097E+03  0.24555091607E+03  0.92019572713E+02 0.  0.
        -11    1    3    3    0    0 -0.46354196270E+02 -0.13200157871E+03  0.12875573861E+02  0.14049522659E+03  0.00000000000E+00 0.  1.
         12    1    3    3    0    0 -0.30238436443E+02 -0.69598745495E+01  0.24370867899E+02  0.39455571146E+02  0.00000000000E+00 0. -1.
        -11    1    4    4    0    0  0.18234674570E+02  0.26937832083E+02 -0.18997177977E+03  0.19273667856E+03  0.00000000000E+00 0. -1.
         11    1    4    4    0    0 -0.38064360228E+02  0.16698693801E+02 -0.32582231199E+02  0.52814237513E+02  0.00000000000E+00 0.  1.
         21    1    1    2  503  501  0.35498039695E+01  0.48917446929E+02 -0.14125254788E+03  0.14952524872E+03  0.00000000000E+00 0.  1.
          1    1    1    2  501    0  0.92872514402E+02  0.46407480445E+02  0.11899858084E+03  0.15792283057E+03  0.00000000000E+00 0. -1.
<scales pt_clust_5="13000.00000" pt_clust_6="13000.00000" pt_clust_7="13000.00000" pt_clust_8="13000.00000" pt_clust_9="49.04608" pt_clust_10="13000.00000"></scales>
<clustering>
<clus scale="   49.046">  2  9  1 -1</clus>
<clus scale="   76.278">  5  6 -1 -1</clus>
<clus scale="   92.020">  7  8 -1 -1</clus>
<clus scale="  105.352">  7 10 -1 -1</clus>
<clus scale="  167.349">  1  5  2 -1</clus>
<clus scale="   49.046">  2  5  1 -1</clus>
</clustering>
</event>
<event>
10    4  0.2759992E-005  0.2951722E+03  0.7546771E-02  0.1127643E+00
          2   -1    0    0  503    0 -0.00000000000E+00  0.00000000000E+00  0.16983464450E+04  0.16983464450E+04  0.00000000000E+00 0. -1.
         21   -1    0    0  501  502  0.00000000000E+00 -0.00000000000E+00 -0.55794153895E+02  0.55794153895E+02  0.00000000000E+00 0. -1.
         24    2    1    2    0    0 -0.12122300165E+00 -0.59703729947E+02  0.89090033258E+03  0.89695645014E+03  0.85222771524E+02 0.  0.
         23    2    1    2    0    0  0.34717947373E+02 -0.29650667502E+02  0.67972758940E+02  0.12275492210E+03  0.91454781111E+02 0.  0.
        -13    1    3    3    0    0  0.24988659685E+02 -0.77171864033E-01  0.88740095424E+02  0.92191342349E+02  0.00000000000E+00 0.  1.
         14    1    3    3    0    0 -0.25109882687E+02 -0.59626558083E+02  0.80216023716E+03  0.80476510779E+03  0.00000000000E+00 0. -1.
        -13    1    4    4    0    0 -0.27954196730E+02 -0.24233801521E+02  0.13000155514E+02  0.39213751343E+02  0.00000000000E+00 0.  1.
         13    1    4    4    0    0  0.62672144103E+02 -0.54168659808E+01  0.54972603426E+02  0.83541170754E+02  0.00000000000E+00 0. -1.
         21    1    1    2  503  502  0.72617769816E+02 -0.53051247350E+02  0.22061072930E+03  0.23823700221E+03  0.00000000000E+00 0.  1.
          1    1    1    2  501    0 -0.10721449419E+03  0.14240564480E+03  0.46306847027E+03  0.49619222444E+03  0.00000000000E+00 0. -1.
<scales pt_clust_5="13000.00000" pt_clust_6="13000.00000" pt_clust_7="13000.00000" pt_clust_8="13000.00000" pt_clust_9="89.93206" pt_clust_10="13000.00000"></scales>
<clustering>
<clus scale="   85.223">  5  6 -1 -1</clus>
<clus scale="   89.932">  2  9  1 -1</clus>
<clus scale="   91.455">  7  8 -1 -1</clus>
<clus scale="  106.152">  1  5  2 -1</clus>
<clus scale="  119.648">  7 10 -1 -1</clus>
<clus scale="   89.932">  2  5  1 -1</clus>
</clustering>
</event>
<event>
10    4  0.2759992E-005  0.2043221E+03  0.7546771E-02  0.1169830E+00
         21   -1    0    0  501  502  0.00000000000E+00  0.00000000000E+00  0.48100644382E+03  0.48100644382E+03  0.00000000000E+00 0. -1.
          4   -1    0    0  503    0 -0.00000000000E+00 -0.00000000000E+00 -0.10226553524E+03  0.10226553524E+03  0.00000000000E+00 0. -1.
         24    2    1    2    0    0  0.46756443256E+02 -0.81294233259E+02  0.43866844211E+02  0.13055419562E+03  0.79531004173E+02 0.  0.
         23    2    1    2    0    0  0.41336463559E+02  0.90238062203E+01  0.22634249465E+02  0.10400340956E+03  0.92272789337E+02 0.  0.
        -11    1    3    3    0    0  0.16533031928E+02 -0.89995143829E+02  0.33429551711E+02  0.97416641212E+02  0.00000000000E+00 0.  1.
         12    1    3    3    0    0  0.30223411329E+02  0.87009105704E+01  0.10437292500E+02  0.33137554403E+02  0.00000000000E+00 0. -1.
        -11    1    4    4    0    0 -0.25506399390E+01  0.44412591673E+02  0.41777121567E+01  0.44681510069E+02  0.00000000000E+00 0.  1.
         11    1    4    4    0    0  0.43887103498E+02 -0.35388785453E+02  0.18456537308E+02  0.59321899486E+02  0.00000000000E+00 0. -1.
         21    1    1    2  503  502 -0.28934041222E+02  0.93520809881E+01  0.22100399309E+03  0.22308609352E+03  0.00000000000E+00 0. -1.
          3    1    1    2  501    0 -0.59158865593E+02  0.62918346050E+02  0.91235821807E+02  0.12562828037E+03  0.00000000000E+00 0. -1.
<scales pt_clust_5="13000.00000" pt_clust_6="13000.00000" pt_clust_7="13000.00000" pt_clust_8="13000.00000" pt_clust_9="30.40790" pt_clust_10="13000.00000"></scales>
<clustering>
<clus scale="   30.408">  1  9  2 -1</clus>
<clus scale="   79.531">  5  6 -1 -1</clus>
<clus scale="   92.273">  7  8 -1 -1</clus>
<clus scale="   97.708">  7 10 -1 -1</clus>
<clus scale="  117.481">  2  5  1 -1</clus>
<clus scale="   30.408">  1  5  2 -1</clus>
</clustering>
</event>
<event>
10    4  0.2759992E-005  0.9130624E+03  0.7546771E-02  0.9573630E-01
          2   -1    0    0  503    0 -0.00000000000E+00  0.00000000000E+00  0.60448277775E+03  0.60448277775E+03  0.00000000000E+00 0. -1.
         21   -1    0    0  501  502  0.00000000000E+00 -0.00000000000E+00 -0.17730947741E+04  0.17730947741E+04  0.00000000000E+00 0. -1.
         24    2    1    2    0    0  0.43259620825E+03  0.26536241166E+03 -0.90808913406E+02  0.52138186479E+03  0.77692350091E+02 0.  0.
         23    2    1    2    0    0  0.16898339589E+03 -0.50520883320E+02 -0.39190162587E+03  0.43974360657E+03  0.93165484077E+02 0.  0.
        -11    1    3    3    0    0  0.55554705936E+02  0.85989317989E+01 -0.20455221162E+02  0.59822095019E+02  0.00000000000E+00 0.  1.
         12    1    3    3    0    0  0.37704150232E+03  0.25676347986E+03 -0.70353692244E+02  0.46155976977E+03  0.00000000000E+00 0. -1.
        -11    1    4    4    0    0  0.20626710164E+02 -0.27458213359E+02 -0.22659735596E+02  0.41144601958E+02  0.00000000000E+00 0.  1.
         11    1    4    4    0    0  0.14835668573E+03 -0.23062669961E+02 -0.36924189028E+03  0.39859900462E+03  0.00000000000E+00 0. -1.
         21    1    1    2  503  502 -0.27953383663E+03 -0.47242412744E+03 -0.81651108456E+03  0.98387706205E+03  0.00000000000E+00 0. -1.
          1    1    1    2  501    0 -0.32204576751E+03  0.25758259910E+03  0.13060962753E+03  0.43257501839E+03  0.00000000000E+00 0. -1.
<scales pt_clust_5="13000.00000" pt_clust_6="13000.00000" pt_clust_7="13000.00000" pt_clust_8="13000.00000" pt_clust_9="455.32339" pt_clust_10="13000.00000"></scales>
<clustering>
<clus scale="   77.692">  5  6 -1 -1</clus>
<clus scale="   93.165">  7  8 -1 -1</clus>
<clus scale="  412.386">  7 10 -1 -1</clus>
<clus scale="  513.413">  1  5  2 -1</clus>
<clus scale="  455.323">  2  9  1 -1</clus>
<clus scale="  455.323">  2  5  1 -1</clus>
</clustering>
</event>
<event>
10    4  0.2759992E-005  0.4342912E+03  0.7546771E-02  0.1093625E+00
          2   -1    0    0  502    0 -0.00000000000E+00  0.00000000000E+00  0.73128063484E+03  0.73128063484E+03  0.00000000000E+00 0. -1.
         21   -1    0    0  503  502  0.00000000000E+00 -0.00000000000E+00 -0.16343250685E+03  0.16343250685E+03  0.00000000000E+00 0. -1.
         24    2    1    2    0    0  0.11872330697E+02 -0.27832575734E+01  0.24380287360E+03  0.25634765776E+03  0.78266095504E+02 0.  0.
         23    2    1    2    0    0 -0.62342152655E+02 -0.22786325544E+03  0.10124948320E+03  0.27209499063E+03  0.89308560069E+02 0.  0.
        -11    1    3    3    0    0  0.68780871220E+01  0.37692678826E+02  0.11128717069E+03  0.11769826031E+03  0.00000000000E+00 0.  1.
         12    1    3    3    0    0  0.49942435752E+01 -0.40475936400E+02  0.13251570291E+03  0.13864939745E+03  0.00000000000E+00 0. -1.
        -11    1    4    4    0    0 -0.64437926086E+02 -0.94059842959E+02  0.20629759687E+02  0.11586667925E+03  0.00000000000E+00 0.  1.
         11    1    4    4    0    0  0.20957734312E+01 -0.13380341248E+03  0.80619723515E+02  0.15622831138E+03  0.00000000000E+00 0. -1.
         21    1    1    2  503  501  0.11533960857E+02  0.88498845519E+02 -0.10973318356E+02  0.89919361803E+02  0.00000000000E+00 0. -1.
          1    1    1    2  501    0  0.38935861101E+02  0.14214766749E+03  0.23376908954E+03  0.27635113149E+03  0.00000000000E+00 0. -1.
<scales pt_clust_5="13000.00000" pt_clust_6="13000.00000" pt_clust_7="13000.00000" pt_clust_8="13000.00000" pt_clust_9="89.15231" pt_clust_10="13000.00000"></scales>
<clustering>
<clus scale="   78.266">  5  6 -1 -1</clus>
<clus scale="   79.210">  1  5  2 -1</clus>
<clus scale="   89.152">  2  9  1 -1</clus>
<clus scale="   89.309">  7  8 -1 -1</clus>
<clus scale="  167.808">  7 10 -1 -1</clus>
<clus scale="   89.152">  2  5  1 -1</clus>
</clustering>
</event>
<event>
10    4  0.2759992E-005  0.4166046E+03  0.7546771E-02  0.1094744E+00
         21   -1    0    0  501  502  0.00000000000E+00  0.00000000000E+00  0.54242235552E+03  0.54242235552E+03  0.00000000000E+00 0.  1.
          2   -1    0    0  503    0 -0.00000000000E+00 -0.00000000000E+00 -0.13213435274E+03  0.13213435274E+03  0.00000000000E+00 0. -1.
         24    2    1    2    0    0 -0.38301199222E+02 -0.12890123020E+02  0.52433556723E+02  0.10287983920E+03  0.78751801952E+02 0.  0.
         23    2    1    2    0    0 -0.96952555332E+02  0.16777371809E+03  0.26737260772E+03  0.34213606163E+03  0.89560900191E+02 0.  0.
        -13    1    3    3    0    0 -0.61347753670E+01 -0.43338565435E+02  0.31259256859E+02  0.53786688522E+02  0.00000000000E+00 0.  1.
         14    1    3    3    0    0 -0.32166423855E+02  0.30448442415E+02  0.21174299864E+02  0.49093150682E+02  0.00000000000E+00 0. -1.
        -13    1    4    4    0    0 -0.10853089513E+03  0.13385183451E+03  0.24616980857E+03  0.30049100394E+03  0.00000000000E+00 0.  1.
         13    1    4    4    0    0  0.11578339797E+02  0.33921883579E+02  0.21202799147E+02  0.41645057686E+02  0.00000000000E+00 0. -1.
         21    1    1    2  503  502  0.26869722447E+02 -0.13022591370E+02  0.26416746118E+02  0.39867459736E+02  0.00000000000E+00 0. -1.
          1    1    1    2  501    0  0.10838403211E+03 -0.14186100370E+03  0.64065092225E+02  0.18967334770E+03  0.00000000000E+00 0. -1.
<scales pt_clust_5="13000.00000" pt_clust_6="13000.00000" pt_clust_7="13000.00000" pt_clust_8="13000.00000" pt_clust_9="29.85917" pt_clust_10="13000.00000"></scales>
<clustering>
<clus scale="   29.859">  1  9  2 -1</clus>
<clus scale="   78.752">  5  6 -1 -1</clus>
<clus scale="   87.138">  2  5  1 -1</clus>
<clus scale="   89.561">  7  8 -1 -1</clus>
<clus scale="  180.485">  7 10 -1 -1</clus>
<clus scale="   29.859">  1  5  2 -1</clus>
</clustering>
</event>
<event>
10    4  0.2759992E-005  0.2260963E+03  0.7546771E-02  0.1140031E+00
          2   -1    0    0  503    0 -0.00000000000E+00  0.00000000000E+00  0.10518900737E+04  0.10518900737E+04  0.00000000000E+00 0. -1.
         21   -1    0    0  501  502  0.00000000000E+00 -0.00000000000E+00 -0.11236936100E+03  0.11236936100E+03  0.00000000000E+00 0. -1.
         24    2    1    2    0    0  0.10296289464E+03 -0.11185625189E+03  0.81977185043E+03  0.83741998162E+03  0.78314494781E+02 0.  0.
         23    2    1    2    0    0 -0.13842643807E+02  0.49668063485E+02  0.74531662047E+02  0.12805440243E+03  0.90467817575E+02 0.  0.
        -13    1    3    3    0    0  0.10492965386E+02 -0.67607416412E+02  0.34130105286E+03  0.34809089871E+03  0.00000000000E+00 0.  1.
         14    1    3    3    0    0  0.92469929249E+02 -0.44248835474E+02  0.47847079757E+03  0.48932908291E+03  0.00000000000E+00 0. -1.
        -11    1    4    4    0    0  0.15331743555E+02  0.51827020523E+02  0.70506851749E+01  0.54505179370E+02  0.00000000000E+00 0.  1.
         11    1    4    4    0    0 -0.29174387362E+02 -0.21589570375E+01  0.67480976872E+02  0.73549223062E+02  0.00000000000E+00 0. -1.
         21    1    1    2  503  502  0.16342982591E+02 -0.37478404906E+02 -0.12297075158E+02  0.42695924532E+02  0.00000000000E+00 0. -1.
          1    1    1    2  501    0 -0.10546323342E+03  0.99666593305E+02  0.57514275402E+02  0.15608912614E+03  0.00000000000E+00 0. -1.
<scales pt_clust_5="13000.00000" pt_clust_6="13000.00000" pt_clust_7="13000.00000" pt_clust_8="13000.00000" pt_clust_9="40.88672" pt_clust_10="13000.00000"></scales>
<clustering>
<clus scale="   40.887">  2  9  1 -1</clus>
<clus scale="   78.314">  5  6 -1 -1</clus>
<clus scale="   90.468">  7  8 -1 -1</clus>
<clus scale="  123.610">  7 10 -1 -1</clus>
<clus scale="  174.602">  1  5  2 -1</clus>
<clus scale="   40.887">  2  5  1 -1</clus>
</clustering>
</event>
<event>
10    4  0.2759992E-005  0.3386335E+03  0.7546771E-02  0.1088162E+00
         21   -1    0    0  501  502  0.00000000000E+00  0.00000000000E+00  0.13203626012E+03  0.13203626012E+03  0.00000000000E+00 0. -1.
          2   -1    0    0  503    0 -0.00000000000E+00 -0.00000000000E+00 -0.75846279896E+03  0.75846279896E+03  0.00000000000E+00 0. -1.
         24    2    1    2    0    0  0.12236310715E+03 -0.10627670320E+03 -0.14487358854E+03  0.23178247844E+03  0.80419481592E+02 0.  0.
         23    2    1    2    0    0  0.91285046041E+01 -0.55759236806E+02 -0.89067223718E+02  0.13098000068E+03  0.77655445082E+02 0.  0.
        -11    1    3    3    0    0  0.55374294102E+02 -0.63962022470E+02 -0.12353108822E+03  0.14972435514E+03  0.00000000000E+00 0.  1.
         12    1    3    3    0    0  0.66988813046E+02 -0.42314680732E+02 -0.21342500320E+02  0.82058123295E+02  0.00000000000E+00 0. -1.
        -13    1    4    4    0    0 -0.18342273342E+02 -0.45161882059E+02 -0.14570558397E+02  0.50875689228E+02  0.00000000000E+00 0.  1.
         13    1    4    4    0    0  0.27470777946E+02 -0.10597354747E+02 -0.74496665321E+02  0.80104311448E+02  0.00000000000E+00 0. -1.
         21    1    1    2  503  502 -0.40912274426E+01 -0.48002421382E+02  0.16263729617E+02  0.50847610579E+02  0.00000000000E+00 0. -1.
          1    1    1    2  501    0 -0.12740038431E+03  0.21003836139E+03 -0.40874945619E+03  0.47688896938E+03  0.00000000000E+00 0. -1.
<scales pt_clust_5="13000.00000" pt_clust_6="13000.00000" pt_clust_7="13000.00000" pt_clust_8="13000.00000" pt_clust_9="48.17645" pt_clust_10="13000.00000"></scales>
<clustering>
<clus scale="   48.176">  1  9  2 -1</clus>
<clus scale="   77.655">  7  8 -1 -1</clus>
<clus scale="   80.419">  5  6 -1 -1</clus>
<clus scale="  192.995">  2  5  1 -1</clus>
<clus scale="  105.078">  7 10 -1 -1</clus>
<clus scale="   48.176">  1  5  2 -1</clus>
</clustering>
</event>
<event>
10    4  0.2759992E-005  0.1049444E+04  0.7546771E-02  0.9916375E-01
         -1   -1    0    0    0  501 -0.00000000000E+00  0.00000000000E+00  0.12000140922E+04  0.12000140922E+04  0.00000000000E+00 0.  1.
         21   -1    0    0  501  502  0.00000000000E+00 -0.00000000000E+00 -0.46198255637E+03  0.46198255637E+03  0.00000000000E+00 0. -1.
         24    2    1    2    0    0 -0.99277594552E+01 -0.60168600909E+02 -0.11478129543E+02  0.10129057404E+03  0.80057554223E+02 0.  0.
         23    2    1    2    0    0 -0.37545764575E+03 -0.23498673932E+03  0.17598319719E+03  0.48551808897E+03  0.92577090146E+02 0.  0.
        -11    1    3    3    0    0  0.26135343355E+02 -0.53332923118E+02  0.76791310712E+01  0.59886775791E+02  0.00000000000E+00 0.  1.
         12    1    3    3    0    0 -0.36063102810E+02 -0.68356777914E+01 -0.19157260614E+02  0.41403798248E+02  0.00000000000E+00 0. -1.
        -11    1    4    4    0    0 -0.27521671771E+03 -0.12800822740E+03  0.14161130839E+03  0.33493896556E+03  0.00000000000E+00 0.  1.
         11    1    4    4    0    0 -0.10024092804E+03 -0.10697851193E+03  0.34371888804E+02  0.15057912341E+03  0.00000000000E+00 0. -1.
         21    1    1    2  503  502 -0.11398684237E+02 -0.61808650973E+02 -0.15777665884E+03  0.16983437052E+03  0.00000000000E+00 0. -1.
         -2    1    1    2    0  503  0.39678408944E+03  0.35696399121E+03  0.73130312697E+03  0.90535361499E+03  0.00000000000E+00 0.  1.
<scales pt_clust_5="13000.00000" pt_clust_6="13000.00000" pt_clust_7="13000.00000" pt_clust_8="13000.00000" pt_clust_9="62.85093" pt_clust_10="13000.00000"></scales>
<clustering>
<clus scale="   62.851">  2  9  1 -1</clus>
<clus scale="   80.058">  5  6 -1 -1</clus>
<clus scale="   92.577">  7  8 -1 -1</clus>
<clus scale="  108.252">  1  5  2 -1</clus>
<clus scale="  482.341">  7 10 -1 -1</clus>
<clus scale="   62.851">  2  5  1 -1</clus>
</clustering>
</event>
<event>
10    4  0.2759992E-005  0.3205287E+03  0.7546771E-02  0.1118921E+00
         21   -1    0    0  503  502  0.00000000000E+00  0.00000000000E+00  0.11684046767E+03  0.11684046767E+03  0.00000000000E+00 0. -1.
          2   -1    0    0  502    0 -0.00000000000E+00 -0.00000000000E+00 -0.14367742110E+04  0.14367742110E+04  0.00000000000E+00 0. -1.
         24    2    1    2    0    0  0.78839834490E+02 -0.35521267108E+02 -0.36099575493E+03  0.37911859979E+03  0.77042181371E+02 0.  0.
         23    2    1    2    0    0 -0.85350665770E+02  0.11373080815E+03 -0.49975566741E+03  0.52783860324E+03  0.92943160542E+02 0.  0.
        -13    1    3    3    0    0  0.81000580368E+02 -0.13957860462E+02 -0.33658689652E+03  0.34647749537E+03  0.00000000000E+00 0.  1.
         14    1    3    3    0    0 -0.21607458776E+01 -0.21563406645E+02 -0.24408858407E+02  0.32641104418E+02  0.00000000000E+00 0. -1.
        -11    1    4    4    0    0 -0.23750642821E+02 -0.12734844073E+02 -0.52974091543E+02  0.59435037333E+02  0.00000000000E+00 0.  1.
         11    1    4    4    0    0 -0.61600022949E+02  0.12646565222E+03 -0.44678157587E+03  0.46840356591E+03  0.00000000000E+00 0. -1.
         21    1    1    2  503  501 -0.49374366608E+02  0.53886732065E+02  0.68293727726E+02  0.10002820211E+03  0.00000000000E+00 0. -1.
          1    1    1    2  501    0  0.55885197888E+02 -0.13209627311E+03 -0.52747604875E+03  0.54662927356E+03  0.00000000000E+00 0. -1.
<scales pt_clust_5="13000.00000" pt_clust_6="13000.00000" pt_clust_7="13000.00000" pt_clust_8="13000.00000" pt_clust_9="73.08630" pt_clust_10="13000.00000"></scales>
<clustering>
<clus scale="   73.086">  1  9  2 -1</clus>
<clus scale="   77.042">  5  6 -1 -1</clus>
<clus scale="   92.943">  7  8 -1 -1</clus>
<clus scale="  102.973">  2  5  1 -1</clus>
<clus scale="  140.272">  7 10 -1 -1</clus>
<clus scale="   73.086">  1  5  2 -1</clus>
</clustering>
</event>
<event>
10    4  0.2759992E-005  0.2038737E+03  0.7546771E-02  0.1170092E+00
         21   -1    0    0  501  502  0.00000000000E+00  0.00000000000E+00  0.71077750319E+02  0.71077750319E+02  0.00000000000E+00 0. -1.
          2   -1    0    0  503    0 -0.00000000000E+00 -0.00000000000E+00 -0.88812733629E+03  0.88812733629E+03  0.00000000000E+00 0. -1.
         24    2    1    2    0    0  0.52709894715E+02  0.68200423534E+02 -0.63027696074E+03  0.64101874010E+03  0.78907206002E+02 0.  0.
         23    2    1    2    0    0 -0.65257010507E+02  0.32019986729E+02 -0.13595108538E+03  0.18019407018E+03  0.93292273749E+02 0.  0.
        -11    1    3    3    0    0  0.30627906485E+02  0.18578322364E+02 -0.75258289511E+02  0.83348862366E+02  0.00000000000E+00 0.  1.
         12    1    3    3    0    0  0.22081988230E+02  0.49622101171E+02 -0.55501867122E+03  0.55766987774E+03  0.00000000000E+00 0. -1.
        -13    1    4    4    0    0  0.14132457531E+02  0.32858143939E+02 -0.62623278930E+02  0.72118368277E+02  0.00000000000E+00 0. -1.
         13    1    4    4    0    0 -0.79389468038E+02 -0.83815721009E+00 -0.73327806454E+02  0.10807570190E+03  0.00000000000E+00 0.  1.
         21    1    1    2  503  502  0.33967817058E+02 -0.15623543717E+02 -0.78177225787E+00  0.37396776356E+02  0.00000000000E+00 0. -1.
          1    1    1    2  501    0 -0.21420701266E+02 -0.84596866547E+02 -0.50039767589E+02  0.10059549996E+03  0.00000000000E+00 0. -1.
<scales pt_clust_5="13000.00000" pt_clust_6="13000.00000" pt_clust_7="13000.00000" pt_clust_8="13000.00000" pt_clust_9="37.38860" pt_clust_10="13000.00000"></scales>
<clustering>
<clus scale="   37.389">  1  9  2 -1</clus>
<clus scale="   78.907">  5  6 -1 -1</clus>
<clus scale="   93.292">  7  8 -1 -1</clus>
<clus scale="   92.225">  7 10 -1 -1</clus>
<clus scale="  117.550">  2  5  1 -1</clus>
<clus scale="   37.389">  1  5  2 -1</clus>
</clustering>
</event>
<event>
10    4  0.2759992E-005  0.1500408E+03  0.7546771E-02  0.1217752E+00
         21   -1    0    0  501  502  0.00000000000E+00  0.00000000000E+00  0.64890909038E+02  0.64890909038E+02  0.00000000000E+00 0.  1.
         -3   -1    0    0    0  501 -0.00000000000E+00 -0.00000000000E+00 -0.34467488275E+03  0.34467488275E+03  0.00000000000E+00 0.  1.
         24    2    1    2    0    0 -0.22361745984E+02  0.64694287322E+02 -0.17204098687E+03  0.20163211793E+03  0.79824879094E+02 0.  0.
         23    2    1    2    0    0 -0.33253011789E+02 -0.25990781051E+02 -0.61148517781E+02  0.11565875639E+03  0.88637030687E+02 0.  0.
        -11    1    3    3    0    0 -0.60396795280E+01  0.79589445755E+02 -0.11103026860E+03  0.13674311006E+03  0.00000000000E+00 0.  1.
         12    1    3    3    0    0 -0.16322066456E+02 -0.14895158433E+02 -0.61010718274E+02  0.64889007871E+02  0.00000000000E+00 0. -1.
        -11    1    4    4    0    0 -0.59973825615E+02 -0.12229560263E+02 -0.19385187353E+02  0.64204418788E+02  0.00000000000E+00 0.  1.
         11    1    4    4    0    0  0.26720813826E+02 -0.13761220789E+02 -0.41763330429E+02  0.51454337598E+02  0.00000000000E+00 0. -1.
         21    1    1    2  503  502  0.22935485195E+02 -0.22414422625E+01  0.22000234394E+01  0.23149528023E+02  0.00000000000E+00 0.  1.
         -4    1    1    2    0  503  0.32679272578E+02 -0.36462064008E+02 -0.48794492496E+02  0.69125389445E+02  0.00000000000E+00 0.  1.
<scales pt_clust_5="13000.00000" pt_clust_6="13000.00000" pt_clust_7="13000.00000" pt_clust_8="13000.00000" pt_clust_9="23.04475" pt_clust_10="13000.00000"></scales>
<clustering>
<clus scale="   23.045">  1  9  2 -1</clus>
<clus scale="   79.825">  5  6 -1 -1</clus>
<clus scale="   88.637">  7  8 -1 -1</clus>
<clus scale="   52.356">  7 10 -1 -1</clus>
<clus scale="  103.572">  2  5  1 -1</clus>
<clus scale="   23.045">  1  5  2 -1</clus>
</clustering>
</event>
<event>
10    4  0.2759992E-005  0.2953429E+03  0.7546771E-02  0.1127233E+00
         21   -1    0    0  501  502  0.00000000000E+00  0.00000000000E+00  0.15626387372E+03  0.15626387372E+03  0.00000000000E+00 0. -1.
         -1   -1    0    0    0  501 -0.00000000000E+00 -0.00000000000E+00 -0.33847107346E+03  0.33847107346E+03  0.00000000000E+00 0.  1.
         24    2    1    2    0    0  0.16485186103E+02  0.11694669086E+02 -0.69938051323E+02  0.12826139843E+03  0.10559890463E+03 0.  0.
         23    2    1    2    0    0 -0.69468675941E+02 -0.36401454418E+02  0.44719565161E+02  0.12697341953E+03  0.89282959957E+02 0.  0.
        -11    1    3    3    0    0  0.79650841867E+01 -0.26277378091E+02  0.17495535474E+02  0.32558208289E+02  0.00000000000E+00 0.  1.
         12    1    3    3    0    0  0.85201019163E+01  0.37972047178E+02 -0.87433586797E+02  0.95703190144E+02  0.00000000000E+00 0. -1.
        -11    1    4    4    0    0 -0.41912028289E+02 -0.59236779154E+02  0.38751905447E+01  0.72667951819E+02  0.00000000000E+00 0. -1.
         11    1    4    4    0    0 -0.27556647652E+02  0.22835324737E+02  0.40844374616E+02  0.54305467712E+02  0.00000000000E+00 0.  1.
         21    1    1    2  503  502 -0.14528708004E+01 -0.19986352020E+02  0.32031806949E+02  0.37783617575E+02  0.00000000000E+00 0. -1.
         -2    1    1    2    0  503  0.54436360638E+02  0.44693137351E+02 -0.18902052053E+03  0.20171651163E+03  0.00000000000E+00 0.  1.
<scales pt_clust_5="13000.00000" pt_clust_6="13000.00000" pt_clust_7="13000.00000" pt_clust_8="13000.00000" pt_clust_9="20.03909" pt_clust_10="13000.00000"></scales>
<clustering>
<clus scale="   20.039">  1  9  2 -1</clus>
<clus scale="   89.283">  7  8 -1 -1</clus>
<clus scale="   69.715">  7 10 -1 -1</clus>
<clus scale="  105.599">  5  6 -1 -1</clus>
<clus scale="  107.047">  2  5  1 -1</clus>
<clus scale="   20.039">  1  5  2 -1</clus>
</clustering>
</event>
<event>
10    4  0.2759992E-005  0.4292900E+03  0.7546771E-02  0.1082656E+00
         21   -1    0    0  503  502  0.00000000000E+00  0.00000000000E+00  0.11841687025E+04  0.11841687025E+04  0.00000000000E+00 0.  1.
         -3   -1    0    0    0  501 -0.00000000000E+00 -0.00000000000E+00 -0.12723271616E+03  0.12723271616E+03  0.00000000000E+00 0.  1.
         24    2    1    2    0    0  0.68923839862E+02 -0.31237578041E+02  0.13331900264E+03  0.17265697464E+03  0.79436719749E+02 0.  0.
         23    2    1    2    0    0  0.40037312858E+02 -0.20138279196E+03  0.19206258696E+03  0.29912769740E+03  0.10213386666E+03 0.  0.
        -13    1    3    3    0    0  0.71376618377E+02  0.31222029251E+01  0.67100675775E+02  0.98014644270E+02  0.00000000000E+00 0.  1.
         14    1    3    3    0    0 -0.24527785150E+01 -0.34359780966E+02  0.66218326867E+02  0.74642330373E+02  0.00000000000E+00 0. -1.
        -13    1    4    4    0    0  0.20302609273E+02  0.31272366600E+00  0.57632855939E+00  0.20313195071E+02  0.00000000000E+00 0. -1.
         13    1    4    4    0    0  0.19734703585E+02 -0.20169551563E+03  0.19148625840E+03  0.27881450233E+03  0.00000000000E+00 0.  1.
         21    1    1    2  503  501 -0.11528087864E+03  0.47479908838E+02  0.59897692737E+03  0.61181482676E+03  0.00000000000E+00 0.  1.
         -4    1    1    2    0  502  0.63197259160E+01  0.18514046116E+03  0.13257746932E+03  0.22780191981E+03  0.00000000000E+00 0.  1.
<scales pt_clust_5="13000.00000" pt_clust_6="13000.00000" pt_clust_7="13000.00000" pt_clust_8="13000.00000" pt_clust_9="120.16272" pt_clust_10="13000.00000"></scales>
<clustering>
<clus scale="   79.437">  5  6 -1 -1</clus>
<clus scale="  102.134">  7  8 -1 -1</clus>
<clus scale="  109.711">  2  5  1 -1</clus>
<clus scale="  120.163">  1  9  2 -1</clus>
<clus scale="  189.905">  7 10 -1 -1</clus>
<clus scale="  120.163">  1  5  2 -1</clus>
</clustering>
</event>
<event>
10    4  0.2759992E-005  0.1355035E+03  0.7546771E-02  0.1244253E+00
         21   -1    0    0  503  502  0.00000000000E+00  0.00000000000E+00  0.75898821879E+02  0.75898821879E+02  0.00000000000E+00 0. -1.
          2   -1    0    0  502    0 -0.00000000000E+00 -0.00000000000E+00 -0.51005530405E+03  0.51005530405E+03  0.00000000000E+00 0. -1.
         24    2    1    2    0    0 -0.27929965046E+01 -0.16713921078E+02 -0.37242341632E+03  0.38134387307E+03  0.80229623727E+02 0.  0.
         23    2    1    2    0    0 -0.44862188370E+02 -0.39166072070E+02 -0.59288176622E+02  0.12566368175E+03  0.93432734511E+02 0.  0.
        -13    1    3    3    0    0  0.35340638827E+02  0.47969890792E+01 -0.12137877533E+03  0.12650999548E+03  0.00000000000E+00 0.  1.
         14    1    3    3    0    0 -0.38133635332E+02 -0.21510910157E+02 -0.25104464099E+03  0.25483387759E+03  0.00000000000E+00 0. -1.
        -13    1    4    4    0    0 -0.14477502848E+02 -0.60116562966E+02 -0.63359297842E+02  0.88532479094E+02  0.00000000000E+00 0. -1.
         13    1    4    4    0    0 -0.30384685522E+02  0.20950490896E+02  0.40711212197E+01  0.37131202660E+02  0.00000000000E+00 0.  1.
         21    1    1    2  503  501  0.35795674900E+02  0.29939159888E+02  0.10165584576E+02  0.47760053874E+02  0.00000000000E+00 0. -1.
          1    1    1    2  501    0  0.11859509975E+02  0.25940833261E+02 -0.12610473811E+02  0.31186517229E+02  0.00000000000E+00 0. -1.
<scales pt_clust_5="13000.00000" pt_clust_6="13000.00000" pt_clust_7="13000.00000" pt_clust_8="13000.00000" pt_clust_9="46.66566" pt_clust_10="13000.00000"></scales>
<clustering>
<clus scale="   46.666">  1  9  2 -1</clus>
<clus scale="   80.230">  5  6 -1 -1</clus>
<clus scale="   81.422">  2  5  1 -1</clus>
<clus scale="   93.433">  7  8 -1 -1</clus>
<clus scale="   33.547">  7 10 -1 -1</clus>
<clus scale="   46.666">  1  5  2 -1</clus>
</clustering>
</event>
<event>
10    4  0.2759992E-005  0.2031507E+03  0.7546771E-02  0.1186734E+00
          2   -1    0    0  503    0 -0.00000000000E+00  0.00000000000E+00  0.77328160600E+03  0.77328160600E+03  0.00000000000E+00 0. -1.
         21   -1    0    0  501  502  0.00000000000E+00 -0.00000000000E+00 -0.50731528301E+02  0.50731528301E+02  0.00000000000E+00 0. -1.
         24    2    1    2    0    0  0.22463122394E+02 -0.33849273235E+01  0.26136207447E+03  0.27429589044E+03  0.80075289180E+02 0.  0.
         23    2    1    2    0    0 -0.64784192131E+02  0.43901441030E+02  0.30836028236E+03  0.33078695546E+03  0.90606942834E+02 0.  0.
        -11    1    3    3    0    0 -0.12440948451E+01 -0.38615663156E+02  0.15565468712E+03  0.16037798738E+03  0.00000000000E+00 0.  1.
         12    1    3    3    0    0  0.23707217239E+02  0.35230735832E+02  0.10570738736E+03  0.11391790306E+03  0.00000000000E+00 0. -1.
        -13    1    4    4    0    0  0.69232113853E+01 -0.20116715374E+02  0.34350488528E+02  0.40405063487E+02  0.00000000000E+00 0.  1.
         13    1    4    4    0    0 -0.71707403516E+02  0.64018156405E+02  0.27400979383E+03  0.29038189197E+03  0.00000000000E+00 0. -1.
         21    1    1    2  503  502 -0.37993438353E+02 -0.20598478396E+02 -0.21218088006E+01  0.43270090625E+02  0.00000000000E+00 0. -1.
          1    1    1    2  501    0  0.80314508090E+02 -0.19918035310E+02  0.15494952966E+03  0.17566019778E+03  0.00000000000E+00 0. -1.
<scales pt_clust_5="13000.00000" pt_clust_6="13000.00000" pt_clust_7="13000.00000" pt_clust_8="13000.00000" pt_clust_9="43.21804" pt_clust_10="13000.00000"></scales>
<clustering>
<clus scale="   43.218">  2  9  1 -1</clus>
<clus scale="   80.075">  5  6 -1 -1</clus>
<clus scale="   81.645">  1  5  2 -1</clus>
<clus scale="   90.607">  7  8 -1 -1</clus>
<clus scale="   76.118">  7 10 -1 -1</clus>
<clus scale="   43.218">  2  5  1 -1</clus>
</clustering>
</event>
<event>
10    4  0.2759992E-005  0.5091821E+03  0.7546771E-02  0.1059069E+00
         21   -1    0    0  503  502  0.00000000000E+00  0.00000000000E+00  0.11781968517E+03  0.11781968517E+03  0.00000000000E+00 0. -1.
          2   -1    0    0  502    0 -0.00000000000E+00 -0.00000000000E+00 -0.11161385238E+04  0.11161385238E+04  0.00000000000E+00 0. -1.
         24    2    1    2    0    0 -0.10424043628E+03  0.65470029271E+01 -0.18452506335E+03  0.22656604768E+03  0.79835726052E+02 0.  0.
         23    2    1    2    0    0 -0.20485104190E+03 -0.30019680967E+02 -0.32937299015E+03  0.39945595989E+03  0.90627626250E+02 0.  0.
        -13    1    3    3    0    0 -0.44267580343E+02  0.31487816991E+02 -0.13297408903E+03  0.14364264562E+03  0.00000000000E+00 0.  1.
         14    1    3    3    0    0 -0.59972855942E+02 -0.24940814064E+02 -0.51550974323E+02  0.82923402063E+02  0.00000000000E+00 0. -1.
        -11    1    4    4    0    0 -0.13237082923E+03  0.57189676092E+01 -0.26448814070E+03  0.29581872759E+03  0.00000000000E+00 0. -1.
         11    1    4    4    0    0 -0.72480212670E+02 -0.35738648576E+02 -0.64884849443E+02  0.10363723230E+03  0.00000000000E+00 0.  1.
         21    1    1    2  503  501  0.33246639143E+02 -0.37225264249E+00  0.15330535749E+02  0.36612879055E+02  0.00000000000E+00 0. -1.
          1    1    1    2  501    0  0.27584483904E+03  0.23844930682E+02 -0.49975132091E+03  0.57132332238E+03  0.00000000000E+00 0. -1.
<scales pt_clust_5="13000.00000" pt_clust_6="13000.00000" pt_clust_7="13000.00000" pt_clust_8="13000.00000" pt_clust_9="33.24872" pt_clust_10="13000.00000"></scales>
<clustering>
<clus scale="   33.249">  1  9  2 -1</clus>
<clus scale="   79.836">  5  6 -1 -1</clus>
<clus scale="   90.628">  7  8 -1 -1</clus>
<clus scale="  125.512">  2  5  1 -1</clus>
<clus scale="  228.888">  7 10 -1 -1</clus>
<clus scale="   33.249">  1  5  2 -1</clus>
</clustering>
</event>
<event>
10    4  0.2759992E-005  0.9892972E+03  0.7546771E-02  0.9829748E-01
          2   -1    0    0  503    0 -0.00000000000E+00  0.00000000000E+00  0.16456377505E+04  0.16456377505E+04  0.00000000000E+00 0. -1.
         21   -1    0    0  501  502  0.00000000000E+00 -0.00000000000E+00 -0.30195723319E+03  0.30195723319E+03  0.00000000000E+00 0. -1.
         24    2    1    2    0    0  0.11773981217E+02  0.15170513290E+03  0.24016494244E+03  0.29483160343E+03  0.78060238414E+02 0.  0.
         23    2    1    2    0    0  0.51033489383E+03 -0.10217434011E+03  0.50281450404E+03  0.72932580017E+03  0.90622280295E+02 0.  0.
        -11    1    3    3    0    0 -0.88892181092E+01  0.27759776480E+02  0.70215335773E+01  0.29982083360E+02  0.00000000000E+00 0.  1.
         12    1    3    3    0    0  0.20663199326E+02  0.12394535642E+03  0.23314340887E+03  0.26484952007E+03  0.00000000000E+00 0. -1.
        -11    1    4    4    0    0  0.43229582207E+03 -0.55539286953E+02  0.39405810220E+03  0.58757644446E+03  0.00000000000E+00 0. -1.
         11    1    4    4    0    0  0.78039071768E+02 -0.46635053156E+02  0.10875640184E+03  0.14174935571E+03  0.00000000000E+00 0.  1.
         21    1    1    2  503  502 -0.10290446760E+03 -0.16050189359E+03  0.40509431540E+03  0.44771820565E+03  0.00000000000E+00 0. -1.
          1    1    1    2  501    0 -0.41920440745E+03  0.11097110080E+03  0.19560675541E+03  0.47571937442E+03  0.00000000000E+00 0. -1.
<scales pt_clust_5="13000.00000" pt_clust_6="13000.00000" pt_clust_7="13000.00000" pt_clust_8="13000.00000" pt_clust_9="150.82930" pt_clust_10="13000.00000"></scales>
<clustering>
<clus scale="   78.060">  5  6 -1 -1</clus>
<clus scale="   90.622">  7  8 -1 -1</clus>
<clus scale="  171.016">  1  5  2 -1</clus>
<clus scale="  150.829">  2  9  1 -1</clus>
<clus scale="  478.964">  7 10 -1 -1</clus>
<clus scale="  150.829">  2  5  1 -1</clus>
</clustering>
</event>
<event>
10    4  0.2759992E-005  0.3946239E+03  0.7546771E-02  0.1076633E+00
         21   -1    0    0  501  502  0.00000000000E+00  0.00000000000E+00  0.17529552757E+03  0.17529552757E+03  0.00000000000E+00 0.  1.
          2   -1    0    0  503    0 -0.00000000000E+00 -0.00000000000E+00 -0.78681895382E+03  0.78681895382E+03  0.00000000000E+00 0. -1.
         24    2    1    2    0    0 -0.93789931997E+01 -0.15062916836E+03  0.13460678146E+02  0.17154508616E+03  0.80432672791E+02 0.  0.
         23    2    1    2    0    0  0.12195225196E+03 -0.31905206764E+02 -0.10014327325E+03  0.18465574333E+03  0.90436576624E+02 0.  0.
        -13    1    3    3    0    0 -0.28482902212E+02 -0.11420564317E+03 -0.18899308508E+02  0.11921152844E+03  0.00000000000E+00 0.  1.
         14    1    3    3    0    0  0.19103909012E+02 -0.36423525194E+02  0.32359986654E+02  0.52333557717E+02  0.00000000000E+00 0. -1.
        -13    1    4    4    0    0  0.91524951568E+01 -0.40303574719E+02 -0.34777509988E+02  0.54015011836E+02  0.00000000000E+00 0.  1.
         13    1    4    4    0    0  0.11279975680E+03  0.83983679549E+01 -0.65365763262E+02  0.13064073149E+03  0.00000000000E+00 0. -1.
         21    1    1    2  503  502 -0.46972121335E+02  0.16869370190E+02  0.18051155326E+01  0.49942109240E+02  0.00000000000E+00 0. -1.
          1    1    1    2  501    0 -0.65601137422E+02  0.16566500494E+03 -0.52664594668E+03  0.55597154266E+03  0.00000000000E+00 0. -1.
<scales pt_clust_5="13000.00000" pt_clust_6="13000.00000" pt_clust_7="13000.00000" pt_clust_8="13000.00000" pt_clust_9="49.90948" pt_clust_10="13000.00000"></scales>
<clustering>
<clus scale="   49.909">  1  9  2 -1</clus>
<clus scale="   80.433">  5  6 -1 -1</clus>
<clus scale="   90.437">  7  8 -1 -1</clus>
<clus scale="  166.134">  2  5  1 -1</clus>
<clus scale="  114.699">  7 10 -1 -1</clus>
<clus scale="   49.909">  1  5  2 -1</clus>
</clustering>
</event>
<event>
10    4  0.2759992E-005  0.2605126E+03  0.7546771E-02  0.1137708E+00
         21   -1    0    0  503  502  0.00000000000E+00  0.00000000000E+00  0.18931351319E+03  0.18931351319E+03  0.00000000000E+00 0. -1.
          2   -1    0    0  502    0 -0.00000000000E+00 -0.00000000000E+00 -0.30346159827E+03  0.30346159827E+03  0.00000000000E+00 0. -1.
         24    2    1    2    0    0 -0.91804534538E+02  0.10368960978E+02 -0.10485926974E+03  0.16139597793E+03  0.80731699661E+02 0.  0.
         23    2    1    2    0    0  0.41572627595E+02 -0.81862099594E+02  0.43821606598E+02  0.13690297196E+03  0.91610063918E+02 0.  0.
        -11    1    3    3    0    0 -0.27453645863E+02 -0.18203306533E+02  0.24705536960E+01  0.33032812103E+02  0.00000000000E+00 0.  1.
         12    1    3    3    0    0 -0.64350888675E+02  0.28572267510E+02 -0.10732982343E+03  0.12836316583E+03  0.00000000000E+00 0. -1.
        -13    1    4    4    0    0 -0.21921470028E+02 -0.57509788217E+02  0.17534806812E+02  0.63995281380E+02  0.00000000000E+00 0. -1.
         13    1    4    4    0    0  0.63494097623E+02 -0.24352311376E+02  0.26286799787E+02  0.72907690578E+02  0.00000000000E+00 0.  1.
         21    1    1    2  503  501  0.14303748949E+02  0.17684343006E+02  0.60000924688E+02  0.64167313993E+02  0.00000000000E+00 0. -1.
          1    1    1    2  501    0  0.35928157993E+02  0.53808795610E+02 -0.11311134663E+03  0.13030884758E+03  0.00000000000E+00 0. -1.
<scales pt_clust_5="13000.00000" pt_clust_6="13000.00000" pt_clust_7="13000.00000" pt_clust_8="13000.00000" pt_clust_9="22.74496" pt_clust_10="13000.00000"></scales>
<clustering>
<clus scale="   22.745">  1  9  2 -1</clus>
<clus scale="   80.732">  5  6 -1 -1</clus>
<clus scale="   91.610">  7  8 -1 -1</clus>
<clus scale="   66.232">  7 10 -1 -1</clus>
<clus scale="  120.734">  2  5  1 -1</clus>
<clus scale="   22.745">  1  5  2 -1</clus>
</clustering>
</event>
<event>
10    4  0.2759992E-005  0.2410475E+03  0.7546771E-02  0.1144564E+00
         21   -1    0    0  501  502  0.00000000000E+00  0.00000000000E+00  0.64472436271E+02  0.64472436271E+02  0.00000000000E+00 0.  1.
          2   -1    0    0  503    0 -0.00000000000E+00 -0.00000000000E+00 -0.11102954083E+04  0.11102954083E+04  0.00000000000E+00 0. -1.
         24    2    1    2    0    0  0.28865989646E+02  0.73912945920E+02 -0.24698379935E+03  0.27215580580E+03  0.82288617435E+02 0.  0.
         23    2    1    2    0    0 -0.25118673267E+02 -0.89182774741E+01 -0.60624691665E+03  0.61617908076E+03  0.10691516352E+03 0.  0.
        -13    1    3    3    0    0  0.46964959477E+02  0.54493770246E+02 -0.10233217814E+03  0.12508858100E+03  0.00000000000E+00 0.  1.
         14    1    3    3    0    0 -0.18098969830E+02  0.19419175675E+02 -0.14465162121E+03  0.14706722480E+03  0.00000000000E+00 0. -1.
        -13    1    4    4    0    0 -0.61219146566E+02 -0.30219246889E+02 -0.37545605371E+03  0.38161267675E+03  0.00000000000E+00 0. -1.
         13    1    4    4    0    0  0.36100473299E+02  0.21300969415E+02 -0.23079086294E+03  0.23456640400E+03  0.00000000000E+00 0.  1.
         21    1    1    2  503  502  0.44989110043E+02  0.37151835556E+02  0.51706433486E+01  0.58574862016E+02  0.00000000000E+00 0.  1.
          1    1    1    2  501    0 -0.48736426422E+02 -0.10214650400E+03 -0.19776289938E+03  0.22785809600E+03  0.00000000000E+00 0. -1.
<scales pt_clust_5="13000.00000" pt_clust_6="13000.00000" pt_clust_7="13000.00000" pt_clust_8="13000.00000" pt_clust_9="58.34620" pt_clust_10="13000.00000"></scales>
<clustering>
<clus scale="   58.346">  1  9  2 -1</clus>
<clus scale="   82.289">  5  6 -1 -1</clus>
<clus scale="  106.915">  7  8 -1 -1</clus>
<clus scale="   89.481">  7 10 -1 -1</clus>
<clus scale="  129.222">  2  5  1 -1</clus>
<clus scale="   58.346">  1  5  2 -1</clus>
</clustering>
</event>
<event>
10    4  0.2759992E-005  0.2106811E+03  0.7546771E-02  0.1152394E+00
         21   -1    0    0  503  502  0.00000000000E+00  0.00000000000E+00  0.23434530590E+03  0.23434530590E+03  0.00000000000E+00 0.  1.
          2   -1    0    0  502    0 -0.00000000000E+00 -0.00000000000E+00 -0.44012149982E+03  0.44012149982E+03  0.00000000000E+00 0. -1.
         24    2    1    2    0    0 -0.99807947388E+02  0.13289450669E+03  0.12154998303E+03  0.22276707051E+03  0.85018780640E+02 0.  0.
         23    2    1    2    0    0  0.51253160338E+02 -0.51081021259E+02 -0.32168274530E+03  0.34139711287E+03  0.88521426073E+02 0.  0.
        -11    1    3    3    0    0 -0.42465979069E+02  0.11941325036E+03  0.71803745038E+02  0.14566626769E+03  0.00000000000E+00 0.  1.
         12    1    3    3    0    0 -0.57341968319E+02  0.13481256331E+02  0.49746237989E+02  0.77100802830E+02  0.00000000000E+00 0. -1.
        -11    1    4    4    0    0 -0.14715536951E+02  0.14489517267E+02 -0.45362611819E+02  0.49842348354E+02  0.00000000000E+00 0.  1.
         11    1    4    4    0    0  0.65968697289E+02 -0.65570538526E+02 -0.27632013348E+03  0.29155476452E+03  0.00000000000E+00 0. -1.
         21    1    1    2  503  501  0.17515548141E+02 -0.30383443749E+02  0.24804628800E+02  0.42955997144E+02  0.00000000000E+00 0. -1.
          1    1    1    2  501    0  0.31039238909E+02 -0.51430041682E+02 -0.30448060450E+02  0.67346625191E+02  0.00000000000E+00 0. -1.
<scales pt_clust_5="13000.00000" pt_clust_6="13000.00000" pt_clust_7="13000.00000" pt_clust_8="13000.00000" pt_clust_9="35.07062" pt_clust_10="13000.00000"></scales>
<clustering>
<clus scale="   35.071">  1  9  2 -1</clus>
<clus scale="   85.019">  5  6 -1 -1</clus>
<clus scale="   88.521">  7  8 -1 -1</clus>
<clus scale="   63.298">  7 10 -1 -1</clus>
<clus scale="  160.686">  2  5  1 -1</clus>
<clus scale="   35.071">  1  5  2 -1</clus>
</clustering>
</event>
<event>
10    4  0.2759992E-005  0.6230680E+03  0.7546771E-02  0.1032169E+00
         -1   -1    0    0    0  501 -0.00000000000E+00  0.00000000000E+00  0.81518819870E+03  0.81518819870E+03  0.00000000000E+00 0.  1.
         21   -1    0    0  501  502  0.00000000000E+00 -0.00000000000E+00 -0.51424925960E+03  0.51424925960E+03  0.00000000000E+00 0. -1.
         24    2    1    2    0    0  0.95889733862E+02 -0.48534178447E+02 -0.10636568967E+03  0.17074740068E+03  0.79313349195E+02 0.  0.
         23    2    1    2    0    0  0.12440174440E+03  0.36143926220E+02 -0.55051935630E+02  0.16779319489E+03  0.91332706208E+02 0.  0.
        -13    1    3    3    0    0  0.56725386228E+02 -0.25128809180E+02 -0.83093466820E+01  0.62596100005E+02  0.00000000000E+00 0.  1.
         14    1    3    3    0    0  0.39164347634E+02 -0.23405369267E+02 -0.98056342992E+02  0.10815130067E+03  0.00000000000E+00 0. -1.
        -13    1    4    4    0    0  0.23541949920E+02  0.35708405026E+02 -0.51398341422E+02  0.66866307633E+02  0.00000000000E+00 0.  1.
         13    1    4    4    0    0  0.10085979448E+03  0.43552119395E+00 -0.36535942073E+01  0.10092688726E+03  0.00000000000E+00 0. -1.
         21    1    1    2  503  502 -0.27568833278E+02 -0.90462376812E+02 -0.23861647849E+03  0.25667353972E+03  0.00000000000E+00 0.  1.
         -2    1    1    2    0  503 -0.19272264498E+03  0.10285262904E+03  0.70097304289E+03  0.73422332301E+03  0.00000000000E+00 0.  1.
<scales pt_clust_5="13000.00000" pt_clust_6="13000.00000" pt_clust_7="13000.00000" pt_clust_8="13000.00000" pt_clust_9="94.56999" pt_clust_10="13000.00000"></scales>
<clustering>
<clus scale="   79.313">  5  6 -1 -1</clus>
<clus scale="   91.333">  7  8 -1 -1</clus>
<clus scale="   94.570">  2  9  1 -1</clus>
<clus scale="  148.568">  1  5  2 -1</clus>
<clus scale="  119.043">  7 10 -1 -1</clus>
<clus scale="   94.570">  2  5  1 -1</clus>
</clustering>
</event>
<event>
10    4  0.2759992E-005  0.2350223E+03  0.7546771E-02  0.1134256E+00
          4   -1    0    0  503    0 -0.00000000000E+00  0.00000000000E+00  0.63064123489E+03  0.63064123489E+03  0.00000000000E+00 0. -1.
         21   -1    0    0  501  502  0.00000000000E+00 -0.00000000000E+00 -0.26673551145E+03  0.26673551145E+03  0.00000000000E+00 0. -1.
         24    2    1    2    0    0 -0.12042858632E+03  0.89577766771E+02  0.36538383546E+03  0.40312700350E+03  0.80491074222E+02 0.  0.
         23    2    1    2    0    0  0.15562689608E+03 -0.11242844791E+01  0.11509511024E+03  0.21368968437E+03  0.90528459648E+02 0.  0.
        -11    1    3    3    0    0 -0.36416122450E+02  0.24576917407E+02  0.35255537059E+02  0.56330380230E+02  0.00000000000E+00 0.  1.
         12    1    3    3    0    0 -0.84012463870E+02  0.65000849364E+02  0.33012829840E+03  0.34679662327E+03  0.00000000000E+00 0. -1.
        -11    1    4    4    0    0  0.10966214423E+03  0.41055724823E+02  0.83036442334E+02  0.14354932662E+03  0.00000000000E+00 0. -1.
         11    1    4    4    0    0  0.45964751850E+02 -0.42180009302E+02  0.32058667904E+02  0.70140357749E+02  0.00000000000E+00 0.  1.
         21    1    1    2  503  502 -0.62909154690E+02 -0.88692852503E+01 -0.16952194576E+03  0.18103567620E+03  0.00000000000E+00 0. -1.
          3    1    1    2  501    0  0.27710844930E+02 -0.79584197042E+02  0.52948723505E+02  0.99524382270E+02  0.00000000000E+00 0. -1.
<scales pt_clust_5="13000.00000" pt_clust_6="13000.00000" pt_clust_7="13000.00000" pt_clust_8="13000.00000" pt_clust_9="63.53130" pt_clust_10="13000.00000"></scales>
<clustering>
<clus scale="   63.531">  2  9  1 -1</clus>
<clus scale="   80.491">  5  6 -1 -1</clus>
<clus scale="   90.528">  7  8 -1 -1</clus>
<clus scale="   82.674">  7 10 -1 -1</clus>
<clus scale="  178.820">  1  5  2 -1</clus>
<clus scale="   63.531">  2  5  1 -1</clus>
</clustering>
</event>
<event>
10    4  0.2759992E-005  0.4501456E+03  0.7546771E-02  0.1049624E+00
          2   -1    0    0  503    0 -0.00000000000E+00  0.00000000000E+00  0.13174194062E+04  0.13174194062E+04  0.00000000000E+00 0. -1.
         21   -1    0    0  501  502  0.00000000000E+00 -0.00000000000E+00 -0.12841523402E+03  0.12841523402E+03  0.00000000000E+00 0. -1.
         24    2    1    2    0    0 -0.12431400281E+03 -0.21323232210E+03  0.25673943332E+03  0.36494250605E+03  0.79661167538E+02 0.  0.
         23    2    1    2    0    0 -0.74078093979E+02 -0.31760587720E+02  0.54850136250E+03  0.56185889802E+03  0.91298289573E+02 0.  0.
        -13    1    3    3    0    0 -0.14802122367E+02 -0.73228837166E+02  0.11710952250E+03  0.13891078317E+03  0.00000000000E+00 0.  1.
         14    1    3    3    0    0 -0.10951188044E+03 -0.14000348493E+03  0.13962991082E+03  0.22603172288E+03  0.00000000000E+00 0. -1.
        -11    1    4    4    0    0 -0.92196212306E+02 -0.10997784605E+02  0.38403486521E+03  0.39509982349E+03  0.00000000000E+00 0. -1.
         11    1    4    4    0    0  0.18118118327E+02 -0.20762803115E+02  0.16446649730E+03  0.16675907453E+03  0.00000000000E+00 0.  1.
         21    1    1    2  503  502  0.27101311148E+02  0.35653439906E+02 -0.53917440817E+01  0.45107867909E+02  0.00000000000E+00 0. -1.
          1    1    1    2  501    0  0.17129078564E+03  0.20933946991E+03  0.38915512045E+03  0.47392536826E+03  0.00000000000E+00 0. -1.
<scales pt_clust_5="13000.00000" pt_clust_6="13000.00000" pt_clust_7="13000.00000" pt_clust_8="13000.00000" pt_clust_9="44.78447" pt_clust_10="13000.00000"></scales>
<clustering>
<clus scale="   44.784">  2  9  1 -1</clus>
<clus scale="   79.661">  5  6 -1 -1</clus>
<clus scale="   91.298">  7  8 -1 -1</clus>
<clus scale="  237.302">  1  5  2 -1</clus>
<clus scale="  184.695">  7 10 -1 -1</clus>
<clus scale="   44.784">  2  5  1 -1</clus>
</clustering>
</event>
<event>
10    4  0.2759992E-005  0.4251967E+03  0.7546771E-02  0.1080309E+00
         21   -1    0    0  501  502  0.00000000000E+00  0.00000000000E+00  0.77665505349E+02  0.77665505349E+02  0.00000000000E+00 0. -1.
          2   -1    0    0  503    0 -0.00000000000E+00 -0.00000000000E+00 -0.24567345563E+04  0.24567345563E+04  0.00000000000E+00 0. -1.
         24    2    1    2    0    0  0.89761730139E+02  0.15286334553E+02 -0.53865812557E+03  0.55191894152E+03  0.78556359029E+02 0.  0.
         23    2    1    2    0    0  0.38576045961E+02  0.63250376872E+02 -0.13661632205E+03  0.17971713072E+03  0.90252457734E+02 0.  0.
        -13    1    3    3    0    0  0.20137913097E+02  0.26901959575E+02 -0.66444304902E+02  0.74458690741E+02  0.00000000000E+00 0.  1.
         14    1    3    3    0    0  0.69623817042E+02 -0.11615625022E+02 -0.47221382066E+03  0.47746025078E+03  0.00000000000E+00 0. -1.
        -11    1    4    4    0    0  0.67006413500E+02  0.48123063001E+02 -0.11239213521E+03  0.13941908298E+03  0.00000000000E+00 0. -1.
         11    1    4    4    0    0 -0.28430367538E+02  0.15127313871E+02 -0.24224186841E+02  0.40298047737E+02  0.00000000000E+00 0.  1.
         21    1    1    2  503  502 -0.28353138723E+02 -0.28149024494E+03 -0.47145044927E+03  0.54982377594E+03  0.00000000000E+00 0. -1.
          1    1    1    2  501    0 -0.99984637378E+02  0.20295353352E+03 -0.12323441541E+04  0.12529402135E+04  0.00000000000E+00 0. -1.
<scales pt_clust_5="13000.00000" pt_clust_6="13000.00000" pt_clust_7="13000.00000" pt_clust_8="13000.00000" pt_clust_9="277.44102" pt_clust_10="13000.00000"></scales>
<clustering>
<clus scale="   78.556">  5  6 -1 -1</clus>
<clus scale="   90.252">  7  8 -1 -1</clus>
<clus scale="  120.258">  2  5  1 -1</clus>
<clus scale="  216.923">  7 10 -1 -1</clus>
<clus scale="  277.441">  1  9  2 -1</clus>
<clus scale="  277.441">  1  5  2 -1</clus>
</clustering>
</event>
<event>
10    4  0.2759992E-005  0.2017826E+03  0.7546771E-02  0.1153792E+00
          2   -1    0    0  503    0 -0.00000000000E+00  0.00000000000E+00  0.86564188688E+03  0.86564188688E+03  0.00000000000E+00 0. -1.
         21   -1    0    0  501  502  0.00000000000E+00 -0.00000000000E+00 -0.34203812486E+03  0.34203812486E+03  0.00000000000E+00 0.  1.
         24    2    1    2    0    0  0.74257784899E+02 -0.13973616624E+03  0.78312679090E+03  0.80277183102E+03  0.78196082328E+02 0.  0.
         23    2    1    2    0    0 -0.71734938140E+02  0.13881534117E+03 -0.68477116972E+02  0.19367787277E+03  0.91686436058E+02 0.  0.
        -11    1    3    3    0    0  0.23009986105E+02 -0.43545532149E+02  0.10542650400E+03  0.11636331284E+03  0.00000000000E+00 0.  1.
         12    1    3    3    0    0  0.51247798794E+02 -0.96190634096E+02  0.67770028690E+03  0.68640851818E+03  0.00000000000E+00 0. -1.
        -11    1    4    4    0    0 -0.56428896997E+02  0.12298311454E+03 -0.90300068685E+02  0.16267504198E+03  0.00000000000E+00 0.  1.
         11    1    4    4    0    0 -0.15306041143E+02  0.15832226632E+02  0.21822951712E+02  0.31002830791E+02  0.00000000000E+00 0. -1.
         21    1    1    2  503  502  0.25566671488E+02  0.40675076007E+01 -0.17839408559E+03  0.18026272239E+03  0.00000000000E+00 0.  1.
          1    1    1    2  501    0 -0.28089518247E+02 -0.31466825290E+01 -0.12651826311E+02  0.30967585558E+02  0.00000000000E+00 0. -1.
<scales pt_clust_5="13000.00000" pt_clust_6="13000.00000" pt_clust_7="13000.00000" pt_clust_8="13000.00000" pt_clust_9="25.88821" pt_clust_10="13000.00000"></scales>
<clustering>
<clus scale="   25.888">  2  9  1 -1</clus>
<clus scale="   78.196">  5  6 -1 -1</clus>
<clus scale="   91.686">  7  8 -1 -1</clus>
<clus scale="   24.799">  7 10 -1 -1</clus>
<clus scale="  176.969">  1  5  2 -1</clus>
<clus scale="   25.888">  2  5  1 -1</clus>
</clustering>
</event>
<event>
10    4  0.2759992E-005  0.5949451E+03  0.7546771E-02  0.1042141E+00
         21   -1    0    0  501  502  0.00000000000E+00  0.00000000000E+00  0.95245825914E+02  0.95245825914E+02  0.00000000000E+00 0. -1.
          2   -1    0    0  503    0 -0.00000000000E+00 -0.00000000000E+00 -0.19651228212E+04  0.19651228212E+04  0.00000000000E+00 0. -1.
         24    2    1    2    0    0  0.95841644635E+02  0.32199427134E+02 -0.74219485182E+03  0.75325158634E+03  0.79450174987E+02 0.  0.
         23    2    1    2    0    0  0.15012776028E+03  0.14875819419E+03 -0.21755625357E+03  0.31689615900E+03  0.91788383668E+02 0.  0.
        -13    1    3    3    0    0  0.54071531352E+02  0.10600290713E+01 -0.16341831552E+03  0.17213483091E+03  0.00000000000E+00 0.  1.
         14    1    3    3    0    0  0.41770113283E+02  0.31139398063E+02 -0.57877653630E+03  0.58111675543E+03  0.00000000000E+00 0. -1.
        -11    1    4    4    0    0  0.13903703690E+03  0.12600883740E+03 -0.22255145148E+03  0.29109907813E+03  0.00000000000E+00 0. -1.
         11    1    4    4    0    0  0.11090723382E+02  0.22749356787E+02  0.49951979065E+01  0.25797080871E+02  0.00000000000E+00 0.  1.
         21    1    1    2  503  502 -0.29989733161E+02  0.23931774823E+02 -0.66233772866E+01  0.38935627232E+02  0.00000000000E+00 0. -1.
          1    1    1    2  501    0 -0.21597967176E+03 -0.20488939614E+03 -0.90350251260E+03  0.95128527453E+03  0.00000000000E+00 0. -1.
<scales pt_clust_5="13000.00000" pt_clust_6="13000.00000" pt_clust_7="13000.00000" pt_clust_8="13000.00000" pt_clust_9="38.36814" pt_clust_10="13000.00000"></scales>
<clustering>
<clus scale="   38.368">  1  9  2 -1</clus>
<clus scale="   79.450">  5  6 -1 -1</clus>
<clus scale="   91.788">  7  8 -1 -1</clus>
<clus scale="  127.467">  2  5  1 -1</clus>
<clus scale="  229.914">  7 10 -1 -1</clus>
<clus scale="   38.368">  1  5  2 -1</clus>
</clustering>
</event>
<event>
10    4  0.2759992E-005  0.2458369E+03  0.7546771E-02  0.1156870E+00
         21   -1    0    0  503  502  0.00000000000E+00  0.00000000000E+00  0.10522952238E+03  0.10522952238E+03  0.00000000000E+00 0. -1.
         -1   -1    0    0    0  501 -0.00000000000E+00 -0.00000000000E+00 -0.49932437528E+03  0.49932437528E+03  0.00000000000E+00 0.  1.
         24    2    1    2    0    0  0.34942194968E+02 -0.19464805537E+02 -0.39551295820E+02  0.99259370664E+02  0.81781917438E+02 0.  0.
         23    2    1    2    0    0 -0.19889624633E+02  0.12413259288E+02 -0.29051549369E+02  0.99152360651E+02  0.91855930281E+02 0.  0.
        -11    1    3    3    0    0  0.14997672331E+02 -0.36718305327E+02 -0.55668090411E+02  0.68352764476E+02  0.00000000000E+00 0.  1.
         12    1    3    3    0    0  0.19944522637E+02  0.17253499790E+02  0.16116794591E+02  0.30906606188E+02  0.00000000000E+00 0. -1.
        -13    1    4    4    0    0 -0.47143457772E+02 -0.12433390825E+02  0.49297060184E+01  0.49004049012E+02  0.00000000000E+00 0. -1.
         13    1    4    4    0    0  0.27253833139E+02  0.24846650113E+02 -0.33981255387E+02  0.50148311640E+02  0.00000000000E+00 0.  1.
         21    1    1    2  503  501  0.19324056271E+02  0.11082848108E+03 -0.81935114793E+02  0.13917519321E+03  0.00000000000E+00 0. -1.
         -2    1    1    2    0  502 -0.34376626606E+02 -0.10377693483E+03 -0.24355689291E+03  0.26696697313E+03  0.00000000000E+00 0.  1.
<scales pt_clust_5="13000.00000" pt_clust_6="13000.00000" pt_clust_7="13000.00000" pt_clust_8="13000.00000" pt_clust_9="109.54427" pt_clust_10="13000.00000"></scales>
<clustering>
<clus scale="   81.782">  5  6 -1 -1</clus>
<clus scale="   91.039">  2  5  1 -1</clus>
<clus scale="   91.856">  7  8 -1 -1</clus>
<clus scale="  109.544">  1  9  2 -1</clus>
<clus scale="   74.294">  7 10 -1 -1</clus>
<clus scale="  109.544">  1  5  2 -1</clus>
</clustering>
</event>
<event>
10    4  0.2759992E-005  0.2222410E+03  0.7546771E-02  0.1144462E+00
          2   -1    0    0  502    0 -0.00000000000E+00  0.00000000000E+00  0.27536511950E+04  0.27536511950E+04  0.00000000000E+00 0. -1.
         21   -1    0    0  503  502  0.00000000000E+00 -0.00000000000E+00 -0.37381816418E+02  0.37381816418E+02  0.00000000000E+00 0. -1.
         24    2    1    2    0    0  0.66243860254E+02 -0.15031492621E+03  0.20883707461E+04  0.20963137530E+04  0.79095838821E+02 0.  0.
         23    2    1    2    0    0 -0.42436822620E+02 -0.25941731961E+02  0.26304763173E+03  0.28451523964E+03  0.96337986577E+02 0.  0.
        -11    1    3    3    0    0 -0.34430908894E+00 -0.21526708307E+02  0.84312751784E+02  0.87018146571E+02  0.00000000000E+00 0.  1.
         12    1    3    3    0    0  0.66588169343E+02 -0.12878821791E+03  0.20040579943E+04  0.20092956064E+04  0.00000000000E+00 0. -1.
        -11    1    4    4    0    0 -0.64898918949E+02 -0.14865177834E+02  0.24435694244E+03  0.25326499662E+03  0.00000000000E+00 0. -1.
         11    1    4    4    0    0  0.22462096329E+02 -0.11076554127E+02  0.18690689288E+02  0.31250243022E+02  0.00000000000E+00 0.  1.
         21    1    1    2  503  501 -0.13413099796E+02  0.10374962114E+03  0.14741999831E+03  0.18076656504E+03  0.00000000000E+00 0. -1.
          1    1    1    2  501    0 -0.10393937838E+02  0.72507037034E+02  0.21743100243E+03  0.22943745374E+03  0.00000000000E+00 0. -1.
<scales pt_clust_5="13000.00000" pt_clust_6="13000.00000" pt_clust_7="13000.00000" pt_clust_8="13000.00000" pt_clust_9="104.61307" pt_clust_10="13000.00000"></scales>
<clustering>
<clus scale="   79.096">  5  6 -1 -1</clus>
<clus scale="   96.338">  7  8 -1 -1</clus>
<clus scale="   73.248">  7 10 -1 -1</clus>
<clus scale="  104.613">  2  9  1 -1</clus>
<clus scale="  165.285">  1  5  2 -1</clus>
<clus scale="  104.613">  2  5  1 -1</clus>
</clustering>
</event>
<event>
10    4  0.2759992E-005  0.5501304E+03  0.7546771E-02  0.1049227E+00
          2   -1    0    0  503    0 -0.00000000000E+00  0.00000000000E+00  0.13098721007E+04  0.13098721007E+04  0.00000000000E+00 0. -1.
         21   -1    0    0  501  502  0.00000000000E+00 -0.00000000000E+00 -0.28958425422E+03  0.28958425422E+03  0.00000000000E+00 0.  1.
         24    2    1    2    0    0 -0.91706659452E+02 -0.65890367824E+02 -0.10930057497E+03  0.17672715357E+03  0.80834517124E+02 0.  0.
         23    2    1    2    0    0 -0.81920262164E+02  0.11767033177E+03  0.89333551486E+02  0.19144431225E+03  0.90073330914E+02 0.  0.
        -13    1    3    3    0    0 -0.69976343268E+02 -0.82128405197E+02 -0.68747285825E+02  0.12793730052E+03  0.00000000000E+00 0.  1.
         14    1    3    3    0    0 -0.21730316185E+02  0.16238037373E+02 -0.40553289145E+02  0.48789853040E+02  0.00000000000E+00 0. -1.
        -11    1    4    4    0    0 -0.27191936148E+02  0.10916352352E+03  0.47882954610E+02  0.12226550454E+03  0.00000000000E+00 0.  1.
         11    1    4    4    0    0 -0.54728326016E+02  0.85068082474E+01  0.41450596876E+02  0.69178807712E+02  0.00000000000E+00 0. -1.
         21    1    1    2  503  502 -0.19784307923E+01  0.28600265468E+02 -0.84934103291E+02  0.89642017353E+02  0.00000000000E+00 0.  1.
          1    1    1    2  501    0  0.17560535241E+03 -0.80380229410E+02  0.11251889732E+04  0.11416428717E+04  0.00000000000E+00 0. -1.
<scales pt_clust_5="13000.00000" pt_clust_6="13000.00000" pt_clust_7="13000.00000" pt_clust_8="13000.00000" pt_clust_9="28.66861" pt_clust_10="13000.00000"></scales>
<clustering>
<clus scale="   28.669">  2  9  1 -1</clus>
<clus scale="   80.835">  5  6 -1 -1</clus>
<clus scale="   90.073">  7  8 -1 -1</clus>
<clus scale="  131.487">  1  5  2 -1</clus>
<clus scale="  151.665">  7 10 -1 -1</clus>
<clus scale="   28.669">  2  5  1 -1</clus>
</clustering>
</event>
<event>
10    4  0.2759992E-005  0.2852171E+03  0.7546771E-02  0.1138332E+00
          2   -1    0    0  503    0 -0.00000000000E+00  0.00000000000E+00  0.53364345820E+03  0.53364345820E+03  0.00000000000E+00 0. -1.
         21   -1    0    0  501  502  0.00000000000E+00 -0.00000000000E+00 -0.12362504243E+03  0.12362504243E+03  0.00000000000E+00 0. -1.
         24    2    1    2    0    0 -0.12292971071E+02 -0.21949441470E+02  0.66955672005E+02  0.11093248093E+03  0.84794210843E+02 0.  0.
         23    2    1    2    0    0 -0.74730751215E+02  0.16318072563E+02  0.56796185730E+02  0.13070824055E+03  0.89486718376E+02 0.  0.
        -11    1    3    3    0    0  0.18651824635E+02 -0.45593486641E+02  0.41449017807E+02  0.64379171037E+02  0.00000000000E+00 0.  1.
         12    1    3    3    0    0 -0.30944795707E+02  0.23644045170E+02  0.25506654199E+02  0.46553309890E+02  0.00000000000E+00 0. -1.
        -13    1    4    4    0    0 -0.59931805211E+02  0.32198085606E+02  0.75803155138E+02  0.10185605687E+03  0.00000000000E+00 0.  1.
         13    1    4    4    0    0 -0.14798946004E+02 -0.15880013043E+02 -0.19006969409E+02  0.28852183681E+02  0.00000000000E+00 0. -1.
         21    1    1    2  503  502 -0.30819742225E+02 -0.36013319044E+01 -0.50192204850E+02  0.59009181743E+02  0.00000000000E+00 0. -1.
          1    1    1    2  501    0  0.11784346451E+03  0.92327008118E+01  0.33645876288E+03  0.35661859740E+03  0.00000000000E+00 0. -1.
<scales pt_clust_5="13000.00000" pt_clust_6="13000.00000" pt_clust_7="13000.00000" pt_clust_8="13000.00000" pt_clust_9="31.02944" pt_clust_10="13000.00000"></scales>
<clustering>
<clus scale="   31.029">  2  9  1 -1</clus>
<clus scale="   84.794">  5  6 -1 -1</clus>
<clus scale="   89.487">  7  8 -1 -1</clus>
<clus scale="   90.622">  1  5  2 -1</clus>
<clus scale="   97.459">  7 10 -1 -1</clus>
<clus scale="   31.029">  2  5  1 -1</clus>
</clustering>
</event>
<event>
10    4  0.2759992E-005  0.1947653E+03  0.7546771E-02  0.1163081E+00
          2   -1    0    0  502    0 -0.00000000000E+00  0.00000000000E+00  0.33172868454E+03  0.33172868454E+03  0.00000000000E+00 0. -1.
         21   -1    0    0  503  502  0.00000000000E+00 -0.00000000000E+00 -0.54649441999E+03  0.54649441999E+03  0.00000000000E+00 0. -1.
         24    2    1    2    0    0  0.13938282044E+02 -0.13049985914E+03  0.26642141907E+03  0.30889368276E+03  0.84914343695E+02 0.  0.
         23    2    1    2    0    0 -0.43264717359E+02  0.60949555779E+02 -0.15142121258E+03  0.19305111819E+03  0.93561030873E+02 0.  0.
        -13    1    3    3    0    0  0.25506225957E+02 -0.34049221422E+02  0.26674259542E+02  0.50213874219E+02  0.00000000000E+00 0.  1.
         14    1    3    3    0    0 -0.11567943913E+02 -0.96450637723E+02  0.23974715953E+03  0.25867980854E+03  0.00000000000E+00 0. -1.
        -13    1    4    4    0    0  0.10860861754E+02  0.21094633762E+02 -0.11334078245E+03  0.11579755981E+03  0.00000000000E+00 0.  1.
         13    1    4    4    0    0 -0.54125579113E+02  0.39854922017E+02 -0.38080430123E+02  0.77253558376E+02  0.00000000000E+00 0. -1.
         21    1    1    2  503  501  0.44186533231E+02 -0.34832805476E+02 -0.20671001536E+03  0.21423072727E+03  0.00000000000E+00 0. -1.
          1    1    1    2  501    0 -0.14860097917E+02  0.10438310884E+03 -0.12305592658E+03  0.16204757631E+03  0.00000000000E+00 0. -1.
<scales pt_clust_5="13000.00000" pt_clust_6="13000.00000" pt_clust_7="13000.00000" pt_clust_8="13000.00000" pt_clust_9="56.26521" pt_clust_10="13000.00000"></scales>
<clustering>
<clus scale="   56.265">  2  9  1 -1</clus>
<clus scale="   84.914">  5  6 -1 -1</clus>
<clus scale="   93.561">  7  8 -1 -1</clus>
<clus scale="   89.690">  7 10 -1 -1</clus>
<clus scale="  158.430">  1  5  2 -1</clus>
<clus scale="   56.265">  2  5  1 -1</clus>
</clustering>
</event>
<event>
10    4  0.2759992E-005  0.1690797E+03  0.7546771E-02  0.1208437E+00
         -1   -1    0    0    0  501 -0.00000000000E+00  0.00000000000E+00  0.32922769179E+03  0.32922769179E+03  0.00000000000E+00 0.  1.
         21   -1    0    0  501  502  0.00000000000E+00 -0.00000000000E+00 -0.67161377766E+02  0.67161377766E+02  0.00000000000E+00 0. -1.
         24    2    1    2    0    0 -0.36058761903E+02  0.57691073305E+01  0.61208729537E+02  0.10723787641E+03  0.80124507211E+02 0.  0.
         23    2    1    2    0    0  0.50013394187E+02 -0.41188480825E+02  0.44793811981E+02  0.12038816411E+03  0.91043912014E+02 0.  0.
        -13    1    3    3    0    0  0.65168460739E+01  0.29341611933E+02  0.48301501726E+02  0.56889669911E+02  0.00000000000E+00 0.  1.
         14    1    3    3    0    0 -0.42575607977E+02 -0.23572504602E+02  0.12907227810E+02  0.50348206498E+02  0.00000000000E+00 0. -1.
        -11    1    4    4    0    0  0.68644146034E+01 -0.60205392816E+02  0.40830687339E+02  0.73068149974E+02  0.00000000000E+00 0.  1.
         11    1    4    4    0    0  0.43148979583E+02  0.19016911991E+02  0.39631246415E+01  0.47320014135E+02  0.00000000000E+00 0. -1.
         21    1    1    2  503  502  0.99852493007E+01  0.32327796787E+02  0.52763734398E+02  0.62680166849E+02  0.00000000000E+00 0. -1.
         -2    1    1    2    0  503 -0.23939881585E+02  0.30915767076E+01  0.10330003811E+03  0.10608286219E+03  0.00000000000E+00 0.  1.
<scales pt_clust_5="13000.00000" pt_clust_6="13000.00000" pt_clust_7="13000.00000" pt_clust_8="13000.00000" pt_clust_9="33.83479" pt_clust_10="13000.00000"></scales>
<clustering>
<clus scale="   33.835">  2  9  1 -1</clus>
<clus scale="   80.125">  5  6 -1 -1</clus>
<clus scale="   88.214">  1  5  2 -1</clus>
<clus scale="   91.044">  7  8 -1 -1</clus>
<clus scale="   41.484">  7 10 -1 -1</clus>
<clus scale="   33.835">  2  5  1 -1</clus>
</clustering>
</event>
<event>
10    4  0.2759992E-005  0.2349978E+03  0.7546771E-02  0.1140734E+00
         21   -1    0    0  503  502  0.00000000000E+00  0.00000000000E+00  0.10011102905E+03  0.10011102905E+03  0.00000000000E+00 0. -1.
          2   -1    0    0  502    0 -0.00000000000E+00 -0.00000000000E+00 -0.49052100914E+03  0.49052100914E+03  0.00000000000E+00 0. -1.
         24    2    1    2    0    0  0.40542802837E+01  0.11857879949E+03 -0.47540582006E+02  0.15147395831E+03  0.81282742526E+02 0.  0.
         23    2    1    2    0    0 -0.25418672752E+02  0.17216620542E+01 -0.11236281764E+03  0.14713952359E+03  0.91518105154E+02 0.  0.
        -11    1    3    3    0    0  0.22953187270E+02 -0.56408552711E+00 -0.10779172909E+02  0.25364494219E+02  0.00000000000E+00 0.  1.
         12    1    3    3    0    0 -0.18898906987E+02  0.11914288502E+03 -0.36761409096E+02  0.12610946409E+03  0.00000000000E+00 0. -1.
        -11    1    4    4    0    0  0.32893242440E+02 -0.10372009721E+02 -0.51547910792E+02  0.62022021015E+02  0.00000000000E+00 0.  1.
         11    1    4    4    0    0 -0.58311915191E+02  0.12093671776E+02 -0.60814906846E+02  0.85117502577E+02  0.00000000000E+00 0. -1.
         21    1    1    2  503  501 -0.10762068663E+02  0.18821160258E+02 -0.97739166939E+00  0.21702845201E+02  0.00000000000E+00 0. -1.
          1    1    1    2  501    0  0.32126461131E+02 -0.13912162180E+03 -0.22952918877E+03  0.27031571108E+03  0.00000000000E+00 0. -1.
<scales pt_clust_5="13000.00000" pt_clust_6="13000.00000" pt_clust_7="13000.00000" pt_clust_8="13000.00000" pt_clust_9="21.68083" pt_clust_10="13000.00000"></scales>
<clustering>
<clus scale="   21.681">  1  9  2 -1</clus>
<clus scale="   81.283">  5  6 -1 -1</clus>
<clus scale="   91.518">  7  8 -1 -1</clus>
<clus scale="  138.073">  7 10 -1 -1</clus>
<clus scale="  152.892">  2  5  1 -1</clus>
<clus scale="   21.681">  1  5  2 -1</clus>
</clustering>
</event>
<event>
10    4  0.2759992E-005  0.1904588E+03  0.7546771E-02  0.1183963E+00
         -3   -1    0    0    0  501 -0.00000000000E+00  0.00000000000E+00  0.15531027030E+03  0.15531027030E+03  0.00000000000E+00 0.  1.
         21   -1    0    0  503  502  0.00000000000E+00 -0.00000000000E+00 -0.40355009274E+03  0.40355009274E+03  0.00000000000E+00 0.  1.
         24    2    1    2    0    0 -0.59153384525E+02  0.33008571822E+02  0.84609520401E+02  0.13487111194E+03  0.80266787527E+02 0.  0.
         23    2    1    2    0    0 -0.52568391413E+01  0.35042407570E+02 -0.10458353195E+03  0.14123667259E+03  0.88059513082E+02 0.  0.
        -13    1    3    3    0    0 -0.71643864098E+02  0.32092904467E+01  0.66646444091E+02  0.97902458182E+02  0.00000000000E+00 0.  1.
         14    1    3    3    0    0  0.12490479573E+02  0.29799281375E+02  0.17963076310E+02  0.36968653762E+02  0.00000000000E+00 0. -1.
        -13    1    4    4    0    0  0.36946509805E+02  0.65465907391E+01 -0.20031689858E+02  0.42534351243E+02  0.00000000000E+00 0. -1.
         13    1    4    4    0    0 -0.42203348946E+02  0.28495816831E+02 -0.84551842087E+02  0.98702321348E+02  0.00000000000E+00 0.  1.
         21    1    1    2  503  501 -0.31438219876E+02 -0.43247935760E+02 -0.30414970069E+02  0.61512730558E+02  0.00000000000E+00 0.  1.
         -4    1    1    2    0  502  0.95848443543E+02 -0.24803043633E+02 -0.19785084083E+03  0.22123984794E+03  0.00000000000E+00 0.  1.
<scales pt_clust_5="13000.00000" pt_clust_6="13000.00000" pt_clust_7="13000.00000" pt_clust_8="13000.00000" pt_clust_9="53.46724" pt_clust_10="13000.00000"></scales>
<clustering>
<clus scale="   53.467">  2  9  1 -1</clus>
<clus scale="   80.267">  5  6 -1 -1</clus>
<clus scale="   88.060">  7  8 -1 -1</clus>
<clus scale="   92.246">  7 10 -1 -1</clus>
<clus scale="  105.386">  1  5  2 -1</clus>
<clus scale="   53.467">  2  5  1 -1</clus>
</clustering>
</event>
<event>
10    4  0.2759992E-005  0.2541641E+03  0.7546771E-02  0.1129519E+00
          2   -1    0    0  502    0 -0.00000000000E+00  0.00000000000E+00  0.47429415962E+03  0.47429415962E+03  0.00000000000E+00 0. -1.
         21   -1    0    0  503  502  0.00000000000E+00 -0.00000000000E+00 -0.14811059609E+03  0.14811059609E+03  0.00000000000E+00 0. -1.
         24    2    1    2    0    0  0.97081022117E+02  0.10039745575E+03  0.18280005584E+03  0.24487118436E+03  0.83914614586E+02 0.  0.
         23    2    1    2    0    0 -0.16462164656E+02  0.22116313764E+02  0.13953028341E+03  0.16641323329E+03  0.86397511691E+02 0.  0.
        -11    1    3    3    0    0  0.64792685784E+02  0.75081111774E+02  0.17773300501E+03  0.20352957168E+03  0.00000000000E+00 0.  1.
         12    1    3    3    0    0  0.32288336334E+02  0.25316343977E+02  0.50670508259E+01  0.41341612688E+02  0.00000000000E+00 0. -1.
        -13    1    4    4    0    0  0.13424550598E+02 -0.28302026849E+02  0.38733763814E+02  0.49814934927E+02  0.00000000000E+00 0.  1.
         13    1    4    4    0    0 -0.29886715254E+02  0.50418340613E+02  0.10079651960E+03  0.11659829836E+03  0.00000000000E+00 0. -1.
         21    1    1    2  503  501 -0.31421377286E+02  0.87463942510E+01 -0.51045832605E+02  0.60576227922E+02  0.00000000000E+00 0. -1.
          1    1    1    2  501    0 -0.49197480175E+02 -0.13126016377E+03  0.54899056897E+02  0.15054411013E+03  0.00000000000E+00 0. -1.
<scales pt_clust_5="13000.00000" pt_clust_6="13000.00000" pt_clust_7="13000.00000" pt_clust_8="13000.00000" pt_clust_9="32.61598" pt_clust_10="13000.00000"></scales>
<clustering>
<clus scale="   32.616">  2  9  1 -1</clus>
<clus scale="   83.915">  5  6 -1 -1</clus>
<clus scale="   86.398">  7  8 -1 -1</clus>
<clus scale="  142.644">  7 10 -1 -1</clus>
<clus scale="  158.762">  1  5  2 -1</clus>
<clus scale="   32.616">  2  5  1 -1</clus>
</clustering>
</event>
<event>
10    4  0.2759992E-005  0.3420600E+03  0.7546771E-02  0.1117721E+00
          2   -1    0    0  503    0 -0.00000000000E+00  0.00000000000E+00  0.10670187586E+04  0.10670187586E+04  0.00000000000E+00 0. -1.
         21   -1    0    0  501  502  0.00000000000E+00 -0.00000000000E+00 -0.12995029449E+03  0.12995029449E+03  0.00000000000E+00 0.  1.
         24    2    1    2    0    0 -0.21242974427E+02  0.22909638788E+02  0.64719738274E+02  0.10868545826E+03  0.81533850655E+02 0.  0.
         23    2    1    2    0    0 -0.29495602356E+02  0.69540829289E+02  0.59044192185E+03  0.60208673955E+03  0.90448114190E+02 0.  0.
        -13    1    3    3    0    0  0.92111602969E+00  0.30961944886E+02 -0.82040389162E+01  0.32043669272E+02  0.00000000000E+00 0.  1.
         14    1    3    3    0    0 -0.22164090456E+02 -0.80523060985E+01  0.72923777190E+02  0.76641788986E+02  0.00000000000E+00 0. -1.
        -11    1    4    4    0    0 -0.39770104556E+02 -0.69282143197E+01  0.18234822853E+03  0.18676332032E+03  0.00000000000E+00 0. -1.
         11    1    4    4    0    0  0.10274502200E+02  0.76469043609E+02  0.40809369332E+03  0.41532341922E+03  0.00000000000E+00 0.  1.
         21    1    1    2  503  502 -0.12371830209E+03 -0.12166707235E+03  0.26520508329E+02  0.17553470349E+03  0.00000000000E+00 0.  1.
          1    1    1    2  501    0  0.17445687887E+03  0.29216604273E+02  0.25538629561E+03  0.31066215176E+03  0.00000000000E+00 0. -1.
<scales pt_clust_5="13000.00000" pt_clust_6="13000.00000" pt_clust_7="13000.00000" pt_clust_8="13000.00000" pt_clust_9="173.45503" pt_clust_10="13000.00000"></scales>
<clustering>
<clus scale="   81.534">  5  6 -1 -1</clus>
<clus scale="   87.315">  1  5  2 -1</clus>
<clus scale="   90.448">  7  8 -1 -1</clus>
<clus scale="  172.095">  7 10 -1 -1</clus>
<clus scale="  173.455">  2  9  1 -1</clus>
<clus scale="  173.455">  2  5  1 -1</clus>
</clustering>
</event>
<event>
10    4  0.2759992E-005  0.2679189E+03  0.7546771E-02  0.1151139E+00
          2   -1    0    0  502    0 -0.00000000000E+00  0.00000000000E+00  0.39268390931E+03  0.39268390931E+03  0.00000000000E+00 0. -1.
         21   -1    0    0  503  502  0.00000000000E+00 -0.00000000000E+00 -0.16635896781E+03  0.16635896781E+03  0.00000000000E+00 0. -1.
         24    2    1    2    0    0  0.93780235777E+01 -0.60851421306E+01  0.11971404479E+02  0.81857838757E+02  0.80202337621E+02 0.  0.
         23    2    1    2    0    0  0.43656497193E+02 -0.51985542488E+02  0.31814811437E+03  0.33777055121E+03  0.90897393902E+02 0.  0.
        -11    1    3    3    0    0 -0.33930965819E+02 -0.93594415489E+01  0.15126419603E+02  0.38310809930E+02  0.00000000000E+00 0.  1.
         12    1    3    3    0    0  0.43308989397E+02  0.32742994183E+01 -0.31550151235E+01  0.43547028827E+02  0.00000000000E+00 0. -1.
        -11    1    4    4    0    0  0.71038220324E+02 -0.48017381341E+02  0.24418871136E+03  0.25880537942E+03  0.00000000000E+00 0.  1.
         11    1    4    4    0    0 -0.27381723131E+02 -0.39681611468E+01  0.73959403002E+02  0.78965171797E+02  0.00000000000E+00 0. -1.
         21    1    1    2  503  501 -0.12537400373E+02  0.28090253800E+02 -0.75729722969E+02  0.81738850662E+02  0.00000000000E+00 0. -1.
          1    1    1    2  501    0 -0.40497120398E+02  0.29980430819E+02 -0.28064854377E+02  0.57675636484E+02  0.00000000000E+00 0. -1.
<scales pt_clust_5="13000.00000" pt_clust_6="13000.00000" pt_clust_7="13000.00000" pt_clust_8="13000.00000" pt_clust_9="30.76116" pt_clust_10="13000.00000"></scales>
<clustering>
<clus scale="   30.761">  2  9  1 -1</clus>
<clus scale="   80.202">  5  6 -1 -1</clus>
<clus scale="   80.485">  1  5  2 -1</clus>
<clus scale="   90.897">  7  8 -1 -1</clus>
<clus scale="   63.949">  7 10 -1 -1</clus>
<clus scale="   30.761">  2  5  1 -1</clus>
</clustering>
</event>
<event>
10    4  0.2759992E-005  0.2056325E+03  0.7546771E-02  0.1170879E+00
         -1   -1    0    0    0  501 -0.00000000000E+00  0.00000000000E+00  0.15202360005E+03  0.15202360005E+03  0.00000000000E+00 0.  1.
         21   -1    0    0  503  502  0.00000000000E+00 -0.00000000000E+00 -0.38160345032E+03  0.38160345032E+03  0.00000000000E+00 0.  1.
         24    2    1    2    0    0 -0.38768064980E+02  0.66836229620E+02  0.46865899357E+02  0.12074374021E+03  0.80078672728E+02 0.  0.
         23    2    1    2    0    0 -0.26931584010E+02 -0.35075932353E+02  0.22054789801E+02  0.92781194901E+02  0.78525824583E+02 0.  0.
        -11    1    3    3    0    0 -0.52199132555E+02  0.57260052425E+02  0.72374966860E+01  0.77819306097E+02  0.00000000000E+00 0.  1.
         12    1    3    3    0    0  0.13431067575E+02  0.95761771950E+01  0.39628402671E+02  0.42924434115E+02  0.00000000000E+00 0. -1.
        -11    1    4    4    0    0 -0.51921501803E+02 -0.36384873656E+02  0.75288471641E+01  0.63846573284E+02  0.00000000000E+00 0.  1.
         11    1    4    4    0    0  0.24989917793E+02  0.13089413031E+01  0.14525942637E+02  0.28934621617E+02  0.00000000000E+00 0. -1.
         21    1    1    2  503  501  0.17884018188E+02  0.20652100267E+02 -0.17942869012E+03  0.18149656248E+03  0.00000000000E+00 0.  1.
         -2    1    1    2    0  502  0.47815630802E+02 -0.52412397534E+02 -0.11907184930E+03  0.13860555278E+03  0.00000000000E+00 0.  1.
<scales pt_clust_5="13000.00000" pt_clust_6="13000.00000" pt_clust_7="13000.00000" pt_clust_8="13000.00000" pt_clust_9="27.31936" pt_clust_10="13000.00000"></scales>
<clustering>
<clus scale="   27.319">  2  9  1 -1</clus>
<clus scale="   78.526">  7  8 -1 -1</clus>
<clus scale="   71.052">  7 10 -1 -1</clus>
<clus scale="   80.079">  5  6 -1 -1</clus>
<clus scale="  112.517">  1  5  2 -1</clus>
<clus scale="   27.319">  2  5  1 -1</clus>
</clustering>
</event>
<event>
10    4  0.2759992E-005  0.2714740E+03  0.7546771E-02  0.1111593E+00
         21   -1    0    0  501  502  0.00000000000E+00  0.00000000000E+00  0.10878462784E+03  0.10878462784E+03  0.00000000000E+00 0. -1.
          2   -1    0    0  503    0 -0.00000000000E+00 -0.00000000000E+00 -0.88361386231E+03  0.88361386231E+03  0.00000000000E+00 0. -1.
         24    2    1    2    0    0 -0.16711261068E+03 -0.28102632347E+02 -0.46460559427E+02  0.19344087765E+03  0.80897509045E+02 0.  0.
         23    2    1    2    0    0  0.52955267315E+02 -0.34738468002E+02 -0.32982436352E+03  0.34860076402E+03  0.93420342568E+02 0.  0.
        -11    1    3    3    0    0 -0.43190399028E+02  0.17857940952E+02  0.13000121852E+02  0.48511027524E+02  0.00000000000E+00 0.  1.
         12    1    3    3    0    0 -0.12392221165E+03 -0.45960573299E+02 -0.59460681279E+02  0.14492985013E+03  0.00000000000E+00 0. -1.
        -13    1    4    4    0    0  0.50910235077E+01  0.27474030853E+02 -0.43411733814E+02  0.51626732653E+02  0.00000000000E+00 0. -1.
         13    1    4    4    0    0  0.47864243808E+02 -0.62212498855E+02 -0.28641262971E+03  0.29697403136E+03  0.00000000000E+00 0.  1.
         21    1    1    2  503  502 -0.17648118460E+02 -0.30837070137E+02 -0.25382295966E+02  0.43665111111E+02  0.00000000000E+00 0. -1.
          1    1    1    2  501    0  0.13180546183E+03  0.93678170486E+02 -0.37316201555E+03  0.40669173737E+03  0.00000000000E+00 0. -1.
<scales pt_clust_5="13000.00000" pt_clust_6="13000.00000" pt_clust_7="13000.00000" pt_clust_8="13000.00000" pt_clust_9="35.53000" pt_clust_10="13000.00000"></scales>
<clustering>
<clus scale="   35.530">  1  9  2 -1</clus>
<clus scale="   80.898">  5  6 -1 -1</clus>
<clus scale="   93.420">  7  8 -1 -1</clus>
<clus scale="  156.299">  7 10 -1 -1</clus>
<clus scale="  203.902">  2  5  1 -1</clus>
<clus scale="   35.530">  1  5  2 -1</clus>
</clustering>
</event>
<event>
10    4  0.3207448E-005  0.4552764E+03  0.7546771E-02  0.1050485E+00
         21   -1    0    0  501  502  0.00000000000E+00  0.00000000000E+00  0.32308334831E+03  0.32308334831E+03  0.00000000000E+00 0. -1.
          2   -1    0    0  503    0 -0.00000000000E+00 -0.00000000000E+00 -0.76734218247E+03  0.76734218247E+03  0.00000000000E+00 0. -1.
         24    2    1    2    0    0 -0.19692758397E+03 -0.50133597927E+02  0.17769631571E+03  0.28151729489E+03  0.79888395507E+02 0.  0.
         23    2    1    2    0    0 -0.84192743764E+02 -0.64255981481E+02 -0.22919261933E+03  0.26887854539E+03  0.92461701027E+02 0.  0.
        -11    1    3    3    0    0 -0.33771215349E+02  0.20246095245E+02  0.21101449574E+02  0.44672928413E+02  0.00000000000E+00 0.  1.
         12    1    3    3    0    0 -0.16315636862E+03 -0.70379693172E+02  0.15659486614E+03  0.23684436648E+03  0.00000000000E+00 0. -1.
        -13    1    4    4    0    0 -0.59298577458E+02 -0.23891703738E+02 -0.20675769167E+03  0.21641598338E+03  0.00000000000E+00 0.  1.
         13    1    4    4    0    0 -0.24894166306E+02 -0.40364277743E+02 -0.22434927660E+02  0.52462562013E+02  0.00000000000E+00 0. -1.
         21    1    1    2  503  502 -0.13650643227E+01 -0.22529994586E+02  0.13740792310E+02  0.26424863859E+02  0.00000000000E+00 0. -1.
          1    1    1    2  501    0  0.28248539205E+03  0.13691957399E+03 -0.40650332284E+03  0.51360482664E+03  0.00000000000E+00 0. -1.
<scales pt_clust_5="13000.00000" pt_clust_6="13000.00000" pt_clust_7="13000.00000" pt_clust_8="13000.00000" pt_clust_9="22.57131" pt_clust_10="13000.00000"></scales>
<clustering>
<clus scale="   22.571">  1  9  2 -1</clus>
<clus scale="   79.888">  5  6 -1 -1</clus>
<clus scale="   92.462">  7  8 -1 -1</clus>
<clus scale="  223.803">  2  5  1 -1</clus>
<clus scale="  179.063">  7 10 -1 -1</clus>
<clus scale="   22.571">  1  5  2 -1</clus>
</clustering>
</event>
<event>
10    4  0.2759992E-005  0.2113171E+03  0.7546771E-02  0.1160689E+00
         21   -1    0    0  503  502  0.00000000000E+00  0.00000000000E+00  0.26129722577E+03  0.26129722577E+03  0.00000000000E+00 0.  1.
          2   -1    0    0  502    0 -0.00000000000E+00 -0.00000000000E+00 -0.21054932995E+03  0.21054932995E+03  0.00000000000E+00 0. -1.
         24    2    1    2    0    0  0.75084646723E+02  0.73277484925E+02  0.15141666326E+03  0.20130412394E+03  0.81172966146E+02 0.  0.
         23    2    1    2    0    0  0.10027955586E+02 -0.59151467293E+02 -0.49192538437E+01  0.10709020450E+03  0.88570067544E+02 0.  0.
        -13    1    3    3    0    0  0.40678693142E+02  0.63929967497E+02  0.14699700536E+03  0.16537810134E+03  0.00000000000E+00 0.  1.
         14    1    3    3    0    0  0.34405953581E+02  0.93475174284E+01  0.44196579040E+01  0.35926022601E+02  0.00000000000E+00 0. -1.
        -11    1    4    4    0    0  0.40506291036E+02 -0.64225829248E+02 -0.60387626110E+01  0.76172064498E+02  0.00000000000E+00 0. -1.
         11    1    4    4    0    0 -0.30478335450E+02  0.50743619552E+01  0.11195087673E+01  0.30918139998E+02  0.00000000000E+00 0.  1.
         21    1    1    2  503  501 -0.17189562322E+02  0.11709582637E+02  0.18641194530E+02  0.27930082561E+02  0.00000000000E+00 0.  1.
          1    1    1    2  501    0 -0.67923039986E+02 -0.25835600269E+02 -0.11439070813E+03  0.13552214471E+03  0.00000000000E+00 0. -1.
<scales pt_clust_5="13000.00000" pt_clust_6="13000.00000" pt_clust_7="13000.00000" pt_clust_8="13000.00000" pt_clust_9="20.79893" pt_clust_10="13000.00000"></scales>
<clustering>
<clus scale="   20.799">  1  9  2 -1</clus>
<clus scale="   81.173">  5  6 -1 -1</clus>
<clus scale="   88.570">  7  8 -1 -1</clus>
<clus scale="   73.203">  7 10 -1 -1</clus>
<clus scale="  131.121">  2  5  1 -1</clus>
<clus scale="   20.799">  1  5  2 -1</clus>
</clustering>
</event>
<event>
10    4  0.2759992E-005  0.2707842E+03  0.7546771E-02  0.1111862E+00
         21   -1    0    0  501  502  0.00000000000E+00  0.00000000000E+00  0.14368235567E+03  0.14368235567E+03  0.00000000000E+00 0.  1.
          2   -1    0    0  503    0 -0.00000000000E+00 -0.00000000000E+00 -0.54803434961E+03  0.54803434961E+03  0.00000000000E+00 0. -1.
         24    2    1    2    0    0  0.92670867841E+02 -0.15304980367E+03 -0.22556979952E+03  0.29923957460E+03  0.81550330498E+02 0.  0.
         23    2    1    2    0    0  0.94762960126E+01  0.98332644731E+02 -0.15627173881E+03  0.21086021688E+03  0.10140052024E+03 0.  0.
        -11    1    3    3    0    0  0.10346742757E+03 -0.13994544562E+03 -0.22165033424E+03  0.28181395811E+03  0.00000000000E+00 0.  1.
         12    1    3    3    0    0 -0.10796559734E+02 -0.13104358047E+02 -0.39194652759E+01  0.17425616487E+02  0.00000000000E+00 0. -1.
        -11    1    4    4    0    0  0.24576122565E+02  0.17870609023E+02  0.42356792642E+01  0.30680375584E+02  0.00000000000E+00 0.  1.
         11    1    4    4    0    0 -0.15099826552E+02  0.80462035708E+02 -0.16050741807E+03  0.18017984129E+03  0.00000000000E+00 0. -1.
         21    1    1    2  503  502 -0.34626391866E+01 -0.29697662460E+02  0.29241836700E+02  0.41821358650E+02  0.00000000000E+00 0.  1.
          1    1    1    2  501    0 -0.98684524667E+02  0.84414821395E+02 -0.51752292314E+02  0.13979555515E+03  0.00000000000E+00 0. -1.
<scales pt_clust_5="13000.00000" pt_clust_6="13000.00000" pt_clust_7="13000.00000" pt_clust_8="13000.00000" pt_clust_9="29.89885" pt_clust_10="13000.00000"></scales>
<clustering>
<clus scale="   29.899">  1  9  2 -1</clus>
<clus scale="   81.550">  5  6 -1 -1</clus>
<clus scale="  101.401">  7  8 -1 -1</clus>
<clus scale="  123.491">  7 10 -1 -1</clus>
<clus scale="  204.068">  2  5  1 -1</clus>
<clus scale="   29.899">  1  5  2 -1</clus>
</clustering>
</event>
<event>
10    4  0.2759992E-005  0.1929460E+03  0.7546771E-02  0.1164245E+00
         -1   -1    0    0    0  501 -0.00000000000E+00  0.00000000000E+00  0.18889894629E+03  0.18889894629E+03  0.00000000000E+00 0.  1.
         21   -1    0    0  503  502  0.00000000000E+00 -0.00000000000E+00 -0.18628339143E+03  0.18628339143E+03  0.00000000000E+00 0.  1.
         24    2    1    2    0    0 -0.53668999456E+02  0.13151570461E+03  0.13534758690E+02  0.16690664366E+03  0.86590391751E+02 0.  0.
         23    2    1    2    0    0 -0.88950141240E+01 -0.59613480856E+02 -0.24338791188E+02  0.10415702041E+03  0.81384395111E+02 0.  0.
        -13    1    3    3    0    0 -0.39382046146E+02  0.13272288875E+03  0.33393482646E+02  0.14241290475E+03  0.00000000000E+00 0.  1.
         14    1    3    3    0    0 -0.14286953310E+02 -0.12071841423E+01 -0.19858723956E+02  0.24493738906E+02  0.00000000000E+00 0. -1.
        -13    1    4    4    0    0 -0.28131762430E+01 -0.35425400807E+02 -0.54473249134E+02  0.65040048079E+02  0.00000000000E+00 0.  1.
         13    1    4    4    0    0 -0.60818378810E+01 -0.24188080049E+02  0.30134457945E+02  0.39116972328E+02  0.00000000000E+00 0. -1.
         21    1    1    2  503  501  0.41946412780E+01 -0.20198232872E+02 -0.96877806359E+01  0.22790715659E+02  0.00000000000E+00 0. -1.
         -2    1    1    2    0  502  0.58369372302E+02 -0.51703990879E+02  0.23107368001E+02  0.81327957995E+02  0.00000000000E+00 0.  1.
<scales pt_clust_5="13000.00000" pt_clust_6="13000.00000" pt_clust_7="13000.00000" pt_clust_8="13000.00000" pt_clust_9="20.62919" pt_clust_10="13000.00000"></scales>
<clustering>
<clus scale="   20.629">  2  9  1 -1</clus>
<clus scale="   81.384">  7  8 -1 -1</clus>
<clus scale="   80.834">  7 10 -1 -1</clus>
<clus scale="   86.590">  5  6 -1 -1</clus>
<clus scale="  158.626">  1  5  2 -1</clus>
<clus scale="   20.629">  2  5  1 -1</clus>
</clustering>
</event>
<event>
10    4  0.2759992E-005  0.4020949E+03  0.7546771E-02  0.1065893E+00
         -1   -1    0    0    0  501 -0.00000000000E+00  0.00000000000E+00  0.20899367516E+03  0.20899367516E+03  0.00000000000E+00 0.  1.
         21   -1    0    0  501  502  0.00000000000E+00 -0.00000000000E+00 -0.54487608141E+03  0.54487608141E+03  0.00000000000E+00 0.  1.
         24    2    1    2    0    0 -0.20432744488E+03 -0.38688035250E+02 -0.16199243975E+03  0.27540698780E+03  0.79755812271E+02 0.  0.
         23    2    1    2    0    0 -0.84969725611E+02 -0.18232852824E+02 -0.13961560692E+02  0.12641333553E+03  0.90736514321E+02 0.  0.
        -13    1    3    3    0    0 -0.15080912999E+03 -0.62561618879E+02 -0.12955295907E+03  0.20842581185E+03  0.00000000000E+00 0.  1.
         14    1    3    3    0    0 -0.53518314891E+02  0.23873583629E+02 -0.32439480680E+02  0.66981175944E+02  0.00000000000E+00 0. -1.
        -11    1    4    4    0    0 -0.77788720266E+02 -0.49583972112E+02 -0.25407177814E+01  0.92282774871E+02  0.00000000000E+00 0.  1.
         11    1    4    4    0    0 -0.71810053453E+01  0.31351119288E+02 -0.11420842910E+02  0.34130560663E+02  0.00000000000E+00 0. -1.
         21    1    1    2  503  502  0.27205283432E+02  0.83117624702E+01 -0.61741496247E+02  0.67979594003E+02  0.00000000000E+00 0.  1.
         -2    1    1    2    0  503  0.26209188706E+03  0.48609125603E+02 -0.98186909570E+02  0.28406983924E+03  0.00000000000E+00 0.  1.
<scales pt_clust_5="13000.00000" pt_clust_6="13000.00000" pt_clust_7="13000.00000" pt_clust_8="13000.00000" pt_clust_9="28.44667" pt_clust_10="13000.00000"></scales>
<clustering>
<clus scale="   28.447">  2  9  1 -1</clus>
<clus scale="   79.756">  5  6 -1 -1</clus>
<clus scale="   90.737">  7  8 -1 -1</clus>
<clus scale="  210.754">  1  5  2 -1</clus>
<clus scale="  151.178">  7 10 -1 -1</clus>
<clus scale="   28.447">  2  5  1 -1</clus>
</clustering>
</event>
<event>
10    4  0.2759992E-005  0.3202769E+03  0.7546771E-02  0.1123163E+00
         21   -1    0    0  503  502  0.00000000000E+00  0.00000000000E+00  0.55561336178E+03  0.55561336178E+03  0.00000000000E+00 0. -1.
          2   -1    0    0  502    0 -0.00000000000E+00 -0.00000000000E+00 -0.40375761488E+03  0.40375761488E+03  0.00000000000E+00 0. -1.
         24    2    1    2    0    0 -0.16414746076E+01  0.46758498288E+02 -0.12670606486E+03  0.15708253315E+03  0.80196282634E+02 0.  0.
         23    2    1    2    0    0  0.13462263345E+03  0.65067402867E+02 -0.23077138616E+01  0.17787627637E+03  0.96320422537E+02 0.  0.
        -13    1    3    3    0    0  0.21038990143E+02 -0.14925587592E+02 -0.24543506403E+02  0.35606122757E+02  0.00000000000E+00 0.  1.
         14    1    3    3    0    0 -0.22680464751E+02  0.61684085880E+02 -0.10216255845E+03  0.12147641039E+03  0.00000000000E+00 0. -1.
        -11    1    4    4    0    0  0.85448976608E+02 -0.11811882207E+02 -0.66104871552E+01  0.86514430617E+02  0.00000000000E+00 0.  1.
         11    1    4    4    0    0  0.49173656845E+02  0.76879285074E+02  0.43027732935E+01  0.91361845751E+02  0.00000000000E+00 0. -1.
         21    1    1    2  503  501 -0.67790012811E+02 -0.10233436834E+03  0.43755157221E+03  0.45444382174E+03  0.00000000000E+00 0. -1.
          1    1    1    2  501    0 -0.65191146034E+02 -0.94915328180E+01 -0.15668204658E+03  0.16996834540E+03  0.00000000000E+00 0. -1.
<scales pt_clust_5="13000.00000" pt_clust_6="13000.00000" pt_clust_7="13000.00000" pt_clust_8="13000.00000" pt_clust_9="121.52610" pt_clust_10="13000.00000"></scales>
<clustering>
<clus scale="   80.196">  5  6 -1 -1</clus>
<clus scale="   92.847">  2  5  1 -1</clus>
<clus scale="   96.320">  7  8 -1 -1</clus>
<clus scale="   69.075">  7 10 -1 -1</clus>
<clus scale="  121.526">  1  9  2 -1</clus>
<clus scale="  121.526">  1  5  2 -1</clus>
</clustering>
</event>
<event>
10    4  0.2759992E-005  0.1133204E+04  0.7546771E-02  0.9458148E-01
          2   -1    0    0  502    0 -0.00000000000E+00  0.00000000000E+00  0.18667159133E+04  0.18667159133E+04  0.00000000000E+00 0. -1.
         21   -1    0    0  503  502  0.00000000000E+00 -0.00000000000E+00 -0.37008877619E+03  0.37008877619E+03  0.00000000000E+00 0. -1.
         24    2    1    2    0    0  0.36997594183E+03  0.15109668875E+03  0.71374526187E+03  0.82169886446E+03  0.77745212839E+02 0.  0.
         23    2    1    2    0    0  0.13242355284E+03  0.24869098013E+03  0.70490260349E+03  0.76468144237E+03  0.92015362548E+02 0.  0.
        -11    1    3    3    0    0  0.16450479945E+03  0.58868385718E+02  0.23710608220E+03  0.29452777474E+03  0.00000000000E+00 0.  1.
         12    1    3    3    0    0  0.20547114239E+03  0.92228303034E+02  0.47663917967E+03  0.52717108972E+03  0.00000000000E+00 0. -1.
        -13    1    4    4    0    0  0.43386756868E+02  0.55214084417E+02  0.91393139751E+02  0.11525498594E+03  0.00000000000E+00 0.  1.
         13    1    4    4    0    0  0.89036795971E+02  0.19347689571E+03  0.61350946374E+03  0.64942645643E+03  0.00000000000E+00 0. -1.
         21    1    1    2  503  501 -0.27426496764E+02 -0.25909684998E+02 -0.11325832916E+02  0.39392879974E+02  0.00000000000E+00 0. -1.
          1    1    1    2  501    0 -0.47497299791E+03 -0.37387798388E+03  0.89305104666E+02  0.61103150270E+03  0.00000000000E+00 0. -1.
<scales pt_clust_5="13000.00000" pt_clust_6="13000.00000" pt_clust_7="13000.00000" pt_clust_8="13000.00000" pt_clust_9="37.72962" pt_clust_10="13000.00000"></scales>
<clustering>
<clus scale="   37.730">  2  9  1 -1</clus>
<clus scale="   77.745">  5  6 -1 -1</clus>
<clus scale="   92.015">  7  8 -1 -1</clus>
<clus scale="  401.731">  1  5  2 -1</clus>
<clus scale="  501.950">  7 10 -1 -1</clus>
<clus scale="   37.730">  2  5  1 -1</clus>
</clustering>
</event>
<event>
10    4  0.2759992E-005  0.5639124E+03  0.7546771E-02  0.1038330E+00
         -1   -1    0    0    0  501 -0.00000000000E+00  0.00000000000E+00  0.10171016539E+04  0.10171016539E+04  0.00000000000E+00 0.  1.
         21   -1    0    0  501  502  0.00000000000E+00 -0.00000000000E+00 -0.16657020780E+03  0.16657020780E+03  0.00000000000E+00 0.  1.
         24    2    1    2    0    0 -0.14336112471E+03  0.20091218226E+02  0.42344028608E+03  0.45490050698E+03  0.81711236999E+02 0.  0.
         23    2    1    2    0    0  0.27639782652E+03  0.89789002028E+02  0.71235345236E+02  0.31268210623E+03  0.90762336655E+02 0.  0.
        -11    1    3    3    0    0 -0.81946332476E+02  0.12246589466E+02  0.34584346926E+03  0.35563026529E+03  0.00000000000E+00 0.  1.
         12    1    3    3    0    0 -0.61414792236E+02  0.78446287596E+01  0.77596816816E+02  0.99270241693E+02  0.00000000000E+00 0. -1.
        -11    1    4    4    0    0  0.10419145549E+03  0.80016358422E+02  0.21060066304E+02  0.13304887600E+03  0.00000000000E+00 0. -1.
         11    1    4    4    0    0  0.17220637103E+03  0.97726436054E+01  0.50175278932E+02  0.17963323023E+03  0.00000000000E+00 0.  1.
         21    1    1    2  503  502 -0.88995860736E+01  0.19058497833E+02  0.41205359365E+01  0.21433800138E+02  0.00000000000E+00 0. -1.
         -2    1    1    2    0  503 -0.12413711573E+03 -0.12893871809E+03  0.35173527884E+03  0.39465544834E+03  0.00000000000E+00 0.  1.
<scales pt_clust_5="13000.00000" pt_clust_6="13000.00000" pt_clust_7="13000.00000" pt_clust_8="13000.00000" pt_clust_9="21.03400" pt_clust_10="13000.00000"></scales>
<clustering>
<clus scale="   21.034">  2  9  1 -1</clus>
<clus scale="   81.711">  5  6 -1 -1</clus>
<clus scale="   90.762">  7  8 -1 -1</clus>
<clus scale="  167.235">  1  5  2 -1</clus>
<clus scale="  246.451">  7 10 -1 -1</clus>
<clus scale="   21.034">  2  5  1 -1</clus>
</clustering>
</event>
<event>
10    4  0.2759992E-005  0.3734984E+03  0.7546771E-02  0.1062634E+00
          2   -1    0    0  503    0 -0.00000000000E+00  0.00000000000E+00  0.19205617356E+04  0.19205617356E+04  0.00000000000E+00 0. -1.
         21   -1    0    0  501  502  0.00000000000E+00 -0.00000000000E+00 -0.14571234210E+03  0.14571234210E+03  0.00000000000E+00 0. -1.
         24    2    1    2    0    0  0.21837658471E+03 -0.18242771478E+03  0.13260718642E+04  0.13587529776E+04  0.82309546215E+02 0.  0.
         23    2    1    2    0    0  0.69153181886E+01  0.63545257036E+02  0.18993607985E+03  0.21996303787E+03  0.90676360113E+02 0.  0.
        -13    1    3    3    0    0  0.13903455045E+03 -0.11520103400E+03  0.64533988244E+03  0.67012345752E+03  0.00000000000E+00 0.  1.
         14    1    3    3    0    0  0.79342034251E+02 -0.67226680773E+02  0.68073198171E+03  0.68862952009E+03  0.00000000000E+00 0. -1.
        -11    1    4    4    0    0 -0.25482484290E+02  0.11003527393E+02  0.13340209322E+03  0.13625913949E+03  0.00000000000E+00 0.  1.
         11    1    4    4    0    0  0.32397802478E+02  0.52541729643E+02  0.56533986637E+02  0.83703898382E+02  0.00000000000E+00 0. -1.
         21    1    1    2  503  502  0.16678949509E+02  0.85447664888E+02 -0.44757513569E+02  0.97891398051E+02  0.00000000000E+00 0.  1.
          1    1    1    2  501    0 -0.24197085240E+03  0.33434792853E+02  0.30359896306E+03  0.38966666416E+03  0.00000000000E+00 0. -1.
<scales pt_clust_5="13000.00000" pt_clust_6="13000.00000" pt_clust_7="13000.00000" pt_clust_8="13000.00000" pt_clust_9="87.06027" pt_clust_10="13000.00000"></scales>
<clustering>
<clus scale="   82.310">  5  6 -1 -1</clus>
<clus scale="   87.060">  2  9  1 -1</clus>
<clus scale="   90.676">  7  8 -1 -1</clus>
<clus scale="  246.659">  7 10 -1 -1</clus>
<clus scale="  287.855">  1  5  2 -1</clus>
<clus scale="   87.060">  2  5  1 -1</clus>
</clustering>
</event>
<event>
10    4  0.2759992E-005  0.3719723E+03  0.7546771E-02  0.1103473E+00
         21   -1    0    0  503  502  0.00000000000E+00  0.00000000000E+00  0.23240531598E+03  0.23240531598E+03  0.00000000000E+00 0. -1.
          2   -1    0    0  502    0 -0.00000000000E+00 -0.00000000000E+00 -0.99292360083E+03  0.99292360083E+03  0.00000000000E+00 0. -1.
         24    2    1    2    0    0  0.86095024895E+02  0.90855441481E+00 -0.13075106353E+03  0.17605954708E+03  0.80547779112E+02 0.  0.
         23    2    1    2    0    0 -0.30798779231E+02 -0.19013691680E+03 -0.47079592293E+03  0.51732356831E+03  0.94203297965E+02 0.  0.
        -13    1    3    3    0    0  0.28773874012E+02 -0.37787787281E+02 -0.66042324234E+02  0.81347656902E+02  0.00000000000E+00 0.  1.
         14    1    3    3    0    0  0.57321150883E+02  0.38696341696E+02 -0.64708739293E+02  0.94711890173E+02  0.00000000000E+00 0. -1.
        -11    1    4    4    0    0 -0.56462996982E+02 -0.64577550997E+02 -0.20596309756E+03  0.22311236559E+03  0.00000000000E+00 0.  1.
         11    1    4    4    0    0  0.25664217751E+02 -0.12555936580E+03 -0.26483282536E+03  0.29421120272E+03  0.00000000000E+00 0. -1.
         21    1    1    2  503  501 -0.93465595907E+02  0.38633622946E+02  0.15301572956E+03  0.18341806872E+03  0.00000000000E+00 0. -1.
          1    1    1    2  501    0  0.38169350242E+02  0.15059473944E+03 -0.31198702796E+03  0.34852773270E+03  0.00000000000E+00 0. -1.
<scales pt_clust_5="13000.00000" pt_clust_6="13000.00000" pt_clust_7="13000.00000" pt_clust_8="13000.00000" pt_clust_9="101.13543" pt_clust_10="13000.00000"></scales>
<clustering>
<clus scale="   80.548">  5  6 -1 -1</clus>
<clus scale="   94.203">  7  8 -1 -1</clus>
<clus scale="  101.135">  1  9  2 -1</clus>
<clus scale="   97.570">  2  5  1 -1</clus>
<clus scale="  171.434">  7 10 -1 -1</clus>
<clus scale="  101.135">  1  5  2 -1</clus>
</clustering>
</event>
<event>
10    4  0.2759992E-005  0.2674568E+03  0.7546771E-02  0.1147684E+00
         21   -1    0    0  503  502  0.00000000000E+00  0.00000000000E+00  0.69761139676E+02  0.69761139676E+02  0.00000000000E+00 0.  1.
          4   -1    0    0  502    0 -0.00000000000E+00 -0.00000000000E+00 -0.57696687686E+03  0.57696687686E+03  0.00000000000E+00 0. -1.
         24    2    1    2    0    0 -0.24498368547E+01  0.36078128206E+02 -0.15757014099E+03  0.18074545455E+03  0.80826585811E+02 0.  0.
         23    2    1    2    0    0  0.38019218528E+02  0.49573228079E+02 -0.35467295921E+02  0.12174505088E+03  0.98290194904E+02 0.  0.
        -13    1    3    3    0    0  0.15096019988E+02 -0.21160157961E+02 -0.29147483092E+02  0.39054037884E+02  0.00000000000E+00 0.  1.
         14    1    3    3    0    0 -0.17545856843E+02  0.57238286167E+02 -0.12842265790E+03  0.14169141667E+03  0.00000000000E+00 0. -1.
        -13    1    4    4    0    0  0.57027320569E+02  0.63478120058E+02 -0.44841572785E+02  0.96396855069E+02  0.00000000000E+00 0.  1.
         13    1    4    4    0    0 -0.19008102041E+02 -0.13904891979E+02  0.93742768643E+01  0.25348195811E+02  0.00000000000E+00 0. -1.
         21    1    1    2  503  501  0.35138984525E+02 -0.11034752047E+02 -0.65234566401E+02  0.74913701281E+02  0.00000000000E+00 0. -1.
          3    1    1    2  501    0 -0.70708366198E+02 -0.74616604238E+02 -0.24893373387E+03  0.26932380982E+03  0.00000000000E+00 0. -1.
<scales pt_clust_5="13000.00000" pt_clust_6="13000.00000" pt_clust_7="13000.00000" pt_clust_8="13000.00000" pt_clust_9="36.83090" pt_clust_10="13000.00000"></scales>
<clustering>
<clus scale="   36.831">  1  9  2 -1</clus>
<clus scale="   80.827">  5  6 -1 -1</clus>
<clus scale="   87.812">  2  5  1 -1</clus>
<clus scale="   98.290">  7  8 -1 -1</clus>
<clus scale="   83.012">  7 10 -1 -1</clus>
<clus scale="   36.831">  1  5  2 -1</clus>
</clustering>
</event>
<event>
10    4  0.2759992E-005  0.1615699E+03  0.7546771E-02  0.1207322E+00
         21   -1    0    0  501  502  0.00000000000E+00  0.00000000000E+00  0.66039120149E+03  0.66039120149E+03  0.00000000000E+00 0. -1.
          2   -1    0    0  503    0 -0.00000000000E+00 -0.00000000000E+00 -0.14690435610E+03  0.14690435610E+03  0.00000000000E+00 0. -1.
         24    2    1    2    0    0 -0.31441231893E+02 -0.70188020989E+02 -0.54311630521E+02  0.12293099205E+03  0.79040282413E+02 0.  0.
         23    2    1    2    0    0 -0.73281229720E+02  0.42597634576E+02  0.72684595422E+02  0.14359725579E+03  0.90290776709E+02 0.  0.
        -13    1    3    3    0    0 -0.41432601550E+02 -0.27139661770E+01 -0.26573963675E+02  0.49297075258E+02  0.00000000000E+00 0.  1.
         14    1    3    3    0    0  0.99913696573E+01 -0.67474054812E+02 -0.27737666846E+02  0.73633916795E+02  0.00000000000E+00 0. -1.
        -13    1    4    4    0    0 -0.27727256859E+02 -0.12447988869E+02  0.64974721005E+02  0.71731914581E+02  0.00000000000E+00 0. -1.
         13    1    4    4    0    0 -0.45553972861E+02  0.55045623445E+02  0.77098744171E+01  0.71865341211E+02  0.00000000000E+00 0.  1.
         21    1    1    2  503  502  0.77088561149E+02  0.21410945002E+02  0.50460066151E+03  0.51090400509E+03  0.00000000000E+00 0. -1.
          1    1    1    2  501    0  0.27633900465E+02  0.61794414112E+01 -0.94867810197E+01  0.29863304659E+02  0.00000000000E+00 0. -1.
<scales pt_clust_5="13000.00000" pt_clust_6="13000.00000" pt_clust_7="13000.00000" pt_clust_8="13000.00000" pt_clust_9="80.00672" pt_clust_10="13000.00000"></scales>
<clustering>
<clus scale="   79.040">  5  6 -1 -1</clus>
<clus scale="   80.007">  1  9  2 -1</clus>
<clus scale="   90.291">  7  8 -1 -1</clus>
<clus scale="   33.651">  7 10 -1 -1</clus>
<clus scale="  103.540">  2  5  1 -1</clus>
<clus scale="   80.007">  1  5  2 -1</clus>
</clustering>
</event>
<event>
10    4  0.2759992E-005  0.6113859E+03  0.7546771E-02  0.1014549E+00
         21   -1    0    0  501  502  0.00000000000E+00  0.00000000000E+00  0.79116485732E+03  0.79116485732E+03  0.00000000000E+00 0. -1.
          2   -1    0    0  503    0 -0.00000000000E+00 -0.00000000000E+00 -0.48325788756E+03  0.48325788756E+03  0.00000000000E+00 0. -1.
         24    2    1    2    0    0  0.26155655229E+03 -0.87494909862E+02  0.43280832419E+03  0.51952531979E+03  0.80723745689E+02 0.  0.
         23    2    1    2    0    0 -0.15664498764E+03 -0.20979901692E+03 -0.18477310130E+03  0.33318945398E+03  0.91218603520E+02 0.  0.
        -13    1    3    3    0    0  0.28602904967E+02 -0.28128091626E+02  0.10963515130E+03  0.11674408812E+03  0.00000000000E+00 0.  1.
         14    1    3    3    0    0  0.23295364732E+03 -0.59366818236E+02  0.32317317289E+03  0.40278123167E+03  0.00000000000E+00 0. -1.
        -11    1    4    4    0    0 -0.47041515508E+02 -0.10046696980E+03 -0.12528978696E+03  0.16734409735E+03  0.00000000000E+00 0. -1.
         11    1    4    4    0    0 -0.10960347213E+03 -0.10933204712E+03 -0.59483314336E+02  0.16584535663E+03  0.00000000000E+00 0.  1.
         21    1    1    2  503  502 -0.35074972385E+02 -0.70777912944E+01  0.10060779225E+03  0.10678144352E+03  0.00000000000E+00 0.  1.
          1    1    1    2  501    0 -0.69836592269E+02  0.30437171807E+03 -0.40736045386E+02  0.31492652759E+03  0.00000000000E+00 0. -1.
<scales pt_clust_5="13000.00000" pt_clust_6="13000.00000" pt_clust_7="13000.00000" pt_clust_8="13000.00000" pt_clust_9="35.78196" pt_clust_10="13000.00000"></scales>
<clustering>
<clus scale="   35.782">  1  9  2 -1</clus>
<clus scale="   80.724">  5  6 -1 -1</clus>
<clus scale="   91.219">  7  8 -1 -1</clus>
<clus scale="  267.109">  2  5  1 -1</clus>
<clus scale="  266.376">  7 10 -1 -1</clus>
<clus scale="   35.782">  1  5  2 -1</clus>
</clustering>
</event>
<event>
10    4  0.2759992E-005  0.3509130E+03  0.7546771E-02  0.1111355E+00
         21   -1    0    0  503  502  0.00000000000E+00  0.00000000000E+00  0.16265406130E+03  0.16265406130E+03  0.00000000000E+00 0.  1.
          2   -1    0    0  502    0 -0.00000000000E+00 -0.00000000000E+00 -0.10411179848E+04  0.10411179848E+04  0.00000000000E+00 0. -1.
         24    2    1    2    0    0 -0.85500963186E+01  0.50130940842E+02 -0.15017983192E+03  0.17959581569E+03  0.84347256747E+02 0.  0.
         23    2    1    2    0    0  0.14311928964E+03 -0.18354437929E+02 -0.23026743536E+03  0.28585980354E+03  0.88728344008E+02 0.  0.
        -11    1    3    3    0    0 -0.44901966440E+02  0.24122413647E+02 -0.58434616808E+02  0.77541484844E+02  0.00000000000E+00 0.  1.
         12    1    3    3    0    0  0.36351870122E+02  0.26008527195E+02 -0.91745215115E+02  0.10205433085E+03  0.00000000000E+00 0. -1.
        -11    1    4    4    0    0  0.67126596124E+02  0.77316476078E+01 -0.17700405938E+03  0.18946291278E+03  0.00000000000E+00 0.  1.
         11    1    4    4    0    0  0.75992693516E+02 -0.26086085537E+02 -0.53263375984E+02  0.96396890757E+02  0.00000000000E+00 0. -1.
         21    1    1    2  503  501 -0.27288923784E+01 -0.25192656744E+02  0.11166700514E+03  0.11450605593E+03  0.00000000000E+00 0.  1.
          1    1    1    2  501    0 -0.13184030094E+03 -0.65838461690E+01 -0.60968366139E+03  0.62381037098E+03  0.00000000000E+00 0. -1.
<scales pt_clust_5="13000.00000" pt_clust_6="13000.00000" pt_clust_7="13000.00000" pt_clust_8="13000.00000" pt_clust_9="25.34002" pt_clust_10="13000.00000"></scales>
<clustering>
<clus scale="   25.340">  1  9  2 -1</clus>
<clus scale="   84.347">  5  6 -1 -1</clus>
<clus scale="   88.728">  7  8 -1 -1</clus>
<clus scale="   94.982">  2  5  1 -1</clus>
<clus scale="  140.219">  7 10 -1 -1</clus>
<clus scale="   25.340">  1  5  2 -1</clus>
</clustering>
</event>
<event>
10    4  0.2759992E-005  0.5486241E+03  0.7546771E-02  0.1028561E+00
          2   -1    0    0  502    0 -0.00000000000E+00  0.00000000000E+00  0.21058707888E+04  0.21058707888E+04  0.00000000000E+00 0. -1.
         21   -1    0    0  503  502  0.00000000000E+00 -0.00000000000E+00 -0.83371540064E+02  0.83371540064E+02  0.00000000000E+00 0. -1.
         24    2    1    2    0    0  0.20092793950E+03  0.11928611655E+03  0.75480979248E+03  0.79439446523E+03  0.81997128615E+02 0.  0.
         23    2    1    2    0    0 -0.16303027790E+03  0.16895994995E+03  0.83966561599E+03  0.87661733697E+03  0.91067406995E+02 0.  0.
        -11    1    3    3    0    0  0.12385125736E+02  0.27577360373E+02  0.44575698258E+02  0.53859957480E+02  0.00000000000E+00 0.  1.
         12    1    3    3    0    0  0.18854281376E+03  0.91708756175E+02  0.71023409422E+03  0.74053450775E+03  0.00000000000E+00 0. -1.
        -11    1    4    4    0    0 -0.36796513300E+02  0.73031471445E+02  0.42244545674E+03  0.43028797698E+03  0.00000000000E+00 0.  1.
         11    1    4    4    0    0 -0.12623376460E+03  0.95928478503E+02  0.41722015925E+03  0.44632936000E+03  0.00000000000E+00 0. -1.
         21    1    1    2  503  501 -0.73750299737E+01 -0.32055740197E+02  0.34469566515E+02  0.47645698257E+02  0.00000000000E+00 0.  1.
          1    1    1    2  501    0 -0.30522631629E+02 -0.25619032630E+03  0.39355427378E+03  0.47058482842E+03  0.00000000000E+00 0. -1.
<scales pt_clust_5="13000.00000" pt_clust_6="13000.00000" pt_clust_7="13000.00000" pt_clust_8="13000.00000" pt_clust_9="32.89318" pt_clust_10="13000.00000"></scales>
<clustering>
<clus scale="   32.893">  2  9  1 -1</clus>
<clus scale="   81.997">  5  6 -1 -1</clus>
<clus scale="   91.067">  7  8 -1 -1</clus>
<clus scale="  242.201">  1  5  2 -1</clus>
<clus scale="  234.160">  7 10 -1 -1</clus>
<clus scale="   32.893">  2  5  1 -1</clus>
</clustering>
</event>
<event>
10    4  0.2759992E-005  0.7461721E+03  0.7546771E-02  0.1023045E+00
         21   -1    0    0  501  502  0.00000000000E+00  0.00000000000E+00  0.31336870574E+03  0.31336870574E+03  0.00000000000E+00 0. -1.
          2   -1    0    0  503    0 -0.00000000000E+00 -0.00000000000E+00 -0.85346893497E+03  0.85346893497E+03  0.00000000000E+00 0. -1.
         24    2    1    2    0    0  0.13985999047E+02 -0.79102829840E+02 -0.33374299943E+03  0.35254343742E+03  0.80309524590E+02 0.  0.
         23    2    1    2    0    0  0.11552938848E+02 -0.14690038266E+03 -0.42955556696E+03  0.46304356111E+03  0.90433188318E+02 0.  0.
        -11    1    3    3    0    0 -0.21847144674E+02  0.44195745488E+01 -0.78465064911E+02  0.81569582450E+02  0.00000000000E+00 0.  1.
         12    1    3    3    0    0  0.35833143721E+02 -0.83522404388E+02 -0.25527793452E+03  0.27097385497E+03  0.00000000000E+00 0. -1.
        -13    1    4    4    0    0 -0.28890259184E+02 -0.42856823896E+02 -0.73159961890E+02  0.89575300468E+02  0.00000000000E+00 0.  1.
         13    1    4    4    0    0  0.40443198032E+02 -0.10404355877E+03 -0.35639560507E+03  0.37346826064E+03  0.00000000000E+00 0. -1.
         21    1    1    2  503  502 -0.35575426225E+02 -0.40072811061E+01  0.92905462228E+01  0.36986260990E+02  0.00000000000E+00 0. -1.
          1    1    1    2  501    0  0.10036488330E+02  0.23001049361E+03  0.21390779093E+03  0.31426438120E+03  0.00000000000E+00 0. -1.
<scales pt_clust_5="13000.00000" pt_clust_6="13000.00000" pt_clust_7="13000.00000" pt_clust_8="13000.00000" pt_clust_9="35.80041" pt_clust_10="13000.00000"></scales>
<clustering>
<clus scale="   35.800">  1  9  2 -1</clus>
<clus scale="   80.310">  5  6 -1 -1</clus>
<clus scale="   90.433">  7  8 -1 -1</clus>
<clus scale="  113.544">  2  5  1 -1</clus>
<clus scale="  217.774">  7 10 -1 -1</clus>
<clus scale="   35.800">  1  5  2 -1</clus>
</clustering>
</event>
<event>
10    4  0.2759992E-005  0.7922149E+03  0.7546771E-02  0.9725321E-01
         21   -1    0    0  501  502  0.00000000000E+00  0.00000000000E+00  0.77716361011E+03  0.77716361011E+03  0.00000000000E+00 0. -1.
          2   -1    0    0  503    0 -0.00000000000E+00 -0.00000000000E+00 -0.14780770846E+04  0.14780770846E+04  0.00000000000E+00 0. -1.
         24    2    1    2    0    0 -0.23899779005E+03  0.34495852583E+03 -0.18902725289E+03  0.46757954763E+03  0.82358987603E+02 0.  0.
         23    2    1    2    0    0 -0.97967779251E+02  0.20569355501E+02 -0.47297025153E+03  0.49228119281E+03  0.92839268652E+02 0.  0.
        -11    1    3    3    0    0 -0.64275546508E+02  0.55421269061E+02 -0.11507215439E+02  0.85646243061E+02  0.00000000000E+00 0.  1.
         12    1    3    3    0    0 -0.17472224354E+03  0.28953725676E+03 -0.17752003745E+03  0.38193330457E+03  0.00000000000E+00 0. -1.
        -11    1    4    4    0    0 -0.62106854174E+01  0.35763911296E+02 -0.71597072199E+02  0.80273100800E+02  0.00000000000E+00 0. -1.
         11    1    4    4    0    0 -0.91757093833E+02 -0.15194555795E+02 -0.40137317933E+03  0.41200809201E+03  0.00000000000E+00 0.  1.
         21    1    1    2  503  502 -0.14840594055E+03 -0.40157063455E+01  0.47734049352E+03  0.49989438469E+03  0.00000000000E+00 0. -1.
          1    1    1    2  501    0  0.48537150984E+03 -0.36151217498E+03 -0.51625646363E+03  0.79548556962E+03  0.00000000000E+00 0. -1.
<scales pt_clust_5="13000.00000" pt_clust_6="13000.00000" pt_clust_7="13000.00000" pt_clust_8="13000.00000" pt_clust_9="148.46026" pt_clust_10="13000.00000"></scales>
<clustering>
<clus scale="   82.359">  5  6 -1 -1</clus>
<clus scale="   92.839">  7  8 -1 -1</clus>
<clus scale="  148.460">  1  9  2 -1</clus>
<clus scale="  470.040">  2  5  1 -1</clus>
<clus scale="  314.534">  7 10 -1 -1</clus>
<clus scale="  148.460">  1  5  2 -1</clus>
</clustering>
</event>
<event>
10    4  0.2759992E-005  0.2873585E+03  0.7546771E-02  0.1139820E+00
         21   -1    0    0  501  502  0.00000000000E+00  0.00000000000E+00  0.21423383684E+03  0.21423383684E+03  0.00000000000E+00 0.  1.
          2   -1    0    0  503    0 -0.00000000000E+00 -0.00000000000E+00 -0.96990350449E+03  0.96990350449E+03  0.00000000000E+00 0. -1.
         24    2    1    2    0    0 -0.14473679311E+02  0.23801302350E+02 -0.37787025113E+03  0.38741826586E+03  0.80814581862E+02 0.  0.
         23    2    1    2    0    0 -0.93575081712E+02  0.88321564506E+02 -0.47832722984E+03  0.50273933823E+03  0.85982025604E+02 0.  0.
        -11    1    3    3    0    0  0.13287099269E+02  0.18946946151E+02 -0.27608043492E+02  0.36024128593E+02  0.00000000000E+00 0.  1.
         12    1    3    3    0    0 -0.27760778580E+02  0.48543561990E+01 -0.35026220764E+03  0.35139413726E+03  0.00000000000E+00 0. -1.
        -11    1    4    4    0    0 -0.20263262080E+02  0.78019937164E+02 -0.23955004360E+03  0.25274875623E+03  0.00000000000E+00 0.  1.
         11    1    4    4    0    0 -0.73311819632E+02  0.10301627342E+02 -0.23877718623E+03  0.24999058200E+03  0.00000000000E+00 0. -1.
         21    1    1    2  503  502  0.34800277838E+02 -0.13685902937E+03  0.14694804998E+03  0.20380182200E+03  0.00000000000E+00 0.  1.
          1    1    1    2  501    0  0.73248483185E+02  0.24736162515E+02 -0.46420236672E+02  0.90177915243E+02  0.00000000000E+00 0. -1.
<scales pt_clust_5="13000.00000" pt_clust_6="13000.00000" pt_clust_7="13000.00000" pt_clust_8="13000.00000" pt_clust_9="139.92552" pt_clust_10="13000.00000"></scales>
<clustering>
<clus scale="   80.815">  5  6 -1 -1</clus>
<clus scale="   85.481">  2  5  1 -1</clus>
<clus scale="   85.982">  7  8 -1 -1</clus>
<clus scale="   76.669">  7 10 -1 -1</clus>
<clus scale="  139.926">  1  9  2 -1</clus>
<clus scale="  139.926">  1  5  2 -1</clus>
</clustering>
</event>
<event>
10    4  0.2759992E-005  0.2967431E+03  0.7546771E-02  0.1132650E+00
         21   -1    0    0  503  502  0.00000000000E+00  0.00000000000E+00  0.60760906406E+03  0.60760906406E+03  0.00000000000E+00 0.  1.
         -1   -1    0    0    0  501 -0.00000000000E+00 -0.00000000000E+00 -0.28753424774E+03  0.28753424774E+03  0.00000000000E+00 0.  1.
         24    2    1    2    0    0 -0.13804680320E+02 -0.44679093871E+02 -0.19767122805E+03  0.21819625371E+03  0.79679985600E+02 0.  0.
         23    2    1    2    0    0 -0.22565405274E+02  0.13321878048E+03  0.11205265620E+03  0.19770247608E+03  0.90961696879E+02 0.  0.
        -13    1    3    3    0    0 -0.66191190847E+01 -0.62867180357E+02 -0.18339384831E+03  0.19398298560E+03  0.00000000000E+00 0.  1.
         14    1    3    3    0    0 -0.71855612351E+01  0.18188086486E+02 -0.14277379740E+02  0.24213268109E+02  0.00000000000E+00 0. -1.
        -11    1    4    4    0    0 -0.45759761134E+02  0.77198925018E+02  0.10264749400E+03  0.13634565555E+03  0.00000000000E+00 0. -1.
         11    1    4    4    0    0  0.23194355860E+02  0.56019855459E+02  0.94051622022E+01  0.61356820530E+02  0.00000000000E+00 0.  1.
         21    1    1    2  503  501  0.10301834811E+03  0.21563306103E+02  0.28091146917E+03  0.29998168232E+03  0.00000000000E+00 0.  1.
         -2    1    1    2    0  502 -0.66648262512E+02 -0.11010299271E+03  0.12478191899E+03  0.17926289970E+03  0.00000000000E+00 0.  1.
<scales pt_clust_5="13000.00000" pt_clust_6="13000.00000" pt_clust_7="13000.00000" pt_clust_8="13000.00000" pt_clust_9="102.65289" pt_clust_10="13000.00000"></scales>
<clustering>
<clus scale="   79.680">  5  6 -1 -1</clus>
<clus scale="   90.962">  7  8 -1 -1</clus>
<clus scale="   92.389">  2  5  1 -1</clus>
<clus scale="  102.653">  1  9  2 -1</clus>
<clus scale="  116.273">  7 10 -1 -1</clus>
<clus scale="  102.653">  1  5  2 -1</clus>
</clustering>
</event>
<event>
10    4  0.2759992E-005  0.2602471E+03  0.7546771E-02  0.1150214E+00
          4   -1    0    0  503    0 -0.00000000000E+00  0.00000000000E+00  0.16668945107E+03  0.16668945107E+03  0.00000000000E+00 0. -1.
         21   -1    0    0  501  502  0.00000000000E+00 -0.00000000000E+00 -0.27805550544E+03  0.27805550544E+03  0.00000000000E+00 0. -1.
         24    2    1    2    0    0  0.49427032781E+02 -0.12278158257E+02 -0.56908983412E+02  0.11141115761E+03  0.81117377339E+02 0.  0.
         23    2    1    2    0    0  0.96419176340E+02 -0.30143761435E+02 -0.25354938140E+02  0.13110450031E+03  0.79625455690E+02 0.  0.
        -13    1    3    3    0    0  0.30733193197E+01 -0.24391452320E+02 -0.58519502605E+02  0.63473777444E+02  0.00000000000E+00 0.  1.
         14    1    3    3    0    0  0.46353713462E+02  0.12113294063E+02  0.16105191924E+01  0.47937380162E+02  0.00000000000E+00 0. -1.
        -13    1    4    4    0    0  0.28118266976E+02  0.27254659890E+02 -0.39644912016E+01  0.39359504747E+02  0.00000000000E+00 0.  1.
         13    1    4    4    0    0  0.68300909364E+02 -0.57398421325E+02 -0.21390446938E+02  0.91744995562E+02  0.00000000000E+00 0. -1.
         21    1    1    2  503  502 -0.31156099649E+02  0.25564637899E+01 -0.67908006010E+02  0.74757844623E+02  0.00000000000E+00 0. -1.
          3    1    1    2  501    0 -0.11469010947E+03  0.39865455902E+02  0.38805873195E+02  0.12747145398E+03  0.00000000000E+00 0. -1.
<scales pt_clust_5="13000.00000" pt_clust_6="13000.00000" pt_clust_7="13000.00000" pt_clust_8="13000.00000" pt_clust_9="31.26081" pt_clust_10="13000.00000"></scales>
<clustering>
<clus scale="   31.261">  2  9  1 -1</clus>
<clus scale="   79.625">  7  8 -1 -1</clus>
<clus scale="   81.117">  5  6 -1 -1</clus>
<clus scale="   89.757">  1  5  2 -1</clus>
<clus scale="  102.581">  7 10 -1 -1</clus>
<clus scale="   31.261">  2  5  1 -1</clus>
</clustering>
</event>
<event>
10    4  0.2759992E-005  0.3037284E+03  0.7546771E-02  0.1112883E+00
         21   -1    0    0  503  502  0.00000000000E+00  0.00000000000E+00  0.87215356092E+02  0.87215356092E+02  0.00000000000E+00 0. -1.
          2   -1    0    0  502    0 -0.00000000000E+00 -0.00000000000E+00 -0.92988113440E+03  0.92988113440E+03  0.00000000000E+00 0. -1.
         24    2    1    2    0    0 -0.10576210572E+03 -0.44447281258E+02 -0.55461200228E+03  0.57228846321E+03  0.82209660228E+02 0.  0.
         23    2    1    2    0    0 -0.31424791974E+02 -0.41561043067E+02 -0.99273551602E+01  0.10499805435E+03  0.90615678474E+02 0.  0.
        -11    1    3    3    0    0 -0.69693721154E+02 -0.63402128382E+02 -0.30031261603E+03  0.31474547177E+03  0.00000000000E+00 0.  1.
         12    1    3    3    0    0 -0.36068384562E+02  0.18954847124E+02 -0.25429938625E+03  0.25754299144E+03  0.00000000000E+00 0. -1.
        -13    1    4    4    0    0 -0.34519640800E+02 -0.39356982076E+01 -0.42669397615E+02  0.55025201627E+02  0.00000000000E+00 0.  1.
         13    1    4    4    0    0  0.30948488262E+01 -0.37625344860E+02  0.32742042455E+02  0.49972852722E+02  0.00000000000E+00 0. -1.
         21    1    1    2  503  501  0.13595628880E+02 -0.24646695924E+02 -0.54866949711E+02  0.61665897506E+02  0.00000000000E+00 0. -1.
          1    1    1    2  501    0  0.12359126881E+03  0.11065502025E+03 -0.22325947115E+03  0.27814407542E+03  0.00000000000E+00 0. -1.
<scales pt_clust_5="13000.00000" pt_clust_6="13000.00000" pt_clust_7="13000.00000" pt_clust_8="13000.00000" pt_clust_9="28.14785" pt_clust_10="13000.00000"></scales>
<clustering>
<clus scale="   28.148">  1  9  2 -1</clus>
<clus scale="   82.210">  5  6 -1 -1</clus>
<clus scale="   90.616">  7  8 -1 -1</clus>
<clus scale="  140.912">  2  5  1 -1</clus>
<clus scale="   87.996">  7 10 -1 -1</clus>
<clus scale="   28.148">  1  5  2 -1</clus>
</clustering>
</event>
<event>
10    4  0.2779389E-005  0.3729176E+03  0.7546771E-02  0.1071935E+00
         21   -1    0    0  503  502  0.00000000000E+00  0.00000000000E+00  0.12747923865E+04  0.12747923865E+04  0.00000000000E+00 0. -1.
          2   -1    0    0  502    0 -0.00000000000E+00 -0.00000000000E+00 -0.53862995458E+03  0.53862995458E+03  0.00000000000E+00 0. -1.
         24    2    1    2    0    0  0.24097261773E+03 -0.40319868898E+02 -0.21573083801E+03  0.33516235192E+03  0.78105783107E+02 0.  0.
         23    2    1    2    0    0  0.48075072764E+02 -0.19288284397E+02 -0.12203474041E+03  0.15976610081E+03  0.89159848385E+02 0.  0.
        -13    1    3    3    0    0  0.51939660378E+02 -0.40467042666E+02 -0.72921123668E+02  0.98248664822E+02  0.00000000000E+00 0.  1.
         14    1    3    3    0    0  0.18903295735E+03  0.14717376861E+00 -0.14280971434E+03  0.23691368710E+03  0.00000000000E+00 0. -1.
        -13    1    4    4    0    0  0.11416274834E+02 -0.48385770871E+02 -0.34525661694E+02  0.60527146548E+02  0.00000000000E+00 0.  1.
         13    1    4    4    0    0  0.36658797930E+02  0.29097486474E+02 -0.87509078716E+02  0.99238954259E+02  0.00000000000E+00 0. -1.
         21    1    1    2  503  501 -0.10604567012E+03  0.19657824918E+03  0.10666599967E+04  0.10897945865E+04  0.00000000000E+00 0. -1.
          1    1    1    2  501    0 -0.18300202038E+03 -0.13697009588E+03  0.72680136035E+01  0.22869930181E+03  0.00000000000E+00 0. -1.
<scales pt_clust_5="13000.00000" pt_clust_6="13000.00000" pt_clust_7="13000.00000" pt_clust_8="13000.00000" pt_clust_9="223.35777" pt_clust_10="13000.00000"></scales>
<clustering>
<clus scale="   78.106">  5  6 -1 -1</clus>
<clus scale="   89.160">  7  8 -1 -1</clus>
<clus scale="  223.358">  1  9  2 -1</clus>
<clus scale="  223.732">  2  5  1 -1</clus>
<clus scale="  141.045">  7 10 -1 -1</clus>
<clus scale="  223.358">  1  5  2 -1</clus>
</clustering>
</event>
<event>
10    4  0.2759992E-005  0.5000721E+03  0.7546771E-02  0.1038895E+00
          4   -1    0    0  503    0 -0.00000000000E+00  0.00000000000E+00  0.56695652873E+03  0.56695652873E+03  0.00000000000E+00 0. -1.
         21   -1    0    0  501  502  0.00000000000E+00 -0.00000000000E+00 -0.26868160875E+03  0.26868160875E+03  0.00000000000E+00 0. -1.
         24    2    1    2    0    0  0.20931677939E+03 -0.13985192332E+02  0.30874040765E+02  0.22631941455E+03  0.79108604271E+02 0.  0.
         23    2    1    2    0    0  0.37745267120E+01  0.12606345637E+03  0.23966043244E+03  0.28593176670E+03  0.91725733840E+02 0.  0.
        -11    1    3    3    0    0  0.13591370314E+03 -0.64702850241E+00  0.56844072834E+02  0.14732346033E+03  0.00000000000E+00 0.  1.
         12    1    3    3    0    0  0.73403076252E+02 -0.13338163830E+02 -0.25970032069E+02  0.78995954221E+02  0.00000000000E+00 0. -1.
        -13    1    4    4    0    0  0.33856475316E+02  0.35870298775E+02  0.13888707979E+03  0.14738575300E+03  0.00000000000E+00 0. -1.
         13    1    4    4    0    0 -0.30081948604E+02  0.90193157590E+02  0.10077335265E+03  0.13854601370E+03  0.00000000000E+00 0.  1.
         21    1    1    2  503  502  0.33833723210E+02  0.14822333947E+02  0.27011694693E+02  0.45760835439E+02  0.00000000000E+00 0. -1.
          3    1    1    2  501    0 -0.24692502931E+03 -0.12690059798E+03  0.72875207710E+00  0.27762612079E+03  0.00000000000E+00 0. -1.
<scales pt_clust_5="13000.00000" pt_clust_6="13000.00000" pt_clust_7="13000.00000" pt_clust_8="13000.00000" pt_clust_9="36.93811" pt_clust_10="13000.00000"></scales>
<clustering>
<clus scale="   36.938">  2  9  1 -1</clus>
<clus scale="   79.109">  5  6 -1 -1</clus>
<clus scale="   91.726">  7  8 -1 -1</clus>
<clus scale="  235.887">  1  5  2 -1</clus>
<clus scale="  198.051">  7 10 -1 -1</clus>
<clus scale="   36.938">  2  5  1 -1</clus>
</clustering>
</event>
<event>
10    4  0.2759992E-005  0.4280261E+03  0.7546771E-02  0.1072338E+00
          2   -1    0    0  502    0 -0.00000000000E+00  0.00000000000E+00  0.12352721876E+04  0.12352721876E+04  0.00000000000E+00 0. -1.
         21   -1    0    0  503  502  0.00000000000E+00 -0.00000000000E+00 -0.56105753191E+03  0.56105753191E+03  0.00000000000E+00 0. -1.
         24    2    1    2    0    0 -0.12238785933E+03  0.46999560979E+02  0.61044085877E+03  0.62962109951E+03  0.81221549201E+02 0.  0.
         23    2    1    2    0    0 -0.11650127030E+03 -0.66126908342E+02  0.45093792313E+03  0.47915880877E+03  0.91119918314E+02 0.  0.
        -11    1    3    3    0    0 -0.32495895467E+02  0.49687210894E+02  0.16934193027E+03  0.17944774029E+03  0.00000000000E+00 0.  1.
         12    1    3    3    0    0 -0.89891963864E+02 -0.26876499150E+01  0.44109892850E+03  0.45017335922E+03  0.00000000000E+00 0. -1.
        -11    1    4    4    0    0 -0.12839816346E+01 -0.44812348991E+02  0.12243691036E+03  0.13038631926E+03  0.00000000000E+00 0.  1.
         11    1    4    4    0    0 -0.11521728867E+03 -0.21314559352E+02  0.32850101277E+03  0.34877248951E+03  0.00000000000E+00 0. -1.
         21    1    1    2  503  501  0.67775182580E+02 -0.40732851052E+02 -0.47819980790E+03  0.48469340496E+03  0.00000000000E+00 0. -1.
          1    1    1    2  501    0  0.17111394705E+03  0.59860198415E+02  0.91035681726E+02  0.20285640630E+03  0.00000000000E+00 0. -1.
<scales pt_clust_5="13000.00000" pt_clust_6="13000.00000" pt_clust_7="13000.00000" pt_clust_8="13000.00000" pt_clust_9="79.07364" pt_clust_10="13000.00000"></scales>
<clustering>
<clus scale="   79.074">  2  9  1 -1</clus>
<clus scale="   81.222">  5  6 -1 -1</clus>
<clus scale="   91.120">  7  8 -1 -1</clus>
<clus scale="  146.341">  1  5  2 -1</clus>
<clus scale="  185.392">  7 10 -1 -1</clus>
<clus scale="   79.074">  2  5  1 -1</clus>
</clustering>
</event>
<event>
10    4  0.2759992E-005  0.4359166E+03  0.7546771E-02  0.1090793E+00
          2   -1    0    0  503    0 -0.00000000000E+00  0.00000000000E+00  0.10128343980E+04  0.10128343980E+04  0.00000000000E+00 0. -1.
         21   -1    0    0  501  502  0.00000000000E+00 -0.00000000000E+00 -0.21931602481E+03  0.21931602481E+03  0.00000000000E+00 0. -1.
         24    2    1    2    0    0 -0.23122143433E+01  0.21639684319E+02  0.57047562540E+03  0.57664996099E+03  0.81296470193E+02 0.  0.
         23    2    1    2    0    0 -0.47457411599E+02  0.17690337999E+03  0.16567163718E+03  0.26162985283E+03  0.86348577066E+02 0.  0.
        -13    1    3    3    0    0 -0.32900771675E+02 -0.12244960671E+02  0.17041101888E+03  0.17398941116E+03  0.00000000000E+00 0.  1.
         14    1    3    3    0    0  0.30588557332E+02  0.33884644990E+02  0.40006460652E+03  0.40266054983E+03  0.00000000000E+00 0. -1.
        -13    1    4    4    0    0 -0.41327696523E+02  0.15289978207E+03  0.90362441522E+02  0.18235046667E+03  0.00000000000E+00 0. -1.
         13    1    4    4    0    0 -0.61297150753E+01  0.24003597917E+02  0.75309195657E+02  0.79279386163E+02  0.00000000000E+00 0.  1.
         21    1    1    2  503  502  0.46878552563E+01  0.32683517347E+02 -0.10347624021E+03  0.10861639187E+03  0.00000000000E+00 0. -1.
          1    1    1    2  501    0  0.45081770686E+02 -0.23122658165E+03  0.16084735078E+03  0.28525421709E+03  0.00000000000E+00 0. -1.
<scales pt_clust_5="13000.00000" pt_clust_6="13000.00000" pt_clust_7="13000.00000" pt_clust_8="13000.00000" pt_clust_9="33.01800" pt_clust_10="13000.00000"></scales>
<clustering>
<clus scale="   33.018">  2  9  1 -1</clus>
<clus scale="   81.296">  5  6 -1 -1</clus>
<clus scale="   84.389">  1  5  2 -1</clus>
<clus scale="   86.349">  7  8 -1 -1</clus>
<clus scale="  208.523">  7 10 -1 -1</clus>
<clus scale="   33.018">  2  5  1 -1</clus>
</clustering>
</event>
<event>
10    4  0.2759992E-005  0.4528725E+03  0.7546771E-02  0.1031639E+00
          2   -1    0    0  503    0 -0.00000000000E+00  0.00000000000E+00  0.16553243792E+04  0.16553243792E+04  0.00000000000E+00 0. -1.
         21   -1    0    0  501  502  0.00000000000E+00 -0.00000000000E+00 -0.23022740357E+03  0.23022740357E+03  0.00000000000E+00 0. -1.
         24    2    1    2    0    0 -0.35256309359E+03  0.13213947074E+03  0.61286648175E+03  0.72396691493E+03  0.82226484610E+02 0.  0.
         23    2    1    2    0    0  0.31267697621E+02 -0.99939061357E+01  0.13674719115E+03  0.16647299133E+03  0.89083755420E+02 0.  0.
        -11    1    3    3    0    0 -0.35988998337E+02  0.40102107267E+01  0.24687014694E+02  0.43826230568E+02  0.00000000000E+00 0.  1.
         12    1    3    3    0    0 -0.31657409525E+03  0.12812926001E+03  0.58817946706E+03  0.68014068436E+03  0.00000000000E+00 0. -1.
        -13    1    4    4    0    0  0.58864334349E+02  0.11478046545E+02  0.86595086548E+02  0.10533501044E+03  0.00000000000E+00 0.  1.
         13    1    4    4    0    0 -0.27596636728E+02 -0.21471952681E+02  0.50152104605E+02  0.61137980887E+02  0.00000000000E+00 0. -1.
         21    1    1    2  503  502 -0.21727300736E+02 -0.15190928153E+02 -0.11965610798E+03  0.12255783970E+03  0.00000000000E+00 0. -1.
          1    1    1    2  501    0  0.34302269670E+03 -0.10695463645E+03  0.79513941071E+03  0.87255403682E+03  0.00000000000E+00 0. -1.
<scales pt_clust_5="13000.00000" pt_clust_6="13000.00000" pt_clust_7="13000.00000" pt_clust_8="13000.00000" pt_clust_9="26.51113" pt_clust_10="13000.00000"></scales>
<clustering>
<clus scale="   26.511">  2  9  1 -1</clus>
<clus scale="   82.226">  5  6 -1 -1</clus>
<clus scale="   89.084">  7  8 -1 -1</clus>
<clus scale="  353.635">  7 10 -1 -1</clus>
<clus scale="  393.015">  1  5  2 -1</clus>
<clus scale="   26.511">  2  5  1 -1</clus>
</clustering>
</event>
<event>
10    4  0.2759992E-005  0.1439451E+03  0.7546771E-02  0.1234230E+00
         21   -1    0    0  501  502  0.00000000000E+00  0.00000000000E+00  0.11187799429E+03  0.11187799429E+03  0.00000000000E+00 0. -1.
         -3   -1    0    0    0  501 -0.00000000000E+00 -0.00000000000E+00 -0.15399749154E+03  0.15399749154E+03  0.00000000000E+00 0.  1.
         24    2    1    2    0    0  0.23928312965E+02 -0.12444891020E+02 -0.30591732775E+01  0.83943636179E+02  0.79433846942E+02 0.  0.
         23    2    1    2    0    0 -0.16573190944E+02  0.93232924854E+01 -0.70092933030E+02  0.11534989816E+03  0.89615764820E+02 0.  0.
        -11    1    3    3    0    0  0.46358361844E+02  0.14703867105E+02 -0.53423727006E+00  0.48637298755E+02  0.00000000000E+00 0.  1.
         12    1    3    3    0    0 -0.22430048879E+02 -0.27148758125E+02 -0.25249360074E+01  0.35306337424E+02  0.00000000000E+00 0. -1.
        -11    1    4    4    0    0  0.25524814840E+02 -0.17454910242E+02 -0.55217828665E+02  0.63286638927E+02  0.00000000000E+00 0. -1.
         11    1    4    4    0    0 -0.42098005784E+02  0.26778202727E+02 -0.14875104365E+02  0.52063259235E+02  0.00000000000E+00 0.  1.
         21    1    1    2  503  502 -0.22516723988E+02 -0.18832932451E+02  0.59279450717E+01  0.29946998792E+02  0.00000000000E+00 0.  1.
         -4    1    1    2    0  503  0.15161601967E+02  0.21954530985E+02  0.25104663989E+02  0.36634952695E+02  0.00000000000E+00 0.  1.
<scales pt_clust_5="13000.00000" pt_clust_6="13000.00000" pt_clust_7="13000.00000" pt_clust_8="13000.00000" pt_clust_9="29.35442" pt_clust_10="13000.00000"></scales>
<clustering>
<clus scale="   29.354">  1  9  2 -1</clus>
<clus scale="   79.434">  5  6 -1 -1</clus>
<clus scale="   83.275">  2  5  1 -1</clus>
<clus scale="   89.616">  7  8 -1 -1</clus>
<clus scale="   16.819">  7 10 -1 -1</clus>
<clus scale="   29.354">  1  5  2 -1</clus>
</clustering>
</event>
<event>
10    4  0.2759992E-005  0.3022194E+03  0.7546771E-02  0.1098181E+00
         21   -1    0    0  501  502  0.00000000000E+00  0.00000000000E+00  0.10192792904E+03  0.10192792904E+03  0.00000000000E+00 0.  1.
          2   -1    0    0  503    0 -0.00000000000E+00 -0.00000000000E+00 -0.15535147997E+04  0.15535147997E+04  0.00000000000E+00 0. -1.
         24    2    1    2    0    0  0.96270479299E+02 -0.20213970382E+03 -0.29319354162E+03  0.37832691474E+03  0.83906713225E+02 0.  0.
         23    2    1    2    0    0 -0.27091855721E+02 -0.12682353877E+02 -0.22661143203E+03  0.24680063790E+03  0.93075254470E+02 0.  0.
        -13    1    3    3    0    0  0.63939567581E+02 -0.17335810170E+03 -0.27514189528E+03  0.33142776327E+03  0.00000000000E+00 0.  1.
         14    1    3    3    0    0  0.32330911718E+02 -0.28781602118E+02 -0.18051646341E+02  0.46899151470E+02  0.00000000000E+00 0. -1.
        -11    1    4    4    0    0 -0.46758532458E+02 -0.39721641667E+02 -0.17363484016E+03  0.18415544220E+03  0.00000000000E+00 0. -1.
         11    1    4    4    0    0  0.19666676737E+02  0.27039287790E+02 -0.52976591865E+02  0.62645195695E+02  0.00000000000E+00 0.  1.
         21    1    1    2  503  502  0.75254980996E+01  0.57454410668E+02  0.20962367828E+02  0.61620315577E+02  0.00000000000E+00 0.  1.
          1    1    1    2  501    0 -0.76704121678E+02  0.15736764703E+03 -0.95274426482E+03  0.96869486050E+03  0.00000000000E+00 0. -1.
<scales pt_clust_5="13000.00000" pt_clust_6="13000.00000" pt_clust_7="13000.00000" pt_clust_8="13000.00000" pt_clust_9="57.94517" pt_clust_10="13000.00000"></scales>
<clustering>
<clus scale="   57.945">  1  9  2 -1</clus>
<clus scale="   83.907">  5  6 -1 -1</clus>
<clus scale="   93.075">  7  8 -1 -1</clus>
<clus scale="  181.474">  7 10 -1 -1</clus>
<clus scale="  208.650">  2  5  1 -1</clus>
<clus scale="   57.945">  1  5  2 -1</clus>
</clustering>
</event>
<event>
10    4  0.2759992E-005  0.3807842E+03  0.7546771E-02  0.1073216E+00
          2   -1    0    0  503    0 -0.00000000000E+00  0.00000000000E+00  0.13159370005E+04  0.13159370005E+04  0.00000000000E+00 0. -1.
         21   -1    0    0  501  502  0.00000000000E+00 -0.00000000000E+00 -0.86312579955E+02  0.86312579955E+02  0.00000000000E+00 0.  1.
         24    2    1    2    0    0  0.10090396866E+03 -0.16401422992E+03  0.32672405775E+03  0.39015924364E+03  0.91615211499E+02 0.  0.
         23    2    1    2    0    0  0.72326213927E+02 -0.42532805592E+02  0.16493776744E+03  0.20518101003E+03  0.88626513962E+02 0.  0.
        -11    1    3    3    0    0  0.57434122006E+02 -0.15882463734E+03  0.27060015035E+03  0.31898022692E+03  0.00000000000E+00 0.  1.
         12    1    3    3    0    0  0.43469846654E+02 -0.51895925769E+01  0.56123907400E+02  0.71179016719E+02  0.00000000000E+00 0. -1.
        -11    1    4    4    0    0  0.30670433080E+02 -0.41944974731E+02  0.22231312728E+02  0.56518029301E+02  0.00000000000E+00 0.  1.
         11    1    4    4    0    0  0.41655780848E+02 -0.58783086064E+00  0.14270645471E+03  0.14866298073E+03  0.00000000000E+00 0. -1.
         21    1    1    2  503  502 -0.66347659392E+02 -0.51116850627E+01  0.63499139148E+02  0.91979790734E+02  0.00000000000E+00 0.  1.
          1    1    1    2  501    0 -0.10688252320E+03  0.21165872057E+03  0.67446345621E+03  0.71492953605E+03  0.00000000000E+00 0. -1.
<scales pt_clust_5="13000.00000" pt_clust_6="13000.00000" pt_clust_7="13000.00000" pt_clust_8="13000.00000" pt_clust_9="66.54428" pt_clust_10="13000.00000"></scales>
<clustering>
<clus scale="   66.544">  2  9  1 -1</clus>
<clus scale="   88.627">  7  8 -1 -1</clus>
<clus scale="   91.615">  5  6 -1 -1</clus>
<clus scale="  202.925">  1  5  2 -1</clus>
<clus scale="  104.035">  7 10 -1 -1</clus>
<clus scale="   66.544">  2  5  1 -1</clus>
</clustering>
</event>
<event>
10    4  0.2759992E-005  0.3523636E+03  0.7546771E-02  0.1116777E+00
         21   -1    0    0  501  502  0.00000000000E+00  0.00000000000E+00  0.25494293702E+03  0.25494293702E+03  0.00000000000E+00 0. -1.
          2   -1    0    0  503    0 -0.00000000000E+00 -0.00000000000E+00 -0.25596781384E+03  0.25596781384E+03  0.00000000000E+00 0. -1.
         24    2    1    2    0    0 -0.11093081552E+01  0.14349250727E+02  0.12602556023E+02  0.83721248628E+02  0.81506389275E+02 0.  0.
         23    2    1    2    0    0 -0.12686910846E+03 -0.70372316518E+02 -0.10946569553E+03  0.20354477569E+03  0.91649896891E+02 0.  0.
        -13    1    3    3    0    0  0.72650818815E+01 -0.32253886056E+02 -0.45227501272E+01  0.33369894354E+02  0.00000000000E+00 0.  1.
         14    1    3    3    0    0 -0.83743900367E+01  0.46603136783E+02  0.17125306150E+02  0.50351354274E+02  0.00000000000E+00 0. -1.
        -11    1    4    4    0    0 -0.43708454814E+02 -0.26295820814E+02 -0.95671338576E+02  0.10842003615E+03  0.00000000000E+00 0.  1.
         11    1    4    4    0    0 -0.83160653646E+02 -0.44076495705E+02 -0.13794356952E+02  0.95124739538E+02  0.00000000000E+00 0. -1.
         21    1    1    2  503  502  0.19742957376E+01 -0.29880474588E+02  0.59897568445E+02  0.66966105687E+02  0.00000000000E+00 0. -1.
          1    1    1    2  501    0  0.12600412088E+03  0.85903540379E+02  0.35940694241E+02  0.15667862085E+03  0.00000000000E+00 0. -1.
<scales pt_clust_5="13000.00000" pt_clust_6="13000.00000" pt_clust_7="13000.00000" pt_clust_8="13000.00000" pt_clust_9="29.94563" pt_clust_10="13000.00000"></scales>
<clustering>
<clus scale="   29.946">  1  9  2 -1</clus>
<clus scale="   81.506">  5  6 -1 -1</clus>
<clus scale="   81.795">  2  5  1 -1</clus>
<clus scale="   91.650">  7  8 -1 -1</clus>
<clus scale="  146.174">  7 10 -1 -1</clus>
<clus scale="   29.946">  1  5  2 -1</clus>
</clustering>
</event>
<event>
10    4  0.2759992E-005  0.3801721E+03  0.7546771E-02  0.1076177E+00
          2   -1    0    0  503    0 -0.00000000000E+00  0.00000000000E+00  0.17577697939E+04  0.17577697939E+04  0.00000000000E+00 0. -1.
         21   -1    0    0  501  502  0.00000000000E+00 -0.00000000000E+00 -0.12208451362E+03  0.12208451362E+03  0.00000000000E+00 0.  1.
         24    2    1    2    0    0 -0.26672280101E+02  0.16656797512E+03  0.48930100327E+03  0.52421819792E+03  0.83264316338E+02 0.  0.
         23    2    1    2    0    0  0.32684863122E+02  0.14296089909E+03  0.31668163778E+03  0.36069298967E+03  0.91137556138E+02 0.  0.
        -11    1    3    3    0    0  0.24663894430E+02  0.17573575162E+02  0.89162748334E+02  0.94165460350E+02  0.00000000000E+00 0.  1.
         12    1    3    3    0    0 -0.51336174531E+02  0.14899439996E+03  0.40013825493E+03  0.43005273757E+03  0.00000000000E+00 0. -1.
        -11    1    4    4    0    0  0.15196497583E+02  0.30716942684E+02  0.13334624968E+02  0.36773310018E+02  0.00000000000E+00 0. -1.
         11    1    4    4    0    0  0.17488365539E+02  0.11224395641E+03  0.30334701282E+03  0.32391967965E+03  0.00000000000E+00 0.  1.
         21    1    1    2  503  502 -0.76841122342E+02 -0.22733488254E+03  0.10461490980E+03  0.26178232609E+03  0.00000000000E+00 0.  1.
          1    1    1    2  501    0  0.70828539321E+02 -0.82193991668E+02  0.72508772942E+03  0.73316079382E+03  0.00000000000E+00 0. -1.
<scales pt_clust_5="13000.00000" pt_clust_6="13000.00000" pt_clust_7="13000.00000" pt_clust_8="13000.00000" pt_clust_9="218.41651" pt_clust_10="13000.00000"></scales>
<clustering>
<clus scale="   83.264">  5  6 -1 -1</clus>
<clus scale="   91.138">  7  8 -1 -1</clus>
<clus scale="  108.501">  7 10 -1 -1</clus>
<clus scale="  188.120">  1  5  2 -1</clus>
<clus scale="  218.417">  2  9  1 -1</clus>
<clus scale="  218.417">  2  5  1 -1</clus>
</clustering>
</event>
<event>
10    4  0.2759992E-005  0.3556197E+03  0.7546771E-02  0.1114109E+00
         -1   -1    0    0    0  501 -0.00000000000E+00  0.00000000000E+00  0.19423637353E+03  0.19423637353E+03  0.00000000000E+00 0.  1.
         21   -1    0    0  503  502  0.00000000000E+00 -0.00000000000E+00 -0.29614951161E+03  0.29614951161E+03  0.00000000000E+00 0.  1.
         24    2    1    2    0    0 -0.14476923056E+02 -0.28384271430E+02 -0.94689501749E+01  0.86117699549E+02  0.79443999096E+02 0.  0.
         23    2    1    2    0    0  0.63176960142E+02 -0.55564382152E+02  0.10521538569E+03  0.16271505358E+03  0.91253396756E+02 0.  0.
        -11    1    3    3    0    0 -0.31531648243E+01 -0.55470143576E+02 -0.11322224780E+02  0.56701605363E+02  0.00000000000E+00 0.  1.
         12    1    3    3    0    0 -0.11323758232E+02  0.27085872146E+02  0.18532746047E+01  0.29416094186E+02  0.00000000000E+00 0. -1.
        -11    1    4    4    0    0  0.37597040667E+02 -0.13777605557E+01  0.94672016232E+02  0.10187358023E+03  0.00000000000E+00 0.  1.
         11    1    4    4    0    0  0.25579919474E+02 -0.54186621597E+02  0.10543369459E+02  0.60841473354E+02  0.00000000000E+00 0. -1.
         21    1    1    2  503  501  0.24921882722E+02 -0.27869219409E+01 -0.36176183388E+02  0.44017989696E+02  0.00000000000E+00 0. -1.
         -2    1    1    2    0  502 -0.73621919807E+02  0.86735575523E+02 -0.16148339020E+03  0.19753514231E+03  0.00000000000E+00 0.  1.
<scales pt_clust_5="13000.00000" pt_clust_6="13000.00000" pt_clust_7="13000.00000" pt_clust_8="13000.00000" pt_clust_9="25.07722" pt_clust_10="13000.00000"></scales>
<clustering>
<clus scale="   25.077">  2  9  1 -1</clus>
<clus scale="   79.444">  5  6 -1 -1</clus>
<clus scale="   85.108">  1  5  2 -1</clus>
<clus scale="   91.253">  7  8 -1 -1</clus>
<clus scale="   99.628">  7 10 -1 -1</clus>
<clus scale="   25.077">  2  5  1 -1</clus>
</clustering>
</event>
<event>
10    4  0.2759992E-005  0.1913864E+03  0.7546771E-02  0.1181498E+00
          2   -1    0    0  503    0 -0.00000000000E+00  0.00000000000E+00  0.78280963665E+03  0.78280963665E+03  0.00000000000E+00 0. -1.
         21   -1    0    0  501  502  0.00000000000E+00 -0.00000000000E+00 -0.10413281775E+03  0.10413281775E+03  0.00000000000E+00 0. -1.
         24    2    1    2    0    0 -0.38551760192E+02 -0.60800329721E+02  0.56927760377E+03  0.57930524534E+03  0.79590569941E+02 0.  0.
         23    2    1    2    0    0  0.80343701087E+02 -0.12854487136E+01  0.99190124850E+02  0.15800633287E+03  0.93115829359E+02 0.  0.
        -11    1    3    3    0    0 -0.27382474023E+02  0.13072725122E+02  0.11555140386E+03  0.11946892048E+03  0.00000000000E+00 0.  1.
         12    1    3    3    0    0 -0.11169286170E+02 -0.73873054843E+02  0.45372619991E+03  0.45983632487E+03  0.00000000000E+00 0. -1.
        -13    1    4    4    0    0  0.41411593162E+02  0.16629365026E+02  0.10562932490E+03  0.11466913319E+03  0.00000000000E+00 0.  1.
         13    1    4    4    0    0  0.38932107925E+02 -0.17914813739E+02 -0.64392000454E+01  0.43337199679E+02  0.00000000000E+00 0. -1.
         21    1    1    2  503  502 -0.46787094201E+02 -0.24431998660E+02 -0.21991228742E+02  0.57180144140E+02  0.00000000000E+00 0. -1.
          1    1    1    2  501    0  0.49951533062E+01  0.86517777094E+02  0.32200319022E+02  0.92450732041E+02  0.00000000000E+00 0. -1.
<scales pt_clust_5="13000.00000" pt_clust_6="13000.00000" pt_clust_7="13000.00000" pt_clust_8="13000.00000" pt_clust_9="52.78214" pt_clust_10="13000.00000"></scales>
<clustering>
<clus scale="   52.782">  2  9  1 -1</clus>
<clus scale="   79.591">  5  6 -1 -1</clus>
<clus scale="   93.116">  7  8 -1 -1</clus>
<clus scale="   76.980">  7 10 -1 -1</clus>
<clus scale="  109.751">  1  5  2 -1</clus>
<clus scale="   52.782">  2  5  1 -1</clus>
</clustering>
</event>
<event>
10    4  0.2759992E-005  0.1457647E+03  0.7546771E-02  0.1226867E+00
         21   -1    0    0  501  502  0.00000000000E+00  0.00000000000E+00  0.42607348925E+02  0.42607348925E+02  0.00000000000E+00 0.  1.
          2   -1    0    0  503    0 -0.00000000000E+00 -0.00000000000E+00 -0.59184482569E+03  0.59184482569E+03  0.00000000000E+00 0. -1.
         24    2    1    2    0    0  0.45006278075E+02  0.31334719138E+02 -0.22886752500E+03  0.24811302385E+03  0.78563979750E+02 0.  0.
         23    2    1    2    0    0 -0.23790374528E+02 -0.19237969937E+01 -0.16252726328E+03  0.18767973358E+03  0.90768321407E+02 0.  0.
        -11    1    3    3    0    0  0.22711499607E+02  0.43089879746E+02 -0.59566456856E+02  0.76946167763E+02  0.00000000000E+00 0.  1.
         12    1    3    3    0    0  0.22294778467E+02 -0.11755160609E+02 -0.16930106814E+03  0.17116685608E+03  0.00000000000E+00 0. -1.
        -13    1    4    4    0    0 -0.56786743449E+02 -0.76422389317E+01 -0.78190957633E+02  0.96937938409E+02  0.00000000000E+00 0. -1.
         13    1    4    4    0    0  0.32996368920E+02  0.57184419380E+01 -0.84336305646E+02  0.90741795167E+02  0.00000000000E+00 0.  1.
         21    1    1    2  503  502 -0.27386156895E+02  0.14136615017E+02  0.38797961556E+01  0.31062812040E+02  0.00000000000E+00 0.  1.
          1    1    1    2  501    0  0.61702533487E+01 -0.43547537161E+02 -0.16172248464E+03  0.16759660515E+03  0.00000000000E+00 0. -1.
<scales pt_clust_5="13000.00000" pt_clust_6="13000.00000" pt_clust_7="13000.00000" pt_clust_8="13000.00000" pt_clust_9="30.81956" pt_clust_10="13000.00000"></scales>
<clustering>
<clus scale="   30.820">  1  9  2 -1</clus>
<clus scale="   78.564">  5  6 -1 -1</clus>
<clus scale="   90.768">  7  8 -1 -1</clus>
<clus scale="   42.001">  7 10 -1 -1</clus>
<clus scale="   93.351">  2  5  1 -1</clus>
<clus scale="   30.820">  1  5  2 -1</clus>
</clustering>
</event>
<event>
10    4  0.2759992E-005  0.3920893E+03  0.7546771E-02  0.1070099E+00
          2   -1    0    0  502    0 -0.00000000000E+00  0.00000000000E+00  0.24074497024E+04  0.24074497024E+04  0.00000000000E+00 0. -1.
         21   -1    0    0  503  502  0.00000000000E+00 -0.00000000000E+00 -0.66345672311E+02  0.66345672311E+02  0.00000000000E+00 0.  1.
         24    2    1    2    0    0 -0.18146904134E+03 -0.54015451399E+02  0.43725898896E+03  0.48184728275E+03  0.71642853917E+02 0.  0.
         23    2    1    2    0    0 -0.35009421724E+02  0.50523552242E+02  0.16158214007E+03  0.19431480250E+03  0.88719589392E+02 0.  0.
        -11    1    3    3    0    0 -0.13742627133E+03 -0.48571167177E+02  0.39305427173E+03  0.41920973135E+03  0.00000000000E+00 0.  1.
         12    1    3    3    0    0 -0.44042770005E+02 -0.54442842217E+01  0.44204717225E+02  0.62637551400E+02  0.00000000000E+00 0. -1.
        -11    1    4    4    0    0  0.29109587755E+01  0.64323653249E+02  0.12110786660E+03  0.13716093249E+03  0.00000000000E+00 0.  1.
         11    1    4    4    0    0 -0.37920380499E+02 -0.13800101006E+02  0.40474273466E+02  0.57153870014E+02  0.00000000000E+00 0. -1.
         21    1    1    2  503  501  0.51068956047E+02 -0.10684970309E+03  0.14127858393E+03  0.18434895063E+03  0.00000000000E+00 0.  1.
          1    1    1    2  501    0  0.16540950701E+03  0.11034160224E+03  0.16009843172E+04  0.16132843389E+04  0.00000000000E+00 0. -1.
<scales pt_clust_5="13000.00000" pt_clust_6="13000.00000" pt_clust_7="13000.00000" pt_clust_8="13000.00000" pt_clust_9="118.42676" pt_clust_10="13000.00000"></scales>
<clustering>
<clus scale="   71.643">  5  6 -1 -1</clus>
<clus scale="   88.720">  7  8 -1 -1</clus>
<clus scale="  118.427">  2  9  1 -1</clus>
<clus scale="  197.186">  7 10 -1 -1</clus>
<clus scale="  202.421">  1  5  2 -1</clus>
<clus scale="  118.427">  2  5  1 -1</clus>
</clustering>
</event>
<event>
10    4  0.2759992E-005  0.4445942E+03  0.7546771E-02  0.1064005E+00
          2   -1    0    0  503    0 -0.00000000000E+00  0.00000000000E+00  0.29096438867E+03  0.29096438867E+03  0.00000000000E+00 0. -1.
         21   -1    0    0  501  502  0.00000000000E+00 -0.00000000000E+00 -0.40797520777E+03  0.40797520777E+03  0.00000000000E+00 0. -1.
         24    2    1    2    0    0  0.25606070972E+02  0.12477146625E+03 -0.13477185888E+03  0.20229821694E+03  0.80854962562E+02 0.  0.
         23    2    1    2    0    0 -0.63729248370E+02 -0.18001514086E+03 -0.16281613081E+03  0.26741976727E+03  0.92397897373E+02 0.  0.
        -11    1    3    3    0    0 -0.24371213054E+02  0.27334511832E+02 -0.13829521684E+02  0.39145717937E+02  0.00000000000E+00 0.  1.
         12    1    3    3    0    0  0.49977284027E+02  0.97436954415E+02 -0.12094233719E+03  0.16315249900E+03  0.00000000000E+00 0. -1.
        -13    1    4    4    0    0 -0.85016989027E+02 -0.12828621957E+03 -0.10116011234E+03  0.18417005968E+03  0.00000000000E+00 0. -1.
         13    1    4    4    0    0  0.21287740657E+02 -0.51728921289E+02 -0.61656018470E+02  0.83249707588E+02  0.00000000000E+00 0.  1.
         21    1    1    2  503  502 -0.19368596824E+02  0.39652795484E+02  0.57238035237E+01  0.44499984937E+02  0.00000000000E+00 0.  1.
          1    1    1    2  501    0  0.57491774221E+02  0.15590879128E+02  0.17485336706E+03  0.18472162729E+03  0.00000000000E+00 0. -1.
<scales pt_clust_5="13000.00000" pt_clust_6="13000.00000" pt_clust_7="13000.00000" pt_clust_8="13000.00000" pt_clust_9="44.13036" pt_clust_10="13000.00000"></scales>
<clustering>
<clus scale="   44.130">  2  9  1 -1</clus>
<clus scale="   80.855">  5  6 -1 -1</clus>
<clus scale="   92.398">  7  8 -1 -1</clus>
<clus scale="   59.465">  7 10 -1 -1</clus>
<clus scale="  164.283">  1  5  2 -1</clus>
<clus scale="   44.130">  2  5  1 -1</clus>
</clustering>
</event>
<event>
10    4  0.2759992E-005  0.3483537E+03  0.7546771E-02  0.1066039E+00
         21   -1    0    0  501  502  0.00000000000E+00  0.00000000000E+00  0.15336832891E+03  0.15336832891E+03  0.00000000000E+00 0. -1.
          2   -1    0    0  503    0 -0.00000000000E+00 -0.00000000000E+00 -0.20020906915E+04  0.20020906915E+04  0.00000000000E+00 0. -1.
         24    2    1    2    0    0 -0.31157084771E+02  0.29781893721E+03 -0.14076773012E+04  0.14415282224E+04  0.82348942740E+02 0.  0.
         23    2    1    2    0    0  0.61081208656E+02 -0.11769456472E+03 -0.16256564864E+03  0.22855085687E+03  0.90691672402E+02 0.  0.
        -13    1    3    3    0    0  0.16268219040E+02  0.35296544787E+02 -0.10866914402E+03  0.11541006839E+03  0.00000000000E+00 0.  1.
         14    1    3    3    0    0 -0.47425303811E+02  0.26252239243E+03 -0.12990081572E+04  0.13261181540E+04  0.00000000000E+00 0. -1.
        -11    1    4    4    0    0  0.24155907118E+02 -0.72993216212E+02 -0.27654772425E+02  0.81708652538E+02  0.00000000000E+00 0. -1.
         11    1    4    4    0    0  0.36925301538E+02 -0.44701348509E+02 -0.13491087622E+03  0.14684220433E+03  0.00000000000E+00 0.  1.
         21    1    1    2  503  502 -0.96003531313E+02  0.62380503601E+02 -0.59554613633E+01  0.11464498582E+03  0.00000000000E+00 0.  1.
          1    1    1    2  501    0  0.66079407428E+02 -0.24250487609E+03 -0.27252395138E+03  0.37073495532E+03  0.00000000000E+00 0. -1.
<scales pt_clust_5="13000.00000" pt_clust_6="13000.00000" pt_clust_7="13000.00000" pt_clust_8="13000.00000" pt_clust_9="114.49020" pt_clust_10="13000.00000"></scales>
<clustering>
<clus scale="   82.349">  5  6 -1 -1</clus>
<clus scale="   90.692">  7  8 -1 -1</clus>
<clus scale="  114.490">  1  9  2 -1</clus>
<clus scale="  212.375">  7 10 -1 -1</clus>
<clus scale="  322.807">  2  5  1 -1</clus>
<clus scale="  114.490">  1  5  2 -1</clus>
</clustering>
</event>
<event>
10    4  0.2759992E-005  0.1008554E+04  0.7546771E-02  0.9990378E-01
          2   -1    0    0  503    0 -0.00000000000E+00  0.00000000000E+00  0.18463640373E+04  0.18463640373E+04  0.00000000000E+00 0. -1.
         21   -1    0    0  501  502  0.00000000000E+00 -0.00000000000E+00 -0.63051169749E+03  0.63051169749E+03  0.00000000000E+00 0. -1.
         24    2    1    2    0    0 -0.47038625651E+02  0.20715467338E+02  0.31065530272E+03  0.32526054813E+03  0.81522660484E+02 0.  0.
         23    2    1    2    0    0 -0.78609845504E+02 -0.11502629659E+03  0.41842337307E+03  0.45037160780E+03  0.91355948148E+02 0.  0.
        -13    1    3    3    0    0 -0.40160829254E+02  0.49346189467E+02  0.24800037346E+03  0.25603148997E+03  0.00000000000E+00 0.  1.
         14    1    3    3    0    0 -0.68777963970E+01 -0.28630722129E+02  0.62654929256E+02  0.69229058155E+02  0.00000000000E+00 0. -1.
        -11    1    4    4    0    0 -0.91363622949E+02 -0.68321837748E+02  0.33529759060E+03  0.35417461707E+03  0.00000000000E+00 0. -1.
         11    1    4    4    0    0  0.12753777445E+02 -0.46704458838E+02  0.83125782468E+02  0.96196990729E+02  0.00000000000E+00 0.  1.
         21    1    1    2  503  502  0.74286772360E+03 -0.31255685584E+03 -0.17910210205E+02  0.80614205853E+03  0.00000000000E+00 0. -1.
          1    1    1    2  501    0 -0.61721925245E+03  0.40686768509E+03  0.50468387420E+03  0.89510152030E+03  0.00000000000E+00 0. -1.
<scales pt_clust_5="13000.00000" pt_clust_6="13000.00000" pt_clust_7="13000.00000" pt_clust_8="13000.00000" pt_clust_9="792.69138" pt_clust_10="13000.00000"></scales>
<clustering>
<clus scale="   81.523">  5  6 -1 -1</clus>
<clus scale="   91.356">  7  8 -1 -1</clus>
<clus scale="   96.373">  1  5  2 -1</clus>
<clus scale="  762.473">  7 10 -1 -1</clus>
<clus scale="  792.691">  2  9  1 -1</clus>
<clus scale="  792.691">  2  5  1 -1</clus>
</clustering>
</event>
<event>
10    4  0.2759992E-005  0.3461954E+03  0.7546771E-02  0.1074375E+00
          2   -1    0    0  502    0 -0.00000000000E+00  0.00000000000E+00  0.91199804170E+03  0.91199804170E+03  0.00000000000E+00 0. -1.
         21   -1    0    0  503  502  0.00000000000E+00 -0.00000000000E+00 -0.12275077355E+03  0.12275077355E+03  0.00000000000E+00 0. -1.
         24    2    1    2    0    0 -0.25223424067E+03 -0.61564966835E+02  0.47605093833E+03  0.54852571471E+03  0.82726093291E+02 0.  0.
         23    2    1    2    0    0  0.70396718797E+02  0.73744517189E+02  0.39164824352E+02  0.14347961205E+03  0.93051403938E+02 0.  0.
        -11    1    3    3    0    0 -0.18202860103E+03 -0.81509799398E+02  0.35399857515E+03  0.40631668708E+03  0.00000000000E+00 0.  1.
         12    1    3    3    0    0 -0.70205639643E+02  0.19944832564E+02  0.12205236318E+03  0.14220902763E+03  0.00000000000E+00 0. -1.
        -11    1    4    4    0    0  0.32213432903E+02  0.85123442745E+02  0.47664271938E+02  0.10274039412E+03  0.00000000000E+00 0. -1.
         11    1    4    4    0    0  0.38183285894E+02 -0.11378925556E+02 -0.84994475862E+01  0.40739217933E+02  0.00000000000E+00 0.  1.
         21    1    1    2  503  501  0.32800300794E+02  0.94227819292E+01  0.50832412878E+01  0.34503447559E+02  0.00000000000E+00 0. -1.
          1    1    1    2  501    0  0.14903722108E+03 -0.21602332284E+02  0.26894826418E+03  0.30824004093E+03  0.00000000000E+00 0. -1.
<scales pt_clust_5="13000.00000" pt_clust_6="13000.00000" pt_clust_7="13000.00000" pt_clust_8="13000.00000" pt_clust_9="34.12695" pt_clust_10="13000.00000"></scales>
<clustering>
<clus scale="   34.127">  2  9  1 -1</clus>
<clus scale="   82.726">  5  6 -1 -1</clus>
<clus scale="   93.051">  7  8 -1 -1</clus>
<clus scale="  156.272">  7 10 -1 -1</clus>
<clus scale="  261.626">  1  5  2 -1</clus>
<clus scale="   34.127">  2  5  1 -1</clus>
</clustering>
</event>
<event>
10    4  0.2759992E-005  0.1083017E+04  0.7546771E-02  0.9556716E-01
         -3   -1    0    0    0  501 -0.00000000000E+00  0.00000000000E+00  0.82730331587E+03  0.82730331587E+03  0.00000000000E+00 0.  1.
         21   -1    0    0  501  502  0.00000000000E+00 -0.00000000000E+00 -0.10108307436E+04  0.10108307436E+04  0.00000000000E+00 0.  1.
         24    2    1    2    0    0  0.22322366318E+03  0.22367453669E+03  0.15677909510E+03  0.36188926157E+03  0.80777786629E+02 0.  0.
         23    2    1    2    0    0 -0.13763018309E+03  0.21551224707E+03  0.39709362339E+03  0.48352301789E+03  0.10355465784E+03 0.  0.
        -11    1    3    3    0    0  0.11657115369E+03  0.15669218901E+03  0.64194615872E+02  0.20557778254E+03  0.00000000000E+00 0.  1.
         12    1    3    3    0    0  0.10665250949E+03  0.66982347682E+02  0.92584479230E+02  0.15631147903E+03  0.00000000000E+00 0. -1.
        -11    1    4    4    0    0 -0.11405122367E+03  0.91492006530E+02  0.17485379261E+03  0.22793051061E+03  0.00000000000E+00 0.  1.
         11    1    4    4    0    0 -0.23578959421E+02  0.12402024054E+03  0.22223983078E+03  0.25559250728E+03  0.00000000000E+00 0. -1.
         21    1    1    2  503  502 -0.49427570788E+02  0.47394261252E+02 -0.38450598119E+03  0.39055620636E+03  0.00000000000E+00 0. -1.
         -4    1    1    2    0  503 -0.36165909300E+02 -0.48658104501E+03 -0.35289416500E+03  0.60216557362E+03  0.00000000000E+00 0.  1.
<scales pt_clust_5="13000.00000" pt_clust_6="13000.00000" pt_clust_7="13000.00000" pt_clust_8="13000.00000" pt_clust_9="68.47847" pt_clust_10="13000.00000"></scales>
<clustering>
<clus scale="   68.478">  2  9  1 -1</clus>
<clus scale="   80.778">  5  6 -1 -1</clus>
<clus scale="  103.555">  7  8 -1 -1</clus>
<clus scale="  326.142">  1  5  2 -1</clus>
<clus scale="  405.762">  7 10 -1 -1</clus>
<clus scale="   68.478">  2  5  1 -1</clus>
</clustering>
</event>
<event>
10    4  0.2759992E-005  0.3206215E+03  0.7546771E-02  0.1112794E+00
          2   -1    0    0  502    0 -0.00000000000E+00  0.00000000000E+00  0.19883058341E+04  0.19883058341E+04  0.00000000000E+00 0. -1.
         21   -1    0    0  503  502  0.00000000000E+00 -0.00000000000E+00 -0.70682240264E+02  0.70682240264E+02  0.00000000000E+00 0. -1.
         24    2    1    2    0    0 -0.65786305004E+02 -0.62690791102E+02  0.14696168017E+04  0.14745986333E+04  0.80060053854E+02 0.  0.
         23    2    1    2    0    0  0.28686985852E+02 -0.12134617743E+03  0.25006760106E+03  0.29388807573E+03  0.91041518109E+02 0.  0.
        -13    1    3    3    0    0 -0.20289155710E+02 -0.36523393878E+01  0.69343523139E+02  0.72343027472E+02  0.00000000000E+00 0.  1.
         14    1    3    3    0    0 -0.45497149294E+02 -0.59038451714E+02  0.14002732786E+04  0.14022556058E+04  0.00000000000E+00 0. -1.
        -11    1    4    4    0    0  0.90394288856E+01 -0.97316603457E+02  0.96980922670E+02  0.13768635352E+03  0.00000000000E+00 0. -1.
         11    1    4    4    0    0  0.19647556966E+02 -0.24029573972E+02  0.15308667839E+03  0.15620172221E+03  0.00000000000E+00 0.  1.
         21    1    1    2  503  501  0.14051592214E+02  0.27247047173E+02 -0.69911458084E+01  0.31443996933E+02  0.00000000000E+00 0. -1.
          1    1    1    2  501    0  0.23047726938E+02  0.15678992136E+03  0.20493033686E+03  0.25905736840E+03  0.00000000000E+00 0. -1.
<scales pt_clust_5="13000.00000" pt_clust_6="13000.00000" pt_clust_7="13000.00000" pt_clust_8="13000.00000" pt_clust_9="30.65695" pt_clust_10="13000.00000"></scales>
<clustering>
<clus scale="   30.657">  2  9  1 -1</clus>
<clus scale="   80.060">  5  6 -1 -1</clus>
<clus scale="   91.042">  7  8 -1 -1</clus>
<clus scale="  120.062">  1  5  2 -1</clus>
<clus scale="  138.784">  7 10 -1 -1</clus>
<clus scale="   30.657">  2  5  1 -1</clus>
</clustering>
</event>
<event>
10    4  0.2759992E-005  0.1991058E+03  0.7546771E-02  0.1171455E+00
          2   -1    0    0  502    0 -0.00000000000E+00  0.00000000000E+00  0.13457697061E+03  0.13457697061E+03  0.00000000000E+00 0. -1.
         21   -1    0    0  503  502  0.00000000000E+00 -0.00000000000E+00 -0.22779622221E+03  0.22779622221E+03  0.00000000000E+00 0. -1.
         24    2    1    2    0    0 -0.66127206210E+02  0.71086161324E+02 -0.56861325965E+02  0.13791961660E+03  0.79765660025E+02 0.  0.
         23    2    1    2    0    0  0.73053986402E+01  0.15889154086E+02  0.64146802291E+01  0.95066462853E+02  0.93223656708E+02 0.  0.
        -11    1    3    3    0    0  0.15513115478E+02  0.14793643232E+02  0.36562817722E+01  0.21745735865E+02  0.00000000000E+00 0.  1.
         12    1    3    3    0    0 -0.81640321688E+02  0.56292518092E+02 -0.60517607737E+02  0.11617388073E+03  0.00000000000E+00 0. -1.
        -11    1    4    4    0    0 -0.32712399005E+02  0.10303528045E+02  0.32273990539E+02  0.47094311803E+02  0.00000000000E+00 0. -1.
         11    1    4    4    0    0  0.40017797645E+02  0.55856260414E+01 -0.25859310310E+02  0.47972151050E+02  0.00000000000E+00 0.  1.
         21    1    1    2  503  501  0.20091573270E+02  0.49630237299E+01 -0.15813499049E+02  0.26045530772E+02  0.00000000000E+00 0. -1.
          1    1    1    2  501    0  0.38730234300E+02 -0.91938339140E+02 -0.26959106813E+02  0.10334158259E+03  0.00000000000E+00 0. -1.
<scales pt_clust_5="13000.00000" pt_clust_6="13000.00000" pt_clust_7="13000.00000" pt_clust_8="13000.00000" pt_clust_9="20.69548" pt_clust_10="13000.00000"></scales>
<clustering>
<clus scale="   20.695">  2  9  1 -1</clus>
<clus scale="   79.766">  5  6 -1 -1</clus>
<clus scale="   93.224">  7  8 -1 -1</clus>
<clus scale="  100.985">  7 10 -1 -1</clus>
<clus scale="  122.331">  1  5  2 -1</clus>
<clus scale="   20.695">  2  5  1 -1</clus>
</clustering>
</event>
<event>
10    4  0.2759992E-005  0.2417591E+03  0.7546771E-02  0.1150307E+00
          2   -1    0    0  502    0 -0.00000000000E+00  0.00000000000E+00  0.10717489804E+03  0.10717489804E+03  0.00000000000E+00 0. -1.
         21   -1    0    0  503  502  0.00000000000E+00 -0.00000000000E+00 -0.46547118646E+03  0.46547118646E+03  0.00000000000E+00 0.  1.
         24    2    1    2    0    0  0.38347023492E+02  0.76779088143E+02 -0.24355533686E+03  0.27015220073E+03  0.79356706431E+02 0.  0.
         23    2    1    2    0    0  0.73492427903E+02 -0.35587818713E+02 -0.88943673289E+02  0.15135080800E+03  0.91260398119E+02 0.  0.
        -13    1    3    3    0    0  0.43974839799E+02  0.82032840028E+02 -0.15172030066E+03  0.17799500839E+03  0.00000000000E+00 0.  1.
         14    1    3    3    0    0 -0.56278163065E+01 -0.52537518848E+01 -0.91835036205E+02  0.92157192340E+02  0.00000000000E+00 0. -1.
        -13    1    4    4    0    0  0.28982791254E+02 -0.57955070991E+02 -0.76017790609E+02  0.99887421287E+02  0.00000000000E+00 0.  1.
         13    1    4    4    0    0  0.44509636649E+02  0.22367252278E+02 -0.12925882680E+02  0.51463386715E+02  0.00000000000E+00 0. -1.
         21    1    1    2  503  501 -0.23269565477E+02 -0.30541316407E+01 -0.46886497282E+02  0.52432280372E+02  0.00000000000E+00 0. -1.
          1    1    1    2  501    0 -0.88569885918E+02 -0.38137137789E+02  0.21089219019E+02  0.98710795403E+02  0.00000000000E+00 0. -1.
<scales pt_clust_5="13000.00000" pt_clust_6="13000.00000" pt_clust_7="13000.00000" pt_clust_8="13000.00000" pt_clust_9="23.46914" pt_clust_10="13000.00000"></scales>
<clustering>
<clus scale="   23.469">  2  9  1 -1</clus>
<clus scale="   79.357">  5  6 -1 -1</clus>
<clus scale="   91.260">  7  8 -1 -1</clus>
<clus scale="   98.541">  7 10 -1 -1</clus>
<clus scale="  111.719">  1  5  2 -1</clus>
<clus scale="   23.469">  2  5  1 -1</clus>
</clustering>
</event>
<event>
10    4  0.2759992E-005  0.3271092E+03  0.7546771E-02  0.1091613E+00
          2   -1    0    0  503    0 -0.00000000000E+00  0.00000000000E+00  0.65290902682E+03  0.65290902682E+03  0.00000000000E+00 0. -1.
         21   -1    0    0  501  502  0.00000000000E+00 -0.00000000000E+00 -0.15387511448E+03  0.15387511448E+03  0.00000000000E+00 0. -1.
         24    2    1    2    0    0  0.51042622983E+02  0.16795912414E+03  0.32655527866E+03  0.37981093860E+03  0.82476556175E+02 0.  0.
         23    2    1    2    0    0  0.73486323941E+02 -0.19130921658E+03  0.16492601530E+03  0.27846608242E+03  0.91341734061E+02 0.  0.
        -13    1    3    3    0    0  0.37158064052E+02  0.56746629301E+02  0.19781389764E+03  0.20912015627E+03  0.00000000000E+00 0.  1.
         14    1    3    3    0    0  0.13884558932E+02  0.11121249484E+03  0.12874138103E+03  0.17069078233E+03  0.00000000000E+00 0. -1.
        -13    1    4    4    0    0 -0.21539781679E+02 -0.29936184385E+02  0.31805188401E+02  0.48700178023E+02  0.00000000000E+00 0.  1.
         13    1    4    4    0    0  0.95026105620E+02 -0.16137303220E+03  0.13312082690E+03  0.22976590440E+03  0.00000000000E+00 0. -1.
         21    1    1    2  503  502 -0.22163862828E+02  0.14059791707E+02 -0.29279118473E+02  0.39321512393E+02  0.00000000000E+00 0. -1.
          1    1    1    2  501    0 -0.10236508410E+03  0.92903007350E+01  0.36831736843E+02  0.10918560788E+03  0.00000000000E+00 0. -1.
<scales pt_clust_5="13000.00000" pt_clust_6="13000.00000" pt_clust_7="13000.00000" pt_clust_8="13000.00000" pt_clust_9="26.24718" pt_clust_10="13000.00000"></scales>
<clustering>
<clus scale="   26.247">  2  9  1 -1</clus>
<clus scale="   82.477">  5  6 -1 -1</clus>
<clus scale="   91.342">  7  8 -1 -1</clus>
<clus scale="  109.908">  7 10 -1 -1</clus>
<clus scale="  195.448">  1  5  2 -1</clus>
<clus scale="   26.247">  2  5  1 -1</clus>
</clustering>
</event>
<event>
10    4  0.2759992E-005  0.3097177E+03  0.7546771E-02  0.1109105E+00
          2   -1    0    0  503    0 -0.00000000000E+00  0.00000000000E+00  0.17163315670E+04  0.17163315670E+04  0.00000000000E+00 0. -1.
         21   -1    0    0  501  502  0.00000000000E+00 -0.00000000000E+00 -0.43332541652E+02  0.43332541652E+02  0.00000000000E+00 0.  1.
         24    2    1    2    0    0 -0.24906552749E+02 -0.11032710069E+03  0.38480008421E+03  0.40944284087E+03  0.82340328011E+02 0.  0.
         23    2    1    2    0    0  0.48973904406E+02 -0.59886604181E+02  0.40891470550E+03  0.42578099247E+03  0.89963150779E+02 0.  0.
        -13    1    3    3    0    0 -0.47069248192E+02 -0.28275759567E+02  0.15117865760E+03  0.16084159666E+03  0.00000000000E+00 0.  1.
         14    1    3    3    0    0  0.22162695443E+02 -0.82051341124E+02  0.23362142661E+03  0.24860124421E+03  0.00000000000E+00 0. -1.
        -13    1    4    4    0    0  0.10041399274E+01 -0.69110297741E+02  0.26169941514E+03  0.27067291227E+03  0.00000000000E+00 0. -1.
         13    1    4    4    0    0  0.47969764479E+02  0.92236935602E+01  0.14721529036E+03  0.15510808020E+03  0.00000000000E+00 0.  1.
         21    1    1    2  503  502  0.38005676810E+01 -0.21042281756E+02 -0.26771766094E+01  0.21549691663E+02  0.00000000000E+00 0. -1.
          1    1    1    2  501    0 -0.27867919338E+02  0.19125598663E+03  0.88196141220E+03  0.90289058360E+03  0.00000000000E+00 0. -1.
<scales pt_clust_5="13000.00000" pt_clust_6="13000.00000" pt_clust_7="13000.00000" pt_clust_8="13000.00000" pt_clust_9="21.38275" pt_clust_10="13000.00000"></scales>
<clustering>
<clus scale="   21.383">  2  9  1 -1</clus>
<clus scale="   82.340">  5  6 -1 -1</clus>
<clus scale="   89.963">  7  8 -1 -1</clus>
<clus scale="  146.292">  1  5  2 -1</clus>
<clus scale="  114.967">  7 10 -1 -1</clus>
<clus scale="   21.383">  2  5  1 -1</clus>
</clustering>
</event>
<event>
10    4  0.2759992E-005  0.3785407E+03  0.7546771E-02  0.1101276E+00
          2   -1    0    0  503    0 -0.00000000000E+00  0.00000000000E+00  0.82768908972E+03  0.82768908972E+03  0.00000000000E+00 0. -1.
         21   -1    0    0  501  502  0.00000000000E+00 -0.00000000000E+00 -0.11695692038E+03  0.11695692038E+03  0.00000000000E+00 0. -1.
         24    2    1    2    0    0  0.58358662500E+02  0.62159659222E+01  0.31196199758E+03  0.32725373596E+03  0.79563484375E+02 0.  0.
         23    2    1    2    0    0  0.42917393769E+02 -0.80779338646E+02  0.45387323408E+03  0.47157228587E+03  0.89511473838E+02 0.  0.
        -13    1    3    3    0    0  0.35972172708E+02 -0.33027354031E+02  0.21206566570E+03  0.21761583098E+03  0.00000000000E+00 0.  1.
         14    1    3    3    0    0  0.22386489792E+02  0.39243319953E+02  0.99896331883E+02  0.10963790499E+03  0.00000000000E+00 0. -1.
        -11    1    4    4    0    0  0.51049828090E+02 -0.24880291526E+02  0.33714507117E+03  0.34189459321E+03  0.00000000000E+00 0. -1.
         11    1    4    4    0    0 -0.81324343213E+01 -0.55899047120E+02  0.11672816291E+03  0.12967769266E+03  0.00000000000E+00 0.  1.
         21    1    1    2  503  502 -0.17676789369E+02  0.18061775113E+02 -0.34614474806E+02  0.42858586872E+02  0.00000000000E+00 0. -1.
          1    1    1    2  501    0 -0.83599266901E+02  0.56501597611E+02 -0.20488587504E+02  0.10296140139E+03  0.00000000000E+00 0. -1.
<scales pt_clust_5="13000.00000" pt_clust_6="13000.00000" pt_clust_7="13000.00000" pt_clust_8="13000.00000" pt_clust_9="25.27245" pt_clust_10="13000.00000"></scales>
<clustering>
<clus scale="   25.272">  2  9  1 -1</clus>
<clus scale="   79.563">  5  6 -1 -1</clus>
<clus scale="   89.511">  7  8 -1 -1</clus>
<clus scale="   97.985">  1  5  2 -1</clus>
<clus scale="  115.532">  7 10 -1 -1</clus>
<clus scale="   25.272">  2  5  1 -1</clus>
</clustering>
</event>
<event>
10    4  0.2759992E-005  0.1733076E+04  0.7546771E-02  0.9292237E-01
          2   -1    0    0  502    0 -0.00000000000E+00  0.00000000000E+00  0.85180505333E+03  0.85180505333E+03  0.00000000000E+00 0. -1.
         21   -1    0    0  503  502  0.00000000000E+00 -0.00000000000E+00 -0.14096900039E+04  0.14096900039E+04  0.00000000000E+00 0. -1.
         24    2    1    2    0    0  0.16721136285E+03 -0.66315054117E+02 -0.11574159982E+03  0.22807961176E+03  0.79163533928E+02 0.  0.
         23    2    1    2    0    0  0.29114938877E+03  0.68999906352E+02 -0.84262006709E+03  0.89871509289E+03  0.90284478596E+02 0.  0.
        -11    1    3    3    0    0  0.11428776924E+03 -0.89995748231E+01 -0.46301229968E+02  0.12363854756E+03  0.00000000000E+00 0.  1.
         12    1    3    3    0    0  0.52923593605E+02 -0.57315479294E+02 -0.69440369854E+02  0.10444106420E+03  0.00000000000E+00 0. -1.
        -11    1    4    4    0    0  0.37931172342E+02 -0.16006029034E+01 -0.21403384330E+03  0.21737484179E+03  0.00000000000E+00 0.  1.
         11    1    4    4    0    0  0.25321821643E+03  0.70600509255E+02 -0.62858622379E+03  0.68134025111E+03  0.00000000000E+00 0. -1.
         21    1    1    2  503  501  0.42225143103E+02 -0.35658355583E+02 -0.28217493967E+03  0.28753639354E+03  0.00000000000E+00 0. -1.
          1    1    1    2  501    0 -0.50058589472E+03  0.32973503348E+02  0.68265165605E+03  0.84716395900E+03  0.00000000000E+00 0. -1.
<scales pt_clust_5="13000.00000" pt_clust_6="13000.00000" pt_clust_7="13000.00000" pt_clust_8="13000.00000" pt_clust_9="55.26736" pt_clust_10="13000.00000"></scales>
<clustering>
<clus scale="   55.267">  2  9  1 -1</clus>
<clus scale="   79.164">  5  6 -1 -1</clus>
<clus scale="   90.284">  7  8 -1 -1</clus>
<clus scale="  203.903">  1  5  2 -1</clus>
<clus scale="  333.850">  7 10 -1 -1</clus>
<clus scale="   55.267">  2  5  1 -1</clus>
</clustering>
</event>
<event>
10    4  0.2759992E-005  0.2610870E+03  0.7546771E-02  0.1149193E+00
          2   -1    0    0  503    0 -0.00000000000E+00  0.00000000000E+00  0.94263987001E+03  0.94263987001E+03  0.00000000000E+00 0. -1.
         21   -1    0    0  501  502  0.00000000000E+00 -0.00000000000E+00 -0.42826121736E+02  0.42826121736E+02  0.00000000000E+00 0. -1.
         24    2    1    2    0    0  0.18221620641E+02 -0.35517518880E+02  0.24664332758E+03  0.26251799710E+03  0.80555857348E+02 0.  0.
         23    2    1    2    0    0  0.58162544839E+02  0.45269230690E+02  0.54457568099E+03  0.55698264783E+03  0.90745869245E+02 0.  0.
        -13    1    3    3    0    0  0.29766769080E+01 -0.59916093140E+02  0.18517919993E+03  0.19465388491E+03  0.00000000000E+00 0.  1.
         14    1    3    3    0    0  0.15244943733E+02  0.24398574260E+02  0.61464127653E+02  0.67864112191E+02  0.00000000000E+00 0. -1.
        -11    1    4    4    0    0  0.61948220058E+02 -0.65518870603E+01  0.23705018743E+03  0.24509855274E+03  0.00000000000E+00 0. -1.
         11    1    4    4    0    0 -0.37856752184E+01  0.51821117751E+02  0.30752549356E+03  0.31188409509E+03  0.00000000000E+00 0.  1.
         21    1    1    2  503  502  0.21545152946E+02  0.17012707920E-01  0.32276422648E+01  0.21785581917E+02  0.00000000000E+00 0. -1.
          1    1    1    2  501    0 -0.97929318426E+02 -0.97687245182E+01  0.10536709744E+03  0.14417976491E+03  0.00000000000E+00 0. -1.
<scales pt_clust_5="13000.00000" pt_clust_6="13000.00000" pt_clust_7="13000.00000" pt_clust_8="13000.00000" pt_clust_9="21.54516" pt_clust_10="13000.00000"></scales>
<clustering>
<clus scale="   21.545">  2  9  1 -1</clus>
<clus scale="   80.556">  5  6 -1 -1</clus>
<clus scale="   90.746">  7  8 -1 -1</clus>
<clus scale="   86.021">  7 10 -1 -1</clus>
<clus scale="   91.073">  1  5  2 -1</clus>
<clus scale="   21.545">  2  5  1 -1</clus>
</clustering>
</event>
<event>
10    4  0.2759992E-005  0.6471495E+03  0.7546771E-02  0.1001782E+00
         21   -1    0    0  501  502  0.00000000000E+00  0.00000000000E+00  0.13756420635E+04  0.13756420635E+04  0.00000000000E+00 0. -1.
          2   -1    0    0  503    0 -0.00000000000E+00 -0.00000000000E+00 -0.60560072440E+03  0.60560072440E+03  0.00000000000E+00 0. -1.
         24    2    1    2    0    0  0.29395183581E+03 -0.13980300622E+03 -0.17394215564E+03  0.37710115372E+03  0.77439294298E+02 0.  0.
         23    2    1    2    0    0 -0.41195762630E+02 -0.19228106638E+01 -0.11700884038E+02  0.99068277698E+02  0.89313072387E+02 0.  0.
        -11    1    3    3    0    0  0.11572546672E+02 -0.25846097150E+02 -0.46465347071E+01  0.28697297070E+02  0.00000000000E+00 0.  1.
         12    1    3    3    0    0  0.28237928914E+03 -0.11395690907E+03 -0.16929562093E+03  0.34840385665E+03  0.00000000000E+00 0. -1.
        -13    1    4    4    0    0 -0.52435865468E+01  0.38469492117E+02 -0.21091151339E+02  0.44184088635E+02  0.00000000000E+00 0.  1.
         13    1    4    4    0    0 -0.35952176084E+02 -0.40392302781E+02  0.93902673015E+01  0.54884189063E+02  0.00000000000E+00 0. -1.
         21    1    1    2  503  502 -0.38173950657E+03  0.53124533122E+03  0.27360819347E+03  0.70908962505E+03  0.00000000000E+00 0. -1.
          1    1    1    2  501    0  0.12898343339E+03 -0.38951951433E+03  0.68207618535E+03  0.79598373146E+03  0.00000000000E+00 0. -1.
<scales pt_clust_5="13000.00000" pt_clust_6="13000.00000" pt_clust_7="13000.00000" pt_clust_8="13000.00000" pt_clust_9="477.51582" pt_clust_10="13000.00000"></scales>
<clustering>
<clus scale="   77.439">  5  6 -1 -1</clus>
<clus scale="   89.313">  7  8 -1 -1</clus>
<clus scale="  334.588">  2  5  1 -1</clus>
<clus scale="  450.991">  7 10 -1 -1</clus>
<clus scale="  477.516">  1  9  2 -1</clus>
<clus scale="  477.516">  1  5  2 -1</clus>
</clustering>
</event>
<event>
10    4  0.2759992E-005  0.2863147E+03  0.7546771E-02  0.1118020E+00
          2   -1    0    0  503    0 -0.00000000000E+00  0.00000000000E+00  0.99965566239E+02  0.99965566239E+02  0.00000000000E+00 0. -1.
         21   -1    0    0  501  502  0.00000000000E+00 -0.00000000000E+00 -0.71687103393E+03  0.71687103393E+03  0.00000000000E+00 0. -1.
         24    2    1    2    0    0  0.98489754591E+02  0.38856753482E+02 -0.38880092102E+03  0.41084989396E+03  0.80133639220E+02 0.  0.
         23    2    1    2    0    0  0.33447569605E+02  0.86411842777E+00 -0.13444140238E+03  0.16630796744E+03  0.92001971426E+02 0.  0.
        -11    1    3    3    0    0  0.43578926290E+02 -0.18150187088E+02 -0.21116553818E+03  0.21637799478E+03  0.00000000000E+00 0.  1.
         12    1    3    3    0    0  0.54910828300E+02  0.57006940570E+02 -0.17763538283E+03  0.19447189918E+03  0.00000000000E+00 0. -1.
        -13    1    4    4    0    0 -0.13555092866E+02  0.14964154417E+02  0.29600358969E+01  0.20406574248E+02  0.00000000000E+00 0. -1.
         13    1    4    4    0    0  0.47002662471E+02 -0.14100035989E+02 -0.13740143828E+03  0.14590139319E+03  0.00000000000E+00 0.  1.
         21    1    1    2  503  502  0.20850255167E+02  0.26355035392E+02 -0.61578461355E+02  0.70151464232E+02  0.00000000000E+00 0. -1.
          1    1    1    2  501    0 -0.15278757936E+03 -0.66075907301E+02 -0.32084682940E+02  0.16952727454E+03  0.00000000000E+00 0. -1.
<scales pt_clust_5="13000.00000" pt_clust_6="13000.00000" pt_clust_7="13000.00000" pt_clust_8="13000.00000" pt_clust_9="33.60537" pt_clust_10="13000.00000"></scales>
<clustering>
<clus scale="   33.605">  2  9  1 -1</clus>
<clus scale="   80.134">  5  6 -1 -1</clus>
<clus scale="   92.002">  7  8 -1 -1</clus>
<clus scale="  147.776">  1  5  2 -1</clus>
<clus scale="   65.102">  7 10 -1 -1</clus>
<clus scale="   33.605">  2  5  1 -1</clus>
</clustering>
</event>
<event>
10    4  0.3559424E-005  0.1936261E+03  0.7546771E-02  0.1175885E+00
         21   -1    0    0  503  502  0.00000000000E+00  0.00000000000E+00  0.23401725736E+03  0.23401725736E+03  0.00000000000E+00 0.  1.
         -1   -1    0    0    0  501 -0.00000000000E+00 -0.00000000000E+00 -0.61401288510E+03  0.61401288510E+03  0.00000000000E+00 0.  1.
         24    2    1    2    0    0  0.53883662352E+02  0.58685156401E+02 -0.34689418900E+03  0.36517760240E+03  0.81680513472E+02 0.  0.
         23    2    1    2    0    0  0.19236952924E+02 -0.46522860828E+02 -0.11046777808E+03  0.15198940146E+03  0.91450594456E+02 0.  0.
        -11    1    3    3    0    0  0.49405193420E+02  0.73499726322E+02 -0.33232259137E+03  0.34392061241E+03  0.00000000000E+00 0.  1.
         12    1    3    3    0    0  0.44784689327E+01 -0.14814569921E+02 -0.14571597637E+02  0.21256989994E+02  0.00000000000E+00 0. -1.
        -13    1    4    4    0    0 -0.63528631032E+01 -0.31539952584E+02 -0.11723834518E+03  0.12157284672E+03  0.00000000000E+00 0.  1.
         13    1    4    4    0    0  0.25589816027E+02 -0.14982908244E+02  0.67705671011E+01  0.30416554746E+02  0.00000000000E+00 0. -1.
         21    1    1    2  503  501  0.18969205323E+02  0.53796519239E+02  0.17328539844E+03  0.18243279734E+03  0.00000000000E+00 0.  1.
         -2    1    1    2    0  502 -0.92089820599E+02 -0.65958814813E+02 -0.95919059093E+02  0.14843034126E+03  0.00000000000E+00 0.  1.
<scales pt_clust_5="13000.00000" pt_clust_6="13000.00000" pt_clust_7="13000.00000" pt_clust_8="13000.00000" pt_clust_9="57.04293" pt_clust_10="13000.00000"></scales>
<clustering>
<clus scale="   57.043">  1  9  2 -1</clus>
<clus scale="   81.681">  5  6 -1 -1</clus>
<clus scale="   91.451">  7  8 -1 -1</clus>
<clus scale="   92.688">  7 10 -1 -1</clus>
<clus scale="  120.274">  2  5  1 -1</clus>
<clus scale="   57.043">  1  5  2 -1</clus>
</clustering>
</event>
<event>
10    4  0.2759992E-005  0.2189402E+03  0.7546771E-02  0.1163574E+00
          2   -1    0    0  502    0 -0.00000000000E+00  0.00000000000E+00  0.88780600021E+02  0.88780600021E+02  0.00000000000E+00 0. -1.
         21   -1    0    0  503  502  0.00000000000E+00 -0.00000000000E+00 -0.88330830484E+03  0.88330830484E+03  0.00000000000E+00 0. -1.
         24    2    1    2    0    0  0.29079858308E+02  0.69146293665E+02  0.25352168427E+02  0.11293101162E+03  0.80522250678E+02 0.  0.
         23    2    1    2    0    0  0.22496398099E+01  0.15662932143E+02 -0.16219016879E+03  0.18713758308E+03  0.92002368587E+02 0.  0.
        -11    1    3    3    0    0  0.40915383853E+02  0.28602330218E+02 -0.17368334532E+02  0.52856607668E+02  0.00000000000E+00 0.  1.
         12    1    3    3    0    0 -0.11835525545E+02  0.40543963446E+02  0.42720502959E+02  0.60074403950E+02  0.00000000000E+00 0. -1.
        -11    1    4    4    0    0 -0.41395787898E+02  0.13357462994E+02 -0.11432406856E+03  0.12231935957E+03  0.00000000000E+00 0.  1.
         11    1    4    4    0    0  0.43645427708E+02  0.23054691490E+01 -0.47866100235E+02  0.64818223514E+02  0.00000000000E+00 0. -1.
         21    1    1    2  503  501 -0.28532413231E+02  0.17614795217E+02 -0.11711472826E+03  0.12182052041E+03  0.00000000000E+00 0.  1.
          1    1    1    2  501    0 -0.27970848868E+01 -0.10242402103E+03 -0.54057497619E+03  0.55019978976E+03  0.00000000000E+00 0. -1.
<scales pt_clust_5="13000.00000" pt_clust_6="13000.00000" pt_clust_7="13000.00000" pt_clust_8="13000.00000" pt_clust_9="33.53177" pt_clust_10="13000.00000"></scales>
<clustering>
<clus scale="   33.532">  2  9  1 -1</clus>
<clus scale="   80.522">  5  6 -1 -1</clus>
<clus scale="   92.002">  7  8 -1 -1</clus>
<clus scale="   92.786">  7 10 -1 -1</clus>
<clus scale="  110.267">  1  5  2 -1</clus>
<clus scale="   33.532">  2  5  1 -1</clus>
</clustering>
</event>
<event>
10    4  0.2759992E-005  0.2020869E+03  0.7546771E-02  0.1180707E+00
         -1   -1    0    0    0  501 -0.00000000000E+00  0.00000000000E+00  0.38848615164E+03  0.38848615164E+03  0.00000000000E+00 0.  1.
         21   -1    0    0  503  502  0.00000000000E+00 -0.00000000000E+00 -0.13082520839E+03  0.13082520839E+03  0.00000000000E+00 0. -1.
         24    2    1    2    0    0  0.29137192873E+02  0.47194092912E+02  0.19217050943E+03  0.21570623241E+03  0.80767664251E+02 0.  0.
         23    2    1    2    0    0 -0.18249265016E-01  0.61592875630E+00 -0.14624923339E+02  0.91032361294E+02  0.89847775258E+02 0.  0.
        -13    1    3    3    0    0 -0.43357236370E+00  0.59178617896E+02  0.15911228168E+03  0.16976164167E+03  0.00000000000E+00 0.  1.
         14    1    3    3    0    0  0.29570765237E+02 -0.11984524984E+02  0.33058227757E+02  0.45944590740E+02  0.00000000000E+00 0. -1.
        -13    1    4    4    0    0  0.93296304485E+01  0.27402008168E+02  0.27709015550E+02  0.40071206604E+02  0.00000000000E+00 0.  1.
         13    1    4    4    0    0 -0.93478797135E+01 -0.26786079412E+02 -0.42333938889E+02  0.50961154689E+02  0.00000000000E+00 0. -1.
         21    1    1    2  503  501 -0.12600122714E+02 -0.29332054684E+02 -0.61239781816E+02  0.69061156964E+02  0.00000000000E+00 0. -1.
         -2    1    1    2    0  502 -0.16518820894E+02 -0.18477966983E+02  0.14135513897E+03  0.14351160936E+03  0.00000000000E+00 0.  1.
<scales pt_clust_5="13000.00000" pt_clust_6="13000.00000" pt_clust_7="13000.00000" pt_clust_8="13000.00000" pt_clust_9="31.92386" pt_clust_10="13000.00000"></scales>
<clustering>
<clus scale="   31.924">  2  9  1 -1</clus>
<clus scale="   80.768">  5  6 -1 -1</clus>
<clus scale="   89.848">  7  8 -1 -1</clus>
<clus scale="   25.283">  7 10 -1 -1</clus>
<clus scale="   94.893">  1  5  2 -1</clus>
<clus scale="   31.924">  2  5  1 -1</clus>
</clustering>
</event>
<event>
10    4  0.2759992E-005  0.4198966E+03  0.7546771E-02  0.1091074E+00
          2   -1    0    0  503    0 -0.00000000000E+00  0.00000000000E+00  0.49299120331E+03  0.49299120331E+03  0.00000000000E+00 0. -1.
         21   -1    0    0  501  502  0.00000000000E+00 -0.00000000000E+00 -0.43108884639E+03  0.43108884639E+03  0.00000000000E+00 0. -1.
         24    2    1    2    0    0  0.33556864961E+02  0.36861245219E+02  0.17509373024E+03  0.19983242577E+03  0.82403697940E+02 0.  0.
         23    2    1    2    0    0  0.90530763562E+02  0.28880077342E+02 -0.10626772329E+03  0.16940753975E+03  0.91521623087E+02 0.  0.
        -11    1    3    3    0    0  0.32560879364E+02 -0.18158315233E+02  0.44084558375E+02  0.57735461929E+02  0.00000000000E+00 0.  1.
         12    1    3    3    0    0  0.99598559739E+00  0.55019560453E+02  0.13100917186E+03  0.14209696384E+03  0.00000000000E+00 0. -1.
        -13    1    4    4    0    0  0.66513846809E+02  0.54619559558E+02 -0.10274200362E+03  0.13402726369E+03  0.00000000000E+00 0. -1.
         13    1    4    4    0    0  0.24016916753E+02 -0.25739482216E+02 -0.35257196710E+01  0.35380276063E+02  0.00000000000E+00 0.  1.
         21    1    1    2  503  502 -0.37746200993E+02 -0.55029839440E+02 -0.26980529203E+03  0.27793516245E+03  0.00000000000E+00 0. -1.
          1    1    1    2  501    0 -0.86341427530E+02 -0.10711483122E+02  0.26288164200E+03  0.27690492173E+03  0.00000000000E+00 0. -1.
<scales pt_clust_5="13000.00000" pt_clust_6="13000.00000" pt_clust_7="13000.00000" pt_clust_8="13000.00000" pt_clust_9="66.73124" pt_clust_10="13000.00000"></scales>
<clustering>
<clus scale="   66.731">  2  9  1 -1</clus>
<clus scale="   82.404">  5  6 -1 -1</clus>
<clus scale="   91.522">  7  8 -1 -1</clus>
<clus scale="   89.004">  7 10 -1 -1</clus>
<clus scale="   93.724">  1  5  2 -1</clus>
<clus scale="   66.731">  2  5  1 -1</clus>
</clustering>
</event>
<event>
10    4  0.2759992E-005  0.1611401E+03  0.7546771E-02  0.1208501E+00
          2   -1    0    0  502    0 -0.00000000000E+00  0.00000000000E+00  0.49041461558E+03  0.49041461558E+03  0.00000000000E+00 0. -1.
         21   -1    0    0  503  502  0.00000000000E+00 -0.00000000000E+00 -0.90547682952E+02  0.90547682952E+02  0.00000000000E+00 0. -1.
         24    2    1    2    0    0 -0.38982371118E+02  0.56678952459E+02  0.14680735002E+03  0.17950801091E+03  0.77062306299E+02 0.  0.
         23    2    1    2    0    0  0.41371081867E+01 -0.17236265318E+02  0.97587865318E+02  0.13212748670E+03  0.87293051148E+02 0.  0.
        -13    1    3    3    0    0  0.58601631711E+01  0.22873385083E+02  0.10966642699E+03  0.11217958132E+03  0.00000000000E+00 0.  1.
         14    1    3    3    0    0 -0.44842534289E+02  0.33805567375E+02  0.37140923027E+02  0.67328429585E+02  0.00000000000E+00 0. -1.
        -11    1    4    4    0    0  0.31630604810E+02 -0.41581621124E+02  0.60467695561E+02  0.79911629832E+02  0.00000000000E+00 0. -1.
         11    1    4    4    0    0 -0.27493496624E+02  0.24345355806E+02  0.37120169757E+02  0.52215856870E+02  0.00000000000E+00 0.  1.
         21    1    1    2  503  501  0.37561408604E+02  0.13363015871E+02 -0.46092779412E+02  0.60942381996E+02  0.00000000000E+00 0. -1.
          1    1    1    2  501    0 -0.27161456721E+01 -0.52805703011E+02  0.20156449670E+03  0.20838441892E+03  0.00000000000E+00 0. -1.
<scales pt_clust_5="13000.00000" pt_clust_6="13000.00000" pt_clust_7="13000.00000" pt_clust_8="13000.00000" pt_clust_9="39.86765" pt_clust_10="13000.00000"></scales>
<clustering>
<clus scale="   39.868">  2  9  1 -1</clus>
<clus scale="   77.062">  5  6 -1 -1</clus>
<clus scale="   87.293">  7  8 -1 -1</clus>
<clus scale="   51.581">  7 10 -1 -1</clus>
<clus scale="  101.767">  1  5  2 -1</clus>
<clus scale="   39.868">  2  5  1 -1</clus>
</clustering>
</event>
<event>
10    4  0.2759992E-005  0.5052947E+03  0.7546771E-02  0.1065946E+00
          2   -1    0    0  502    0 -0.00000000000E+00  0.00000000000E+00  0.29041856410E+03  0.29041856410E+03  0.00000000000E+00 0. -1.
         21   -1    0    0  503  502  0.00000000000E+00 -0.00000000000E+00 -0.41100254239E+03  0.41100254239E+03  0.00000000000E+00 0. -1.
         24    2    1    2    0    0  0.70318574683E+02  0.92006930514E+01  0.51258798804E+02  0.12043226922E+03  0.82747279812E+02 0.  0.
         23    2    1    2    0    0 -0.18920992818E+03 -0.11592920880E+03 -0.19199360769E+03  0.30760734981E+03  0.92307951385E+02 0.  0.
        -11    1    3    3    0    0  0.30427191755E+01  0.35184414156E+02  0.75892517725E+01  0.36121986130E+02  0.00000000000E+00 0.  1.
         12    1    3    3    0    0  0.67275855507E+02 -0.25983721104E+02  0.43669547031E+02  0.84310283089E+02  0.00000000000E+00 0. -1.
        -11    1    4    4    0    0 -0.11831713446E+03 -0.11852868791E+03 -0.15201094638E+03  0.22617542304E+03  0.00000000000E+00 0. -1.
         11    1    4    4    0    0 -0.70892793713E+02  0.25994791168E+01 -0.39982661306E+02  0.81431926768E+02  0.00000000000E+00 0.  1.
         21    1    1    2  503  501 -0.46737480581E+02 -0.24778518987E+02 -0.22753965533E+02  0.57585675664E+02  0.00000000000E+00 0. -1.
          1    1    1    2  501    0  0.16562883407E+03  0.13150703473E+03  0.42904796133E+02  0.21579581180E+03  0.00000000000E+00 0. -1.
<scales pt_clust_5="13000.00000" pt_clust_6="13000.00000" pt_clust_7="13000.00000" pt_clust_8="13000.00000" pt_clust_9="52.89959" pt_clust_10="13000.00000"></scales>
<clustering>
<clus scale="   52.900">  2  9  1 -1</clus>
<clus scale="   82.747">  5  6 -1 -1</clus>
<clus scale="   92.308">  7  8 -1 -1</clus>
<clus scale="  106.044">  1  5  2 -1</clus>
<clus scale="  232.799">  7 10 -1 -1</clus>
<clus scale="   52.900">  2  5  1 -1</clus>
</clustering>
</event>
<event>
10    4  0.2759992E-005  0.2921188E+03  0.7546771E-02  0.1137524E+00
         21   -1    0    0  501  502  0.00000000000E+00  0.00000000000E+00  0.11514483755E+03  0.11514483755E+03  0.00000000000E+00 0. -1.
          2   -1    0    0  503    0 -0.00000000000E+00 -0.00000000000E+00 -0.68975565538E+03  0.68975565538E+03  0.00000000000E+00 0. -1.
         24    2    1    2    0    0 -0.24346729435E+02  0.16975983549E+02 -0.23117279413E+03  0.24665638660E+03  0.80731437825E+02 0.  0.
         23    2    1    2    0    0 -0.10392818751E+03 -0.41053748290E+02 -0.20627497345E+03  0.25182730334E+03  0.91548607992E+02 0.  0.
        -13    1    3    3    0    0  0.27945921735E+02  0.55121822361E+01 -0.11902989029E+03  0.12239065927E+03  0.00000000000E+00 0.  1.
         14    1    3    3    0    0 -0.52292651169E+02  0.11463801312E+02 -0.11214290384E+03  0.12426572733E+03  0.00000000000E+00 0. -1.
        -11    1    4    4    0    0 -0.33874844713E+02 -0.47747124415E+02 -0.38977785819E+02  0.70331790690E+02  0.00000000000E+00 0.  1.
         11    1    4    4    0    0 -0.70053342798E+02  0.66933761257E+01 -0.16729718763E+03  0.18149551265E+03  0.00000000000E+00 0. -1.
         21    1    1    2  503  502  0.91330338056E+02  0.10674320645E+03 -0.16011524608E+03  0.21300759330E+03  0.00000000000E+00 0. -1.
          1    1    1    2  501    0  0.36944578890E+02 -0.82665441710E+02  0.22952195833E+02  0.93409209696E+02  0.00000000000E+00 0. -1.
<scales pt_clust_5="13000.00000" pt_clust_6="13000.00000" pt_clust_7="13000.00000" pt_clust_8="13000.00000" pt_clust_9="139.80568" pt_clust_10="13000.00000"></scales>
<clustering>
<clus scale="   80.731">  5  6 -1 -1</clus>
<clus scale="   86.015">  2  5  1 -1</clus>
<clus scale="   91.549">  7  8 -1 -1</clus>
<clus scale="   88.566">  7 10 -1 -1</clus>
<clus scale="  139.806">  1  9  2 -1</clus>
<clus scale="  139.806">  1  5  2 -1</clus>
</clustering>
</event>
<event>
10    4  0.2759992E-005  0.3513696E+03  0.7546771E-02  0.1107012E+00
          2   -1    0    0  502    0 -0.00000000000E+00  0.00000000000E+00  0.62491050832E+03  0.62491050832E+03  0.00000000000E+00 0. -1.
         21   -1    0    0  503  502  0.00000000000E+00 -0.00000000000E+00 -0.26619540309E+03  0.26619540309E+03  0.00000000000E+00 0. -1.
         24    2    1    2    0    0  0.32024663074E+02 -0.51886203229E+02  0.78481516726E+02  0.12784795519E+03  0.80423840054E+02 0.  0.
         23    2    1    2    0    0 -0.52461870439E+02 -0.18676386046E+02  0.46723116350E+03  0.47949442379E+03  0.92243628847E+02 0.  0.
        -11    1    3    3    0    0 -0.23970158961E+02 -0.10405514756E+02  0.50508910048E+01  0.26614934866E+02  0.00000000000E+00 0.  1.
         12    1    3    3    0    0  0.55994822035E+02 -0.41480688473E+02  0.73430625722E+02  0.10123302033E+03  0.00000000000E+00 0. -1.
        -13    1    4    4    0    0 -0.78708040987E+02 -0.70014423941E+01  0.34062875460E+03  0.34967402588E+03  0.00000000000E+00 0.  1.
         13    1    4    4    0    0  0.26246170548E+02 -0.11674943652E+02  0.12660240889E+03  0.12982039792E+03  0.00000000000E+00 0. -1.
         21    1    1    2  503  501  0.19551119619E+01 -0.29282413317E+02 -0.17956855095E+03  0.18195094582E+03  0.00000000000E+00 0. -1.
          1    1    1    2  501    0  0.18482095403E+02  0.99845002592E+02 -0.74290240474E+01  0.10181258661E+03  0.00000000000E+00 0. -1.
<scales pt_clust_5="13000.00000" pt_clust_6="13000.00000" pt_clust_7="13000.00000" pt_clust_8="13000.00000" pt_clust_9="29.34761" pt_clust_10="13000.00000"></scales>
<clustering>
<clus scale="   29.348">  2  9  1 -1</clus>
<clus scale="   80.424">  5  6 -1 -1</clus>
<clus scale="   92.244">  7  8 -1 -1</clus>
<clus scale="   83.489">  7 10 -1 -1</clus>
<clus scale="  105.696">  1  5  2 -1</clus>
<clus scale="   29.348">  2  5  1 -1</clus>
</clustering>
</event>
<event>
10    4  0.2759992E-005  0.2176536E+03  0.7546771E-02  0.1153633E+00
         21   -1    0    0  503  502  0.00000000000E+00  0.00000000000E+00  0.17686634732E+03  0.17686634732E+03  0.00000000000E+00 0. -1.
         -1   -1    0    0    0  501 -0.00000000000E+00 -0.00000000000E+00 -0.37285986885E+03  0.37285986885E+03  0.00000000000E+00 0.  1.
         24    2    1    2    0    0 -0.92315371343E+01 -0.10354733387E+03 -0.69015743603E+02  0.14826524718E+03  0.80075832966E+02 0.  0.
         23    2    1    2    0    0 -0.62560274459E+02  0.79753366867E+02 -0.14631574939E+03  0.19648275799E+03  0.83203294402E+02 0.  0.
        -13    1    3    3    0    0  0.19767457973E+02  0.35825904083E+01 -0.80943198599E+01  0.21658840291E+02  0.00000000000E+00 0.  1.
         14    1    3    3    0    0 -0.28998995107E+02 -0.10712992428E+03 -0.60921423743E+02  0.12660640688E+03  0.00000000000E+00 0. -1.
        -11    1    4    4    0    0 -0.38312678114E+02  0.75794935090E+02 -0.53278735975E+02  0.10025645713E+03  0.00000000000E+00 0. -1.
         11    1    4    4    0    0 -0.24247596345E+02  0.39584317766E+01 -0.93037013420E+02  0.96226300857E+02  0.00000000000E+00 0.  1.
         21    1    1    2  503  501 -0.53550237587E+01 -0.28132927899E+02  0.85944892123E+02  0.90590630827E+02  0.00000000000E+00 0. -1.
         -2    1    1    2    0  502  0.77146835352E+02  0.51926894904E+02 -0.66606920656E+02  0.11438758018E+03  0.00000000000E+00 0.  1.
<scales pt_clust_5="13000.00000" pt_clust_6="13000.00000" pt_clust_7="13000.00000" pt_clust_8="13000.00000" pt_clust_9="28.63805" pt_clust_10="13000.00000"></scales>
<clustering>
<clus scale="   28.638">  1  9  2 -1</clus>
<clus scale="   80.076">  5  6 -1 -1</clus>
<clus scale="   83.203">  7  8 -1 -1</clus>
<clus scale="   87.733">  7 10 -1 -1</clus>
<clus scale="  141.539">  2  5  1 -1</clus>
<clus scale="   28.638">  1  5  2 -1</clus>
</clustering>
</event>
<event>
10    4  0.2759992E-005  0.1955677E+03  0.7546771E-02  0.1192193E+00
          2   -1    0    0  502    0 -0.00000000000E+00  0.00000000000E+00  0.30996983710E+03  0.30996983710E+03  0.00000000000E+00 0. -1.
         21   -1    0    0  503  502  0.00000000000E+00 -0.00000000000E+00 -0.25006008783E+03  0.25006008783E+03  0.00000000000E+00 0. -1.
         24    2    1    2    0    0 -0.64898185326E+01 -0.10065340296E+02  0.20718432394E+02  0.81534349573E+02  0.77943363409E+02 0.  0.
         23    2    1    2    0    0 -0.90497940219E+02  0.28612364725E+02  0.10855035116E+03  0.16555142043E+03  0.81336028126E+02 0.  0.
        -11    1    3    3    0    0 -0.35706891079E+02  0.16142892334E+02  0.14564626122E+02  0.41805542425E+02  0.00000000000E+00 0.  1.
         12    1    3    3    0    0  0.29217072546E+02 -0.26208232630E+02  0.61538062721E+01  0.39728807148E+02  0.00000000000E+00 0. -1.
        -11    1    4    4    0    0 -0.10464748520E+02 -0.21554761658E+02  0.33920928093E+01  0.24199690191E+02  0.00000000000E+00 0.  1.
         11    1    4    4    0    0 -0.80033191699E+02  0.50167126383E+02  0.10515825835E+03  0.14135173024E+03  0.00000000000E+00 0. -1.
         21    1    1    2  503  501  0.28255158400E+02 -0.26194791642E+02 -0.17911786072E+03  0.18321498059E+03  0.00000000000E+00 0. -1.
          1    1    1    2  501    0  0.68732600351E+02  0.76477672132E+01  0.10975882643E+03  0.12972917433E+03  0.00000000000E+00 0. -1.
<scales pt_clust_5="13000.00000" pt_clust_6="13000.00000" pt_clust_7="13000.00000" pt_clust_8="13000.00000" pt_clust_9="38.52948" pt_clust_10="13000.00000"></scales>
<clustering>
<clus scale="   38.529">  2  9  1 -1</clus>
<clus scale="   77.943">  5  6 -1 -1</clus>
<clus scale="   81.109">  1  5  2 -1</clus>
<clus scale="   81.336">  7  8 -1 -1</clus>
<clus scale="   76.394">  7 10 -1 -1</clus>
<clus scale="   38.529">  2  5  1 -1</clus>
</clustering>
</event>
<event>
10    4  0.2759992E-005  0.4342692E+03  0.7546771E-02  0.1078969E+00
         -3   -1    0    0    0  501 -0.00000000000E+00  0.00000000000E+00  0.17690051139E+04  0.17690051139E+04  0.00000000000E+00 0.  1.
         21   -1    0    0  501  502  0.00000000000E+00 -0.00000000000E+00 -0.48339577348E+02  0.48339577348E+02  0.00000000000E+00 0.  1.
         24    2    1    2    0    0 -0.76187154917E+02  0.37003066091E+02  0.30258657563E+03  0.32405659177E+03  0.79248529616E+02 0.  0.
         23    2    1    2    0    0 -0.16220402229E+03  0.25231028853E+02  0.54495965426E+03  0.57651311530E+03  0.91867282964E+02 0.  0.
        -13    1    3    3    0    0 -0.53337446595E+02 -0.12261555129E+02  0.96541413774E+02  0.11097510314E+03  0.00000000000E+00 0.  1.
         14    1    3    3    0    0 -0.22849708322E+02  0.49264621220E+02  0.20604516185E+03  0.21308148863E+03  0.00000000000E+00 0. -1.
        -11    1    4    4    0    0 -0.13473502543E+03  0.45720070640E+02  0.33785135441E+03  0.36658885637E+03  0.00000000000E+00 0.  1.
         11    1    4    4    0    0 -0.27468996861E+02 -0.20489041786E+02  0.20710829985E+03  0.20992425893E+03  0.00000000000E+00 0. -1.
         21    1    1    2  503  502  0.86351001621E+01  0.28556341920E+02  0.60874652550E+02  0.67791982872E+02  0.00000000000E+00 0. -1.
         -4    1    1    2    0  503  0.22975607705E+03 -0.90790436865E+02  0.81224465415E+03  0.84898300134E+03  0.00000000000E+00 0.  1.
<scales pt_clust_5="13000.00000" pt_clust_6="13000.00000" pt_clust_7="13000.00000" pt_clust_8="13000.00000" pt_clust_9="29.83336" pt_clust_10="13000.00000"></scales>
<clustering>
<clus scale="   29.833">  2  9  1 -1</clus>
<clus scale="   79.249">  5  6 -1 -1</clus>
<clus scale="   91.867">  7  8 -1 -1</clus>
<clus scale="  117.029">  1  5  2 -1</clus>
<clus scale="  196.915">  7 10 -1 -1</clus>
<clus scale="   29.833">  2  5  1 -1</clus>
</clustering>
</event>
<event>
10    4  0.2759992E-005  0.2170035E+03  0.7546771E-02  0.1177715E+00
         -1   -1    0    0    0  501 -0.00000000000E+00  0.00000000000E+00  0.22859793449E+03  0.22859793449E+03  0.00000000000E+00 0.  1.
         21   -1    0    0  503  502  0.00000000000E+00 -0.00000000000E+00 -0.12811642705E+03  0.12811642705E+03  0.00000000000E+00 0. -1.
         24    2    1    2    0    0 -0.49791574767E+02 -0.25724248276E+02  0.37207224750E+02  0.87523634188E+02  0.55991705643E+02 0.  0.
         23    2    1    2    0    0  0.31120180207E+02  0.35832630117E+02  0.14248912588E+03  0.17581839339E+03  0.91413967546E+02 0.  0.
        -13    1    3    3    0    0  0.53135176310E+01 -0.20463712646E+02  0.58535898582E+00  0.21150405433E+02  0.00000000000E+00 0.  1.
         14    1    3    3    0    0 -0.55105092398E+02 -0.52605356305E+01  0.36621865764E+02  0.66373228755E+02  0.00000000000E+00 0. -1.
        -13    1    4    4    0    0 -0.73084465848E+01  0.57975663928E+02  0.86570636712E+02  0.10444647500E+03  0.00000000000E+00 0.  1.
         13    1    4    4    0    0  0.38428626792E+02 -0.22143033811E+02  0.55918489169E+02  0.71371918388E+02  0.00000000000E+00 0. -1.
         21    1    1    2  503  501 -0.62757273535E+01 -0.20118641240E+02 -0.23851049992E+02  0.31827929007E+02  0.00000000000E+00 0. -1.
         -2    1    1    2    0  502  0.24947121913E+02  0.10010259400E+02 -0.55363793193E+02  0.61544404958E+02  0.00000000000E+00 0.  1.
<scales pt_clust_5="13000.00000" pt_clust_6="13000.00000" pt_clust_7="13000.00000" pt_clust_8="13000.00000" pt_clust_9="21.07474" pt_clust_10="13000.00000"></scales>
<clustering>
<clus scale="   21.075">  2  9  1 -1</clus>
<clus scale="   55.992">  5  6 -1 -1</clus>
<clus scale="   81.978">  1  5  2 -1</clus>
<clus scale="   91.414">  7  8 -1 -1</clus>
<clus scale="   19.936">  7 10 -1 -1</clus>
<clus scale="   21.075">  2  5  1 -1</clus>
</clustering>
</event>
<event>
10    4  0.2759992E-005  0.9487317E+03  0.7546771E-02  0.9792025E-01
          2   -1    0    0  503    0 -0.00000000000E+00  0.00000000000E+00  0.34518543173E+04  0.34518543173E+04  0.00000000000E+00 0. -1.
         21   -1    0    0  501  502  0.00000000000E+00 -0.00000000000E+00 -0.18503893911E+03  0.18503893911E+03  0.00000000000E+00 0. -1.
         24    2    1    2    0    0  0.18614954882E+03 -0.84553638025E+02  0.78412342457E+03  0.81424404641E+03  0.79642011071E+02 0.  0.
         23    2    1    2    0    0  0.50021971412E+03  0.36339622935E+02  0.14065607872E+04  0.14961032433E+04  0.91495005067E+02 0.  0.
        -11    1    3    3    0    0  0.78215711899E+02 -0.48133493028E+02  0.21436765206E+03  0.23321239459E+03  0.00000000000E+00 0.  1.
         12    1    3    3    0    0  0.10793383692E+03 -0.36420144998E+02  0.56975577251E+03  0.58103165182E+03  0.00000000000E+00 0. -1.
        -13    1    4    4    0    0  0.46401866023E+03  0.84160742686E+01  0.12794940398E+04  0.13610617713E+04  0.00000000000E+00 0. -1.
         13    1    4    4    0    0  0.36201053887E+02  0.27923548666E+02  0.12706674744E+03  0.13504147207E+03  0.00000000000E+00 0.  1.
         21    1    1    2  503  502 -0.29949200900E+03  0.11633039570E+03  0.23454462318E+03  0.39779316822E+03  0.00000000000E+00 0. -1.
          1    1    1    2  501    0 -0.38687725394E+03 -0.68116380610E+02  0.84158654322E+03  0.92875279846E+03  0.00000000000E+00 0. -1.
<scales pt_clust_5="13000.00000" pt_clust_6="13000.00000" pt_clust_7="13000.00000" pt_clust_8="13000.00000" pt_clust_9="296.96413" pt_clust_10="13000.00000"></scales>
<clustering>
<clus scale="   79.642">  5  6 -1 -1</clus>
<clus scale="   91.495">  7  8 -1 -1</clus>
<clus scale="  219.417">  1  5  2 -1</clus>
<clus scale="  296.964">  2  9  1 -1</clus>
<clus scale="  432.407">  7 10 -1 -1</clus>
<clus scale="  296.964">  2  5  1 -1</clus>
</clustering>
</event>
<event>
10    4  0.2759992E-005  0.3383644E+03  0.7546771E-02  0.1109999E+00
         21   -1    0    0  503  502  0.00000000000E+00  0.00000000000E+00  0.62280944699E+02  0.62280944699E+02  0.00000000000E+00 0. -1.
          2   -1    0    0  502    0 -0.00000000000E+00 -0.00000000000E+00 -0.10003726353E+04  0.10003726353E+04  0.00000000000E+00 0. -1.
         24    2    1    2    0    0 -0.43726741845E+02  0.70759448492E+02 -0.30065594120E+03  0.32091767909E+03  0.75334150741E+02 0.  0.
         23    2    1    2    0    0 -0.51039142617E+02 -0.17240687437E+03 -0.40840187646E+03  0.45540763153E+03  0.90966442984E+02 0.  0.
        -13    1    3    3    0    0 -0.19598591252E+02 -0.11362185596E+02 -0.10405917929E+03  0.10649655785E+03  0.00000000000E+00 0.  1.
         14    1    3    3    0    0 -0.24128150594E+02  0.82121634089E+02 -0.19659676192E+03  0.21442112124E+03  0.00000000000E+00 0. -1.
        -11    1    4    4    0    0 -0.18708969225E+02 -0.15607150254E+03 -0.37295422477E+03  0.40472607182E+03  0.00000000000E+00 0. -1.
         11    1    4    4    0    0 -0.32330173392E+02 -0.16335371831E+02 -0.35447651687E+02  0.50681559709E+02  0.00000000000E+00 0.  1.
         21    1    1    2  503  501  0.20192424729E+02 -0.86258559844E+01 -0.63609695783E+00  0.21966884787E+02  0.00000000000E+00 0.  1.
          1    1    1    2  501    0  0.74573459734E+02  0.11027328187E+03 -0.22839777595E+03  0.26436138457E+03  0.00000000000E+00 0. -1.
<scales pt_clust_5="13000.00000" pt_clust_6="13000.00000" pt_clust_7="13000.00000" pt_clust_8="13000.00000" pt_clust_9="21.95767" pt_clust_10="13000.00000"></scales>
<clustering>
<clus scale="   21.958">  1  9  2 -1</clus>
<clus scale="   75.334">  5  6 -1 -1</clus>
<clus scale="   90.966">  7  8 -1 -1</clus>
<clus scale="  109.666">  2  5  1 -1</clus>
<clus scale="  148.668">  7 10 -1 -1</clus>
<clus scale="   21.958">  1  5  2 -1</clus>
</clustering>
</event>
<event>
10    4  0.2759992E-005  0.1514150E+03  0.7546771E-02  0.1226082E+00
          2   -1    0    0  503    0 -0.00000000000E+00  0.00000000000E+00  0.40129140141E+03  0.40129140141E+03  0.00000000000E+00 0. -1.
         21   -1    0    0  501  502  0.00000000000E+00 -0.00000000000E+00 -0.52746507337E+02  0.52746507337E+02  0.00000000000E+00 0.  1.
         24    2    1    2    0    0 -0.11066058220E+02 -0.26034862264E+02  0.21168878811E+03  0.22858296923E+03  0.81472443877E+02 0.  0.
         23    2    1    2    0    0  0.17730080779E+02  0.48632736063E+01  0.26652035150E+02  0.93714097786E+02  0.87943129075E+02 0.  0.
        -13    1    3    3    0    0  0.34709120164E+02 -0.19826434139E+02  0.10303515744E+03  0.11051721216E+03  0.00000000000E+00 0.  1.
         14    1    3    3    0    0 -0.45775178383E+02 -0.62084281244E+01  0.10865363067E+03  0.11806575708E+03  0.00000000000E+00 0. -1.
        -13    1    4    4    0    0 -0.16324430323E+02  0.12310014186E+02 -0.24439142612E+02  0.31863696682E+02  0.00000000000E+00 0.  1.
         13    1    4    4    0    0  0.34054511102E+02 -0.74467405799E+01  0.51091177762E+02  0.61850401104E+02  0.00000000000E+00 0. -1.
         21    1    1    2  503  502  0.14060622576E+02  0.23395055814E+02  0.94983113665E+01  0.28900651595E+02  0.00000000000E+00 0.  1.
          1    1    1    2  501    0 -0.20724645135E+02 -0.22234671569E+01  0.10070575944E+03  0.10284019014E+03  0.00000000000E+00 0. -1.
<scales pt_clust_5="13000.00000" pt_clust_6="13000.00000" pt_clust_7="13000.00000" pt_clust_8="13000.00000" pt_clust_9="27.29523" pt_clust_10="13000.00000"></scales>
<clustering>
<clus scale="   27.295">  2  9  1 -1</clus>
<clus scale="   81.472">  5  6 -1 -1</clus>
<clus scale="   84.656">  1  5  2 -1</clus>
<clus scale="   87.943">  7  8 -1 -1</clus>
<clus scale="   28.115">  7 10 -1 -1</clus>
<clus scale="   27.295">  2  5  1 -1</clus>
</clustering>
</event>
<event>
10    4  0.2759992E-005  0.6817133E+03  0.7546771E-02  0.1010366E+00
          2   -1    0    0  502    0 -0.00000000000E+00  0.00000000000E+00  0.67010590682E+03  0.67010590682E+03  0.00000000000E+00 0. -1.
         21   -1    0    0  503  502  0.00000000000E+00 -0.00000000000E+00 -0.52599385718E+03  0.52599385718E+03  0.00000000000E+00 0.  1.
         24    2    1    2    0    0 -0.92367530221E+02 -0.18012918154E+03  0.38088703968E+03  0.43869295208E+03  0.79989290078E+02 0.  0.
         23    2    1    2    0    0  0.44004625248E+02 -0.23051268469E+03 -0.77418831344E+02  0.26376263215E+03  0.92220094504E+02 0.  0.
        -13    1    3    3    0    0 -0.49077649949E+02 -0.14953009559E+03  0.32804454280E+03  0.36384211861E+03  0.00000000000E+00 0.  1.
         14    1    3    3    0    0 -0.43289880271E+02 -0.30599085949E+02  0.52842496874E+02  0.74850833467E+02  0.00000000000E+00 0. -1.
        -11    1    4    4    0    0  0.61370910031E+02 -0.21499016461E+03 -0.52513135754E+02  0.22966233671E+03  0.00000000000E+00 0.  1.
         11    1    4    4    0    0 -0.17366284783E+02 -0.15522520080E+02 -0.24905695590E+02  0.34100295447E+02  0.00000000000E+00 0. -1.
         21    1    1    2  503  501 -0.15320136032E+02 -0.22241948100E+02 -0.22632265429E+02  0.35236774282E+02  0.00000000000E+00 0.  1.
          1    1    1    2  501    0  0.63683041004E+02  0.43288381433E+03 -0.13672389326E+03  0.45840740549E+03  0.00000000000E+00 0. -1.
<scales pt_clust_5="13000.00000" pt_clust_6="13000.00000" pt_clust_7="13000.00000" pt_clust_8="13000.00000" pt_clust_9="27.00761" pt_clust_10="13000.00000"></scales>
<clustering>
<clus scale="   27.008">  2  9  1 -1</clus>
<clus scale="   79.989">  5  6 -1 -1</clus>
<clus scale="   92.220">  7  8 -1 -1</clus>
<clus scale="  219.111">  1  5  2 -1</clus>
<clus scale="  310.555">  7 10 -1 -1</clus>
<clus scale="   27.008">  2  5  1 -1</clus>
</clustering>
</event>
<event>
10    4  0.2759992E-005  0.2595532E+03  0.7546771E-02  0.1152166E+00
         21   -1    0    0  501  502  0.00000000000E+00  0.00000000000E+00  0.70740290660E+03  0.70740290660E+03  0.00000000000E+00 0.  1.
         -1   -1    0    0    0  501 -0.00000000000E+00 -0.00000000000E+00 -0.89065106603E+02  0.89065106603E+02  0.00000000000E+00 0.  1.
         24    2    1    2    0    0  0.21053455065E+02  0.22086842372E+02 -0.10093362254E+02  0.86127331213E+02  0.79905973770E+02 0.  0.
         23    2    1    2    0    0 -0.93118578215E+02  0.34632959518E+02  0.10157010310E+03  0.16910193341E+03  0.91697691063E+02 0.  0.
        -11    1    3    3    0    0  0.24423181026E+02  0.45676646523E+02 -0.25518605164E+02  0.57741207283E+02  0.00000000000E+00 0.  1.
         12    1    3    3    0    0 -0.33697259610E+01 -0.23589804151E+02  0.15425242910E+02  0.28386123930E+02  0.00000000000E+00 0. -1.
        -13    1    4    4    0    0 -0.88124243015E+02 -0.11413287083E+02  0.68250037215E+02  0.11204558407E+03  0.00000000000E+00 0.  1.
         13    1    4    4    0    0 -0.49943352001E+01  0.46046246601E+02  0.33320065888E+02  0.57056349348E+02  0.00000000000E+00 0. -1.
         21    1    1    2  503  502  0.25373423550E+02  0.16222620175E+02  0.23122637293E+03  0.23317937209E+03  0.00000000000E+00 0.  1.
         -2    1    1    2    0  503  0.46691699601E+02 -0.72942422065E+02  0.29563468622E+03  0.30805937649E+03  0.00000000000E+00 0.  1.
<scales pt_clust_5="13000.00000" pt_clust_6="13000.00000" pt_clust_7="13000.00000" pt_clust_8="13000.00000" pt_clust_9="30.11618" pt_clust_10="13000.00000"></scales>
<clustering>
<clus scale="   30.116">  1  9  2 -1</clus>
<clus scale="   79.906">  5  6 -1 -1</clus>
<clus scale="   86.398">  2  5  1 -1</clus>
<clus scale="   91.698">  7  8 -1 -1</clus>
<clus scale="   88.885">  7 10 -1 -1</clus>
<clus scale="   30.116">  1  5  2 -1</clus>
</clustering>
</event>
<event>
10    4  0.2759992E-005  0.3281390E+03  0.7546771E-02  0.1112717E+00
          2   -1    0    0  503    0 -0.00000000000E+00  0.00000000000E+00  0.75077096937E+03  0.75077096937E+03  0.00000000000E+00 0. -1.
         21   -1    0    0  501  502  0.00000000000E+00 -0.00000000000E+00 -0.41424008524E+03  0.41424008524E+03  0.00000000000E+00 0. -1.
         24    2    1    2    0    0  0.57594148375E+02  0.46184580261E+02  0.59169451447E+03  0.60224131429E+03  0.84510950797E+02 0.  0.
         23    2    1    2    0    0 -0.64308035103E+02  0.17135368025E+03 -0.68763673096E+02  0.21868775785E+03  0.97970840486E+02 0.  0.
        -11    1    3    3    0    0  0.24569055951E+02  0.25792150724E+02  0.65017337142E+02  0.74135873086E+02  0.00000000000E+00 0.  1.
         12    1    3    3    0    0  0.33025092425E+02  0.20392429537E+02  0.52667717733E+03  0.52810544120E+03  0.00000000000E+00 0. -1.
        -11    1    4    4    0    0  0.84636264574E+01  0.19449606851E+02  0.19249153670E+02  0.28643500074E+02  0.00000000000E+00 0.  1.
         11    1    4    4    0    0 -0.72771661560E+02  0.15190407339E+03 -0.88012826767E+02  0.19004425778E+03  0.00000000000E+00 0. -1.
         21    1    1    2  503  502  0.50330569085E+02 -0.10813971872E+03 -0.19215821404E+03  0.22616839782E+03  0.00000000000E+00 0.  1.
          1    1    1    2  501    0 -0.43616682357E+02 -0.10939854179E+03  0.57582567990E+01  0.11791358466E+03  0.00000000000E+00 0. -1.
<scales pt_clust_5="13000.00000" pt_clust_6="13000.00000" pt_clust_7="13000.00000" pt_clust_8="13000.00000" pt_clust_9="117.60350" pt_clust_10="13000.00000"></scales>
<clustering>
<clus scale="   84.511">  5  6 -1 -1</clus>
<clus scale="   97.971">  7  8 -1 -1</clus>
<clus scale="  112.215">  1  5  2 -1</clus>
<clus scale="   93.106">  7 10 -1 -1</clus>
<clus scale="  117.604">  2  9  1 -1</clus>
<clus scale="  117.604">  2  5  1 -1</clus>
</clustering>
</event>
<event>
10    4  0.2759992E-005  0.3518778E+03  0.7546771E-02  0.1112957E+00
          2   -1    0    0  502    0 -0.00000000000E+00  0.00000000000E+00  0.77220619015E+03  0.77220619015E+03  0.00000000000E+00 0. -1.
         21   -1    0    0  503  502  0.00000000000E+00 -0.00000000000E+00 -0.11055064415E+03  0.11055064415E+03  0.00000000000E+00 0. -1.
         24    2    1    2    0    0  0.29535357030E+02 -0.89702493349E+01  0.51170715531E+02  0.10042473717E+03  0.80708630390E+02 0.  0.
         23    2    1    2    0    0  0.16131357429E+02 -0.78311250911E+02  0.57168154171E+03  0.58374725484E+03  0.86880375771E+02 0.  0.
        -11    1    3    3    0    0 -0.79299053572E+01 -0.30998856028E+02  0.46870708848E+02  0.56750998422E+02  0.00000000000E+00 0.  1.
         12    1    3    3    0    0  0.37465262387E+02  0.22028606694E+02  0.43000066830E+01  0.43673738746E+02  0.00000000000E+00 0. -1.
        -13    1    4    4    0    0  0.45680110617E+02 -0.72341335915E+02  0.46867162394E+03  0.47641686838E+03  0.00000000000E+00 0. -1.
         13    1    4    4    0    0 -0.29548753189E+02 -0.59699149964E+01  0.10300991777E+03  0.10733038647E+03  0.00000000000E+00 0.  1.
         21    1    1    2  503  501  0.18705919817E+02 -0.28957541293E+02 -0.32853209121E+02  0.47621255585E+02  0.00000000000E+00 0.  1.
          1    1    1    2  501    0 -0.64372634276E+02  0.11623904154E+03  0.71656497884E+02  0.15096358670E+03  0.00000000000E+00 0. -1.
<scales pt_clust_5="13000.00000" pt_clust_6="13000.00000" pt_clust_7="13000.00000" pt_clust_8="13000.00000" pt_clust_9="34.47391" pt_clust_10="13000.00000"></scales>
<clustering>
<clus scale="   34.474">  2  9  1 -1</clus>
<clus scale="   80.709">  5  6 -1 -1</clus>
<clus scale="   86.880">  7  8 -1 -1</clus>
<clus scale="   90.451">  1  5  2 -1</clus>
<clus scale="  109.197">  7 10 -1 -1</clus>
<clus scale="   34.474">  2  5  1 -1</clus>
</clustering>
</event>
<event>
10    4  0.2759992E-005  0.1689909E+03  0.7546771E-02  0.1207821E+00
         21   -1    0    0  503  502  0.00000000000E+00  0.00000000000E+00  0.22764510851E+03  0.22764510851E+03  0.00000000000E+00 0.  1.
          2   -1    0    0  502    0 -0.00000000000E+00 -0.00000000000E+00 -0.81741639638E+03  0.81741639638E+03  0.00000000000E+00 0. -1.
         24    2    1    2    0    0  0.53221164568E+02  0.82560919384E+02 -0.23315158987E+03  0.26548303628E+03  0.80453594867E+02 0.  0.
         23    2    1    2    0    0 -0.30068090395E+02  0.52115130379E+02 -0.31034438595E+03  0.32914323536E+03  0.91659994640E+02 0.  0.
        -13    1    3    3    0    0  0.21439277981E+02  0.87947989988E+02 -0.13819366325E+03  0.16520284545E+03  0.00000000000E+00 0.  1.
         14    1    3    3    0    0  0.31781886588E+02 -0.53870706038E+01 -0.94957926620E+02  0.10028019083E+03  0.00000000000E+00 0. -1.
        -13    1    4    4    0    0  0.11398187070E+02  0.18749876155E+02 -0.99899397762E+01  0.24109654105E+02  0.00000000000E+00 0.  1.
         13    1    4    4    0    0 -0.41466277465E+02  0.33365254224E+02 -0.30035444618E+03  0.30503358126E+03  0.00000000000E+00 0. -1.
         21    1    1    2  503  501 -0.50423074107E+02 -0.91069646527E+02  0.18566776891E+03  0.21285837388E+03  0.00000000000E+00 0.  1.
          1    1    1    2  501    0  0.27269999934E+02 -0.43606403236E+02 -0.23194308097E+03  0.23757685937E+03  0.00000000000E+00 0. -1.
<scales pt_clust_5="13000.00000" pt_clust_6="13000.00000" pt_clust_7="13000.00000" pt_clust_8="13000.00000" pt_clust_9="104.09691" pt_clust_10="13000.00000"></scales>
<clustering>
<clus scale="   80.454">  5  6 -1 -1</clus>
<clus scale="   91.660">  7  8 -1 -1</clus>
<clus scale="   51.431">  7 10 -1 -1</clus>
<clus scale="  104.097">  1  9  2 -1</clus>
<clus scale="   89.526">  2  5  1 -1</clus>
<clus scale="  104.097">  1  5  2 -1</clus>
</clustering>
</event>
<event>
10    4  0.2759992E-005  0.1662780E+03  0.7546771E-02  0.1202377E+00
          4   -1    0    0  503    0 -0.00000000000E+00  0.00000000000E+00  0.68380617899E+03  0.68380617899E+03  0.00000000000E+00 0. -1.
         21   -1    0    0  501  502  0.00000000000E+00 -0.00000000000E+00 -0.10318214975E+03  0.10318214975E+03  0.00000000000E+00 0. -1.
         24    2    1    2    0    0  0.47529460258E+02  0.14655648476E+02  0.11235611029E+03  0.14797363242E+03  0.82452791017E+02 0.  0.
         23    2    1    2    0    0 -0.96868279157E+02 -0.31711935355E+02  0.39572379146E+03  0.42013288527E+03  0.97597191581E+02 0.  0.
        -13    1    3    3    0    0  0.37576510049E+02  0.38296104145E+01  0.12374000936E+03  0.12937638865E+03  0.00000000000E+00 0.  1.
         14    1    3    3    0    0  0.99529502088E+01  0.10826038061E+02 -0.11383899066E+02  0.18597243772E+02  0.00000000000E+00 0. -1.
        -13    1    4    4    0    0 -0.10747285051E+02 -0.34505143662E+02  0.39086651183E+02  0.53234156102E+02  0.00000000000E+00 0.  1.
         13    1    4    4    0    0 -0.86120994106E+02  0.27932083070E+01  0.35663714028E+03  0.36689872917E+03  0.00000000000E+00 0. -1.
         21    1    1    2  503  502  0.23512232836E+02  0.19044897694E+02 -0.68812695908E+02  0.75171273365E+02  0.00000000000E+00 0. -1.
          3    1    1    2  501    0  0.25826586063E+02 -0.19886108146E+01  0.14135682339E+03  0.14371053768E+03  0.00000000000E+00 0. -1.
<scales pt_clust_5="13000.00000" pt_clust_6="13000.00000" pt_clust_7="13000.00000" pt_clust_8="13000.00000" pt_clust_9="30.25778" pt_clust_10="13000.00000"></scales>
<clustering>
<clus scale="   30.258">  2  9  1 -1</clus>
<clus scale="   82.453">  5  6 -1 -1</clus>
<clus scale="   97.597">  7  8 -1 -1</clus>
<clus scale="   26.744">  7 10 -1 -1</clus>
<clus scale="  105.668">  1  5  2 -1</clus>
<clus scale="   30.258">  2  5  1 -1</clus>
</clustering>
</event>
<event>
10    4  0.2759992E-005  0.2581049E+03  0.7546771E-02  0.1126769E+00
         21   -1    0    0  503  502  0.00000000000E+00  0.00000000000E+00  0.73071794258E+02  0.73071794258E+02  0.00000000000E+00 0. -1.
          2   -1    0    0  502    0 -0.00000000000E+00 -0.00000000000E+00 -0.92236982918E+03  0.92236982918E+03  0.00000000000E+00 0. -1.
         24    2    1    2    0    0 -0.12185266218E+03 -0.87406342473E+02 -0.51295670451E+03  0.54026173747E+03  0.79184747849E+02 0.  0.
         23    2    1    2    0    0 -0.27787581180E+02  0.87893568117E+02 -0.12055503068E+03  0.17381992779E+03  0.84749176345E+02 0.  0.
        -11    1    3    3    0    0 -0.35955318121E+02  0.11651258354E+02 -0.13597535493E+03  0.14113055612E+03  0.00000000000E+00 0.  1.
         12    1    3    3    0    0 -0.85897344060E+02 -0.99057600827E+02 -0.37698134958E+03  0.39913118135E+03  0.00000000000E+00 0. -1.
        -11    1    4    4    0    0 -0.27838344671E+02  0.65647758430E+02 -0.13107236777E+03  0.14921316033E+03  0.00000000000E+00 0.  1.
         11    1    4    4    0    0  0.50763490569E-01  0.22245809687E+02  0.10517337093E+02  0.24606767466E+02  0.00000000000E+00 0. -1.
         21    1    1    2  503  501  0.38196280662E+02  0.39139716058E+01  0.65940306520E-01  0.38396345897E+02  0.00000000000E+00 0. -1.
          1    1    1    2  501    0  0.11144396270E+03 -0.44011972501E+01 -0.21585224004E+03  0.24296361228E+03  0.00000000000E+00 0. -1.
<scales pt_clust_5="13000.00000" pt_clust_6="13000.00000" pt_clust_7="13000.00000" pt_clust_8="13000.00000" pt_clust_9="38.39629" pt_clust_10="13000.00000"></scales>
<clustering>
<clus scale="   38.396">  1  9  2 -1</clus>
<clus scale="   79.185">  5  6 -1 -1</clus>
<clus scale="   84.749">  7  8 -1 -1</clus>
<clus scale="  121.109">  7 10 -1 -1</clus>
<clus scale="  162.231">  2  5  1 -1</clus>
<clus scale="   38.396">  1  5  2 -1</clus>
</clustering>
</event>
<event>
10    4  0.2759992E-005  0.5155634E+03  0.7546771E-02  0.1018771E+00
         21   -1    0    0  501  502  0.00000000000E+00  0.00000000000E+00  0.59154347256E+03  0.59154347256E+03  0.00000000000E+00 0. -1.
          2   -1    0    0  503    0 -0.00000000000E+00 -0.00000000000E+00 -0.39167329845E+03  0.39167329845E+03  0.00000000000E+00 0. -1.
         24    2    1    2    0    0 -0.23745693111E+03  0.28420213332E+03  0.10576492837E+03  0.39340546916E+03  0.80156075092E+02 0.  0.
         23    2    1    2    0    0 -0.25734210569E+01 -0.20063326319E+03 -0.38066591023E+02  0.22512474880E+03  0.94719366419E+02 0.  0.
        -13    1    3    3    0    0 -0.82801707316E+02  0.45489885773E+02  0.27871991152E+02  0.98500255497E+02  0.00000000000E+00 0.  1.
         14    1    3    3    0    0 -0.15465522379E+03  0.23871224755E+03  0.77892937216E+02  0.29490521366E+03  0.00000000000E+00 0. -1.
        -13    1    4    4    0    0  0.23290385068E+02 -0.19466091790E+02  0.15984297544E+02  0.34305517547E+02  0.00000000000E+00 0.  1.
         13    1    4    4    0    0 -0.25863806125E+02 -0.18116717140E+03 -0.54050888566E+02  0.19081923125E+03  0.00000000000E+00 0. -1.
         21    1    1    2  503  502 -0.38481990328E+02  0.38762527678E+01  0.46448147879E+02  0.60442694815E+02  0.00000000000E+00 0. -1.
          1    1    1    2  501    0  0.27851234249E+03 -0.87445122904E+02  0.85723688888E+02  0.30424385824E+03  0.00000000000E+00 0. -1.
<scales pt_clust_5="13000.00000" pt_clust_6="13000.00000" pt_clust_7="13000.00000" pt_clust_8="13000.00000" pt_clust_9="38.67672" pt_clust_10="13000.00000"></scales>
<clustering>
<clus scale="   38.677">  1  9  2 -1</clus>
<clus scale="   80.156">  5  6 -1 -1</clus>
<clus scale="   94.719">  7  8 -1 -1</clus>
<clus scale="  278.207">  7 10 -1 -1</clus>
<clus scale="  391.666">  2  5  1 -1</clus>
<clus scale="   38.677">  1  5  2 -1</clus>
</clustering>
</event>
<event>
10    4  0.2759992E-005  0.3511997E+03  0.7546771E-02  0.1106554E+00
         21   -1    0    0  501  502  0.00000000000E+00  0.00000000000E+00  0.16161726988E+03  0.16161726988E+03  0.00000000000E+00 0.  1.
          2   -1    0    0  503    0 -0.00000000000E+00 -0.00000000000E+00 -0.55419110054E+03  0.55419110054E+03  0.00000000000E+00 0. -1.
         24    2    1    2    0    0  0.24178121016E+02 -0.61834454499E+02 -0.82322758980E+02  0.13110110943E+03  0.77475047264E+02 0.  0.
         23    2    1    2    0    0 -0.55084105783E+02  0.18786092713E+03 -0.13414656616E+03  0.25447215422E+03  0.91841109564E+02 0.  0.
        -13    1    3    3    0    0 -0.28487187826E+02 -0.21129412774E+02 -0.28957976586E+02  0.45787949969E+02  0.00000000000E+00 0.  1.
         14    1    3    3    0    0  0.52665308842E+02 -0.40705041725E+02 -0.53364782394E+02  0.85313159461E+02  0.00000000000E+00 0. -1.
        -11    1    4    4    0    0 -0.16175829206E+02  0.85702937363E+02 -0.11363728538E+03  0.14324832827E+03  0.00000000000E+00 0. -1.
         11    1    4    4    0    0 -0.38908276577E+02  0.10215798977E+03 -0.20509280778E+02  0.11122382594E+03  0.00000000000E+00 0.  1.
         21    1    1    2  503  502  0.36270717003E+02 -0.16558379851E+02  0.58786757159E+02  0.71032581767E+02  0.00000000000E+00 0.  1.
          1    1    1    2  501    0 -0.53647322359E+01 -0.10946809278E+03 -0.23489126267E+03  0.25920252500E+03  0.00000000000E+00 0. -1.
<scales pt_clust_5="13000.00000" pt_clust_6="13000.00000" pt_clust_7="13000.00000" pt_clust_8="13000.00000" pt_clust_9="39.87160" pt_clust_10="13000.00000"></scales>
<clustering>
<clus scale="   39.872">  1  9  2 -1</clus>
<clus scale="   77.475">  5  6 -1 -1</clus>
<clus scale="   91.841">  7  8 -1 -1</clus>
<clus scale="  107.100">  2  5  1 -1</clus>
<clus scale="  152.062">  7 10 -1 -1</clus>
<clus scale="   39.872">  1  5  2 -1</clus>
</clustering>
</event>
<event>
10    4  0.2759992E-005  0.7227149E+03  0.7546771E-02  0.9734791E-01
          2   -1    0    0  502    0 -0.00000000000E+00  0.00000000000E+00  0.12721802636E+04  0.12721802636E+04  0.00000000000E+00 0. -1.
         21   -1    0    0  503  502  0.00000000000E+00 -0.00000000000E+00 -0.40591243563E+03  0.40591243563E+03  0.00000000000E+00 0. -1.
         24    2    1    2    0    0  0.58164826165E+03  0.19415446284E+02  0.27070577344E+03  0.64680091384E+03  0.79863299025E+02 0.  0.
         23    2    1    2    0    0 -0.13368641113E+03 -0.90016030520E+02  0.20254114140E+02  0.18634314718E+03  0.91315919149E+02 0.  0.
        -11    1    3    3    0    0  0.93472722890E+02  0.10699513722E+02  0.13819075852E+02  0.95092567405E+02  0.00000000000E+00 0.  1.
         12    1    3    3    0    0  0.48817553876E+03  0.87159325620E+01  0.25688669759E+03  0.55170834643E+03  0.00000000000E+00 0. -1.
        -11    1    4    4    0    0 -0.32840403816E+02 -0.68317464539E+02  0.32481383709E+02  0.82467013839E+02  0.00000000000E+00 0.  1.
         11    1    4    4    0    0 -0.10084600731E+03 -0.21698565980E+02 -0.12227269569E+02  0.10387613334E+03  0.00000000000E+00 0. -1.
         21    1    1    2  503  501  0.24315600223E+02 -0.38137030448E+02 -0.40911219198E+02  0.60986960589E+02  0.00000000000E+00 0. -1.
          1    1    1    2  501    0 -0.47227745074E+03  0.10873761468E+03  0.61621915958E+03  0.78396167761E+03  0.00000000000E+00 0. -1.
<scales pt_clust_5="13000.00000" pt_clust_6="13000.00000" pt_clust_7="13000.00000" pt_clust_8="13000.00000" pt_clust_9="45.22921" pt_clust_10="13000.00000"></scales>
<clustering>
<clus scale="   45.229">  2  9  1 -1</clus>
<clus scale="   79.863">  5  6 -1 -1</clus>
<clus scale="   91.316">  7  8 -1 -1</clus>
<clus scale="  477.072">  7 10 -1 -1</clus>
<clus scale="  599.871">  1  5  2 -1</clus>
<clus scale="   45.229">  2  5  1 -1</clus>
</clustering>
</event>
<event>
10    4  0.2759992E-005  0.2325050E+03  0.7546771E-02  0.1142120E+00
          2   -1    0    0  502    0 -0.00000000000E+00  0.00000000000E+00  0.80566169354E+03  0.80566169354E+03  0.00000000000E+00 0. -1.
         21   -1    0    0  503  502  0.00000000000E+00 -0.00000000000E+00 -0.90638764733E+02  0.90638764733E+02  0.00000000000E+00 0. -1.
         24    2    1    2    0    0 -0.45216134621E+02 -0.12880267153E+03  0.48590242255E+03  0.51102575586E+03  0.80072041846E+02 0.  0.
         23    2    1    2    0    0  0.10180959193E+02 -0.19910721601E+02  0.13994868943E+03  0.16953843491E+03  0.93045991183E+02 0.  0.
        -11    1    3    3    0    0 -0.18209310301E+02 -0.44690195092E+02  0.65017857450E+02  0.80969835781E+02  0.00000000000E+00 0.  1.
         12    1    3    3    0    0 -0.27006824320E+02 -0.84112476437E+02  0.42088456510E+03  0.43005592008E+03  0.00000000000E+00 0. -1.
        -11    1    4    4    0    0  0.36370668025E+02 -0.36869545040E+02  0.12424820377E+03  0.13460982499E+03  0.00000000000E+00 0.  1.
         11    1    4    4    0    0 -0.26189708832E+02  0.16958823439E+02  0.15700485658E+02  0.34928609921E+02  0.00000000000E+00 0. -1.
         21    1    1    2  503  501 -0.20653970550E+02  0.38294177810E+02 -0.22612902131E+02  0.49034415428E+02  0.00000000000E+00 0. -1.
          1    1    1    2  501    0  0.55689145978E+02  0.11041921532E+03  0.11178471895E+03  0.16670185207E+03  0.00000000000E+00 0. -1.
<scales pt_clust_5="13000.00000" pt_clust_6="13000.00000" pt_clust_7="13000.00000" pt_clust_8="13000.00000" pt_clust_9="43.50897" pt_clust_10="13000.00000"></scales>
<clustering>
<clus scale="   43.509">  2  9  1 -1</clus>
<clus scale="   80.072">  5  6 -1 -1</clus>
<clus scale="   93.046">  7  8 -1 -1</clus>
<clus scale="  137.305">  7 10 -1 -1</clus>
<clus scale="  152.686">  1  5  2 -1</clus>
<clus scale="   43.509">  2  5  1 -1</clus>
</clustering>
</event>
<event>
10    4  0.2759992E-005  0.3911524E+03  0.7546771E-02  0.1071233E+00
         21   -1    0    0  503  502  0.00000000000E+00  0.00000000000E+00  0.21314665583E+03  0.21314665583E+03  0.00000000000E+00 0. -1.
          2   -1    0    0  502    0 -0.00000000000E+00 -0.00000000000E+00 -0.55317028499E+03  0.55317028499E+03  0.00000000000E+00 0. -1.
         24    2    1    2    0    0 -0.16395214511E+03 -0.85157962827E+02 -0.35729024493E+02  0.20557884418E+03  0.82788365513E+02 0.  0.
         23    2    1    2    0    0 -0.19939511171E+02  0.28807964211E+02 -0.32409556682E+03  0.33803162810E+03  0.89442508116E+02 0.  0.
        -13    1    3    3    0    0 -0.64786815848E+02 -0.78209390161E+00 -0.38459431990E+02  0.75346340904E+02  0.00000000000E+00 0.  1.
         14    1    3    3    0    0 -0.99165329258E+02 -0.84375868925E+02  0.27304074970E+01  0.13023250327E+03  0.00000000000E+00 0. -1.
        -11    1    4    4    0    0 -0.25769917030E+02  0.57981644402E+02 -0.25553005917E+03  0.26328989888E+03  0.00000000000E+00 0. -1.
         11    1    4    4    0    0  0.58304058596E+01 -0.29173680191E+02 -0.68565507644E+02  0.74741729221E+02  0.00000000000E+00 0.  1.
         21    1    1    2  503  501  0.19675166886E+02 -0.13239858443E+02  0.36549071926E+02  0.43568804232E+02  0.00000000000E+00 0.  1.
          1    1    1    2  501    0  0.16421648939E+03  0.69589857059E+02 -0.16748109782E+02  0.17913766431E+03  0.00000000000E+00 0. -1.
<scales pt_clust_5="13000.00000" pt_clust_6="13000.00000" pt_clust_7="13000.00000" pt_clust_8="13000.00000" pt_clust_9="23.71510" pt_clust_10="13000.00000"></scales>
<clustering>
<clus scale="   23.715">  1  9  2 -1</clus>
<clus scale="   82.788">  5  6 -1 -1</clus>
<clus scale="   89.443">  7  8 -1 -1</clus>
<clus scale="  184.663">  7 10 -1 -1</clus>
<clus scale="  197.642">  2  5  1 -1</clus>
<clus scale="   23.715">  1  5  2 -1</clus>
</clustering>
</event>
<event>
10    4  0.2759992E-005  0.2334107E+03  0.7546771E-02  0.1147316E+00
         -3   -1    0    0    0  501 -0.00000000000E+00  0.00000000000E+00  0.23456840311E+03  0.23456840311E+03  0.00000000000E+00 0.  1.
         21   -1    0    0  501  502  0.00000000000E+00 -0.00000000000E+00 -0.50920206119E+03  0.50920206119E+03  0.00000000000E+00 0.  1.
         24    2    1    2    0    0 -0.89568633889E+02 -0.24464854431E+02  0.63880450331E+02  0.13912482134E+03  0.81571653778E+02 0.  0.
         23    2    1    2    0    0  0.24960618254E+02 -0.73126799860E+02 -0.63886917094E+01  0.12048215820E+03  0.92220245837E+02 0.  0.
        -11    1    3    3    0    0 -0.70275565855E+02  0.21395949052E+02  0.32713677019E+02  0.80415337195E+02  0.00000000000E+00 0.  1.
         12    1    3    3    0    0 -0.19293068034E+02 -0.45860803482E+02  0.31166773312E+02  0.58709484148E+02  0.00000000000E+00 0. -1.
        -13    1    4    4    0    0  0.49663843311E+02 -0.60547069063E+02 -0.30206470521E+02  0.83933758202E+02  0.00000000000E+00 0.  1.
         13    1    4    4    0    0 -0.24703225057E+02 -0.12579730797E+02  0.23817778812E+02  0.36548400002E+02  0.00000000000E+00 0. -1.
         21    1    1    2  503  502 -0.68035583418E+02  0.47515850863E+02 -0.33217318133E+03  0.34238227041E+03  0.00000000000E+00 0.  1.
         -4    1    1    2    0  503  0.13264359905E+03  0.50075803427E+02  0.47764636542E-01  0.14178121434E+03  0.00000000000E+00 0.  1.
<scales pt_clust_5="13000.00000" pt_clust_6="13000.00000" pt_clust_7="13000.00000" pt_clust_8="13000.00000" pt_clust_9="82.98552" pt_clust_10="13000.00000"></scales>
<clustering>
<clus scale="   81.572">  5  6 -1 -1</clus>
<clus scale="   82.986">  2  9  1 -1</clus>
<clus scale="   92.220">  7  8 -1 -1</clus>
<clus scale="  125.674">  7 10 -1 -1</clus>
<clus scale="  133.278">  1  5  2 -1</clus>
<clus scale="   82.986">  2  5  1 -1</clus>
</clustering>
</event>
<event>
10    4  0.2759992E-005  0.2906980E+03  0.7546771E-02  0.1131397E+00
          2   -1    0    0  503    0 -0.00000000000E+00  0.00000000000E+00  0.13723046657E+04  0.13723046657E+04  0.00000000000E+00 0. -1.
         21   -1    0    0  501  502  0.00000000000E+00 -0.00000000000E+00 -0.37078416573E+02  0.37078416573E+02  0.00000000000E+00 0. -1.
         24    2    1    2    0    0  0.36380763700E+02 -0.50636438622E+02  0.60741929922E+03  0.61579852246E+03  0.79762186034E+02 0.  0.
         23    2    1    2    0    0 -0.19680316458E+02  0.12669018947E+03  0.19609142216E+03  0.25138387593E+03  0.91127867686E+02 0.  0.
        -11    1    3    3    0    0  0.29113358005E+02  0.99524550592E+01  0.97463295327E+02  0.10220436836E+03  0.00000000000E+00 0.  1.
         12    1    3    3    0    0  0.72674056945E+01 -0.60588893681E+02  0.50995600389E+03  0.51359415410E+03  0.00000000000E+00 0. -1.
        -13    1    4    4    0    0 -0.33780887930E+02  0.77822368689E+02  0.54252566552E+02  0.10070159103E+03  0.00000000000E+00 0. -1.
         13    1    4    4    0    0  0.14100571472E+02  0.48867820778E+02  0.14183885560E+03  0.15068228490E+03  0.00000000000E+00 0.  1.
         21    1    1    2  503  502 -0.18595626810E+02 -0.14177185382E+02  0.37993307660E+02  0.44612569404E+02  0.00000000000E+00 0. -1.
          1    1    1    2  501    0  0.18951795691E+01 -0.61876565463E+02  0.49372222007E+03  0.49758811445E+03  0.00000000000E+00 0. -1.
<scales pt_clust_5="13000.00000" pt_clust_6="13000.00000" pt_clust_7="13000.00000" pt_clust_8="13000.00000" pt_clust_9="23.38354" pt_clust_10="13000.00000"></scales>
<clustering>
<clus scale="   23.384">  2  9  1 -1</clus>
<clus scale="   79.762">  5  6 -1 -1</clus>
<clus scale="   91.128">  7  8 -1 -1</clus>
<clus scale="   62.694">  7 10 -1 -1</clus>
<clus scale="  101.333">  1  5  2 -1</clus>
<clus scale="   23.384">  2  5  1 -1</clus>
</clustering>
</event>
<event>
10    4  0.2759992E-005  0.2610676E+03  0.7546771E-02  0.1121497E+00
         21   -1    0    0  503  502  0.00000000000E+00  0.00000000000E+00  0.56651258998E+02  0.56651258998E+02  0.00000000000E+00 0.  1.
          2   -1    0    0  502    0 -0.00000000000E+00 -0.00000000000E+00 -0.15534451204E+04  0.15534451204E+04  0.00000000000E+00 0. -1.
         24    2    1    2    0    0 -0.17295136295E+03 -0.44118497624E+02 -0.54018592586E+03  0.57467231198E+03  0.81171521322E+02 0.  0.
         23    2    1    2    0    0  0.14666804738E+03 -0.22941533030E+02 -0.64988785394E+03  0.67237403566E+03  0.87719958244E+02 0.  0.
        -13    1    3    3    0    0 -0.48562424808E+02 -0.48136023891E+02 -0.24404812927E+03  0.25344600075E+03  0.00000000000E+00 0.  1.
         14    1    3    3    0    0 -0.12438893814E+03  0.40175262665E+01 -0.29613779659E+03  0.32122631122E+03  0.00000000000E+00 0. -1.
        -13    1    4    4    0    0  0.94612822451E+02  0.16247297692E+02 -0.26161139364E+03  0.27866840893E+03  0.00000000000E+00 0.  1.
         13    1    4    4    0    0  0.52055224924E+02 -0.39188830722E+02 -0.38827646030E+03  0.39370562673E+03  0.00000000000E+00 0. -1.
         21    1    1    2  503  501  0.41704305339E+02 -0.98154272618E+01  0.35839249909E+01  0.42993443854E+02  0.00000000000E+00 0.  1.
          1    1    1    2  501    0 -0.15420989762E+02  0.76875457916E+02 -0.31030400657E+03  0.32005658788E+03  0.00000000000E+00 0. -1.
<scales pt_clust_5="13000.00000" pt_clust_6="13000.00000" pt_clust_7="13000.00000" pt_clust_8="13000.00000" pt_clust_9="42.84381" pt_clust_10="13000.00000"></scales>
<clustering>
<clus scale="   42.844">  1  9  2 -1</clus>
<clus scale="   81.172">  5  6 -1 -1</clus>
<clus scale="   87.720">  7  8 -1 -1</clus>
<clus scale="   76.015">  7 10 -1 -1</clus>
<clus scale="  178.689">  2  5  1 -1</clus>
<clus scale="   42.844">  1  5  2 -1</clus>
</clustering>
</event>
