<event>
 9    1  0.1266593E-005  0.1150924E+03  0.7546771E-02  0.1251425E+00
          2   -1    0    0  502    0  0.00000000000E+00  0.00000000000E+00  0.91949676444E+03  0.91949676444E+03  0.00000000000E+00 0. -1.
         -2   -1    0    0    0  501 -0.00000000000E+00 -0.00000000000E+00 -0.22293152070E+02  0.22293152070E+02  0.00000000000E+00 0.  1.
         23    2    1    2    0    0 -0.27212117353E+02 -0.38112812965E+02  0.24432792637E+03  0.26512653191E+03  0.91667095903E+02 0.  0.
         23    2    1    2    0    0  0.28866171336E+02  0.80210659762E+02  0.57124408248E+03  0.58480107845E+03  0.91681480132E+02 0.  0.
        -11    1    4    4    0    0  0.46337845968E+02  0.84820796713E+01  0.15288233968E+03  0.15997547134E+03  0.00000000000E+00 0.  1.
         11    1    4    4    0    0 -0.17471674632E+02  0.71728580090E+02  0.41836174280E+03  0.42482560711E+03  0.00000000000E+00 0. -1.
        -13    1    3    3    0    0  0.21028473336E+01  0.29311977876E+02  0.72561758375E+02  0.78286798327E+02  0.00000000000E+00 0. -1.
         13    1    3    3    0    0 -0.29314964686E+02 -0.67424790841E+02  0.17176616800E+03  0.18683973358E+03  0.00000000000E+00 0.  1.
         21    1    1    2  502  501 -0.16540539829E+01 -0.42097846797E+02  0.81631603518E+02  0.91862306157E+02  0.00000000000E+00 0.  1.
<scales pt_clust_5="13000.00000" pt_clust_6="13000.00000" pt_clust_7="13000.00000" pt_clust_8="13000.00000" pt_clust_9="42.13033"></scales>
<clustering>
<clus scale="   42.130">  2  9  1 -1</clus>
<clus scale="   91.667">  7  8 -1 -1</clus>
<clus scale="   91.681">  5  6 -1 -1</clus>
<clus scale="  115.081">  2  7  1 -1</clus>
<clus scale="  115.092">  1  5  2 -1</clus>
</clustering>
</event>
<event>
 9    1  0.1266593E-005  0.1171070E+03  0.7546771E-02  0.1248876E+00
          1   -1    0    0  502    0  0.00000000000E+00  0.00000000000E+00  0.61480451758E+03  0.61480451758E+03  0.00000000000E+00 0. -1.
         -1   -1    0    0    0  501 -0.00000000000E+00 -0.00000000000E+00 -0.29294399045E+02  0.29294399045E+02  0.00000000000E+00 0.  1.
         23    2    1    2    0    0 -0.25784310133E+02 -0.50675009171E+02  0.20750620191E+03  0.23467471098E+03  0.93704903508E+02 0.  0.
         23    2    1    2    0    0  0.53347467876E+02  0.53354556681E+02  0.34653065869E+03  0.36750197282E+03  0.96340757563E+02 0.  0.
        -11    1    4    4    0    0 -0.26080607611E+02 -0.76742798994E+00  0.82017915358E+02  0.86068144390E+02  0.00000000000E+00 0.  1.
         11    1    4    4    0    0  0.79428075487E+02  0.54121984671E+02  0.26451274333E+03  0.28143382843E+03  0.00000000000E+00 0. -1.
        -11    1    3    3    0    0 -0.78448731546E+01 -0.75649530157E+02  0.12154492764E+03  0.14337908803E+03  0.00000000000E+00 0.  1.
         11    1    3    3    0    0 -0.17939436978E+02  0.24974520987E+02  0.85961274269E+02  0.91295622959E+02  0.00000000000E+00 0. -1.
         21    1    1    2  502  501 -0.27563157743E+02 -0.26795475109E+01  0.31473257940E+02  0.41922232825E+02  0.00000000000E+00 0.  1.
<scales pt_clust_5="13000.00000" pt_clust_6="13000.00000" pt_clust_7="13000.00000" pt_clust_8="13000.00000" pt_clust_9="27.69310"></scales>
<clustering>
<clus scale="   27.693">  2  9  1 -1</clus>
<clus scale="   93.705">  7  8 -1 -1</clus>
<clus scale="   96.341">  5  6 -1 -1</clus>
<clus scale="  114.948">  2  7  1 -1</clus>
<clus scale="  117.107">  1  5  2 -1</clus>
</clustering>
</event>
<event>
 9    1  0.1266593E-005  0.1109942E+03  0.7546771E-02  0.1258845E+00
         -2   -1    0    0    0  501 -0.00000000000E+00  0.00000000000E+00  0.26817891492E+02  0.26817891492E+02  0.00000000000E+00 0.  1.
          2   -1    0    0  502    0  0.00000000000E+00 -0.00000000000E+00 -0.77371847771E+03  0.77371847771E+03  0.00000000000E+00 0. -1.
         23    2    1    2    0    0 -0.60768331606E+02 -0.48408419171E+02 -0.39601915541E+03  0.41384400077E+03  0.91648897124E+02 0.  0.
         23    2    1    2    0    0  0.46161873655E+02  0.19819089444E+02 -0.33504302098E+03  0.35089357497E+03  0.91371550057E+02 0.  0.
        -13    1    4    4    0    0  0.57799335758E+01 -0.29979314265E+02 -0.48844933506E+02  0.57602035078E+02  0.00000000000E+00 0. -1.
         13    1    4    4    0    0  0.40381940079E+02  0.49798403709E+02 -0.28619808747E+03  0.29329153989E+03  0.00000000000E+00 0.  1.
        -13    1    3    3    0    0 -0.77658547831E+02 -0.16033735022E+02 -0.21448994024E+03  0.22867851927E+03  0.00000000000E+00 0.  1.
         13    1    3    3    0    0  0.16890216225E+02 -0.32374684149E+02 -0.18152921517E+03  0.18516548150E+03  0.00000000000E+00 0. -1.
         21    1    1    2  502  501  0.14606457951E+02  0.28589329727E+02 -0.15838409828E+02  0.35798793471E+02  0.00000000000E+00 0. -1.
<scales pt_clust_5="13000.00000" pt_clust_6="13000.00000" pt_clust_7="13000.00000" pt_clust_8="13000.00000" pt_clust_9="32.10449"></scales>
<clustering>
<clus scale="   32.104">  1  9  2 -1</clus>
<clus scale="   91.372">  5  6 -1 -1</clus>
<clus scale="   91.649">  7  8 -1 -1</clus>
<clus scale="  110.765">  2  5  1 -1</clus>
<clus scale="  110.765">  2  5  1 -1</clus>
</clustering>
</event>
<event>
 9    1  0.1266593E-005  0.1012519E+03  0.7546771E-02  0.1279701E+00
         -1   -1    0    0    0  501 -0.00000000000E+00  0.00000000000E+00  0.10224066263E+03  0.10224066263E+03  0.00000000000E+00 0.  1.
          1   -1    0    0  502    0  0.00000000000E+00 -0.00000000000E+00 -0.24616967580E+03  0.24616967580E+03  0.00000000000E+00 0. -1.
         23    2    1    2    0    0  0.48234822638E+02 -0.38634698432E+02  0.34207803419E+02  0.11452613066E+03  0.90148892124E+02 0.  0.
         23    2    1    2    0    0 -0.25381903942E+02  0.35853773894E+02 -0.18603963698E+03  0.20954403512E+03  0.85838347932E+02 0.  0.
        -11    1    4    4    0    0  0.33078036095E+01  0.54997998584E+02 -0.14934514262E+03  0.15918446229E+03  0.00000000000E+00 0. -1.
         11    1    4    4    0    0 -0.28689707552E+02 -0.19144224690E+02 -0.36694494367E+02  0.50359572826E+02  0.00000000000E+00 0.  1.
        -13    1    3    3    0    0  0.49380138900E+02  0.61995756256E+01  0.46407368159E+02  0.68047605947E+02  0.00000000000E+00 0.  1.
         13    1    3    3    0    0 -0.11453162620E+01 -0.44834274058E+02 -0.12199564739E+02  0.46478524713E+02  0.00000000000E+00 0. -1.
         21    1    1    2  502  501 -0.22852918695E+02  0.27809245379E+01  0.79028203940E+01  0.24340172645E+02  0.00000000000E+00 0. -1.
<scales pt_clust_5="13000.00000" pt_clust_6="13000.00000" pt_clust_7="13000.00000" pt_clust_8="13000.00000" pt_clust_9="23.02150"></scales>
<clustering>
<clus scale="   23.021">  1  9  2 -1</clus>
<clus scale="   85.838">  5  6 -1 -1</clus>
<clus scale="   90.149">  7  8 -1 -1</clus>
<clus scale="   97.434">  2  5  1 -1</clus>
<clus scale="   97.434">  2  5  1 -1</clus>
</clustering>
</event>
<event>
 9    1  0.1266593E-005  0.2436266E+03  0.7546771E-02  0.1117419E+00
          1   -1    0    0  502    0  0.00000000000E+00  0.00000000000E+00  0.70808496670E+03  0.70808496670E+03  0.00000000000E+00 0. -1.
         -1   -1    0    0    0  501 -0.00000000000E+00 -0.00000000000E+00 -0.11919008222E+03  0.11919008222E+03  0.00000000000E+00 0.  1.
         23    2    1    2    0    0  0.20647226502E+03  0.44683938824E+02  0.10205478655E+03  0.25135743083E+03  0.90210464834E+02 0.  0.
         23    2    1    2    0    0 -0.22832395676E+03 -0.41953353028E+02  0.49356191550E+03  0.55289294954E+03  0.90528095920E+02 0.  0.
        -13    1    4    4    0    0 -0.62638259153E+02 -0.32668873230E+01  0.58600231626E+02  0.85838285218E+02  0.00000000000E+00 0.  1.
         13    1    4    4    0    0 -0.16568569761E+03 -0.38686465705E+02  0.43496168388E+03  0.46705466432E+03  0.00000000000E+00 0. -1.
        -13    1    3    3    0    0  0.15179735423E+03 -0.93283786637E+01  0.77388510765E+02  0.17064125233E+03  0.00000000000E+00 0.  1.
         13    1    3    3    0    0  0.54674910793E+02  0.54012317488E+02  0.24666275781E+02  0.80716178500E+02  0.00000000000E+00 0. -1.
         21    1    1    2  502  501  0.21851691735E+02 -0.27305857957E+01 -0.67218175753E+01  0.23024668554E+02  0.00000000000E+00 0.  1.
<scales pt_clust_5="13000.00000" pt_clust_6="13000.00000" pt_clust_7="13000.00000" pt_clust_8="13000.00000" pt_clust_9="22.02164"></scales>
<clustering>
<clus scale="   22.022">  2  9  1 -1</clus>
<clus scale="   90.210">  7  8 -1 -1</clus>
<clus scale="   90.528">  5  6 -1 -1</clus>
<clus scale="  243.509">  2  7  1 -1</clus>
<clus scale="  243.627">  1  5  2 -1</clus>
</clustering>
</event>
<event>
 9    1  0.1266593E-005  0.1644745E+03  0.7546771E-02  0.1183989E+00
          1   -1    0    0  502    0  0.00000000000E+00  0.00000000000E+00  0.53079801808E+03  0.53079801808E+03  0.00000000000E+00 0. -1.
         -1   -1    0    0    0  501 -0.00000000000E+00 -0.00000000000E+00 -0.79393345121E+02  0.79393345121E+02  0.00000000000E+00 0.  1.
         23    2    1    2    0    0 -0.16164010471E+03 -0.57409148137E+01  0.19706152199E+03  0.27114733496E+03  0.92342580925E+02 0.  0.
         23    2    1    2    0    0  0.12021780244E+03 -0.22684764064E+02  0.24420294724E+03  0.28779317384E+03  0.90680278584E+02 0.  0.
        -13    1    3    3    0    0 -0.97326056443E+02 -0.48529755459E+02  0.10833505947E+03  0.15350564660E+03  0.00000000000E+00 0. -1.
         13    1    3    3    0    0 -0.64314048271E+02  0.42788840646E+02  0.88726462523E+02  0.11764168836E+03  0.00000000000E+00 0.  1.
        -13    1    4    4    0    0  0.64061789980E+02 -0.56907935502E+02  0.15287827163E+03  0.17525464899E+03  0.00000000000E+00 0. -1.
         13    1    4    4    0    0  0.56156012458E+02  0.34223171437E+02  0.91324675612E+02  0.11253852484E+03  0.00000000000E+00 0.  1.
         21    1    1    2  502  501  0.41422302277E+02  0.28425678878E+02  0.10140203733E+02  0.51250854406E+02  0.00000000000E+00 0.  1.
<scales pt_clust_5="13000.00000" pt_clust_6="13000.00000" pt_clust_7="13000.00000" pt_clust_8="13000.00000" pt_clust_9="50.23770"></scales>
<clustering>
<clus scale="   50.238">  2  9  1 -1</clus>
<clus scale="   90.680">  7  8 -1 -1</clus>
<clus scale="   92.343">  5  6 -1 -1</clus>
<clus scale="  163.547">  1  7  2 -1</clus>
<clus scale="  163.547">  1  5  2 -1</clus>
</clustering>
</event>
<event>
 9    1  0.1266593E-005  0.1375171E+03  0.7546771E-02  0.1217178E+00
          1   -1    0    0  502    0  0.00000000000E+00  0.00000000000E+00  0.10297574898E+03  0.10297574898E+03  0.00000000000E+00 0. -1.
         -1   -1    0    0    0  501 -0.00000000000E+00 -0.00000000000E+00 -0.44609478357E+03  0.44609478357E+03  0.00000000000E+00 0.  1.
         23    2    1    2    0    0 -0.65246771095E+02 -0.20043203688E+02 -0.23535430895E+03  0.26141399303E+03  0.91031609120E+02 0.  0.
         23    2    1    2    0    0  0.99864016819E+02  0.49679971562E+02  0.27163284657E+02  0.14524074097E+03  0.88972509091E+02 0.  0.
        -11    1    3    3    0    0  0.19171893832E+02  0.11332818871E+02 -0.65144811993E+02  0.68846501918E+02  0.00000000000E+00 0.  1.
         11    1    3    3    0    0 -0.84418664927E+02 -0.31376022559E+02 -0.17020949696E+03  0.19256749112E+03  0.00000000000E+00 0. -1.
        -13    1    4    4    0    0  0.45095897890E+02  0.59834016850E+02  0.44201725815E+02  0.86991621114E+02  0.00000000000E+00 0. -1.
         13    1    4    4    0    0  0.54768118929E+02 -0.10154045288E+02 -0.17038441158E+02  0.58249119854E+02  0.00000000000E+00 0.  1.
         21    1    1    2  502  501 -0.34617245724E+02 -0.29636767874E+02 -0.13492801030E+03  0.14241579854E+03  0.00000000000E+00 0.  1.
<scales pt_clust_5="13000.00000" pt_clust_6="13000.00000" pt_clust_7="13000.00000" pt_clust_8="13000.00000" pt_clust_9="45.57073"></scales>
<clustering>
<clus scale="   45.571">  2  9  1 -1</clus>
<clus scale="   88.973">  7  8 -1 -1</clus>
<clus scale="   91.032">  5  6 -1 -1</clus>
<clus scale="  136.163">  1  7  2 -1</clus>
<clus scale="  136.163">  1  5  2 -1</clus>
</clustering>
</event>
<event>
 9    1  0.1266593E-005  0.1028558E+03  0.7546771E-02  0.1274803E+00
          1   -1    0    0  502    0  0.00000000000E+00  0.00000000000E+00  0.53874571581E+02  0.53874571581E+02  0.00000000000E+00 0. -1.
         -1   -1    0    0    0  501 -0.00000000000E+00 -0.00000000000E+00 -0.40824821909E+03  0.40824821909E+03  0.00000000000E+00 0.  1.
         23    2    1    2    0    0  0.33830210956E+01 -0.32369778519E+02 -0.30652612758E+03  0.32134834683E+03  0.90814347596E+02 0.  0.
         23    2    1    2    0    0 -0.17767803538E+02  0.48465941186E+02 -0.20094542592E+02  0.10561429353E+03  0.89921888651E+02 0.  0.
        -11    1    3    3    0    0 -0.29401702979E+02 -0.50068551833E+02 -0.16176978745E+03  0.17187432663E+03  0.00000000000E+00 0.  1.
         11    1    3    3    0    0  0.32784724074E+02  0.17698773314E+02 -0.14475634012E+03  0.14947402020E+03  0.00000000000E+00 0. -1.
        -13    1    4    4    0    0  0.17856634507E+02  0.32214509724E+02  0.26036468286E+02  0.45105783592E+02  0.00000000000E+00 0. -1.
         13    1    4    4    0    0 -0.35624438044E+02  0.16251431463E+02 -0.46131010877E+02  0.60508509940E+02  0.00000000000E+00 0.  1.
         21    1    1    2  502  501  0.14384782442E+02 -0.16096162668E+02 -0.27752977338E+02  0.35160150308E+02  0.00000000000E+00 0.  1.
<scales pt_clust_5="13000.00000" pt_clust_6="13000.00000" pt_clust_7="13000.00000" pt_clust_8="13000.00000" pt_clust_9="21.58723"></scales>
<clustering>
<clus scale="   21.587">  2  9  1 -1</clus>
<clus scale="   89.922">  7  8 -1 -1</clus>
<clus scale="   90.814">  5  6 -1 -1</clus>
<clus scale="  102.069">  1  7  2 -1</clus>
<clus scale="  102.069">  1  5  2 -1</clus>
</clustering>
</event>
<event>
 9    1  0.1266593E-005  0.1406483E+03  0.7546771E-02  0.1214477E+00
          1   -1    0    0  502    0  0.00000000000E+00  0.00000000000E+00  0.23085325212E+03  0.23085325212E+03  0.00000000000E+00 0. -1.
         -1   -1    0    0    0  501 -0.00000000000E+00 -0.00000000000E+00 -0.12174581951E+03  0.12174581951E+03  0.00000000000E+00 0.  1.
         23    2    1    2    0    0  0.91788172712E+02  0.12632460077E+02  0.39388695889E+02  0.13060143349E+03  0.83190248039E+02 0.  0.
         23    2    1    2    0    0 -0.11308514701E+03 -0.35859106455E+02  0.98121583744E+02  0.17957406055E+03  0.92438477023E+02 0.  0.
        -11    1    4    4    0    0 -0.75104753911E+01 -0.31611549010E+02 -0.38676491834E+01  0.32720879903E+02  0.00000000000E+00 0.  1.
         11    1    4    4    0    0 -0.10557467162E+03 -0.42475574451E+01  0.10198923293E+03  0.14685318064E+03  0.00000000000E+00 0. -1.
        -13    1    3    3    0    0  0.85102535618E+02 -0.80098244024E+01  0.56928489950E+02  0.10270078784E+03  0.00000000000E+00 0.  1.
         13    1    3    3    0    0  0.66856370938E+01  0.20642284480E+02 -0.17539794061E+02  0.27900645648E+02  0.00000000000E+00 0. -1.
         21    1    1    2  502  501  0.21296974301E+02  0.23226646378E+02 -0.28402847026E+02  0.42423577590E+02  0.00000000000E+00 0.  1.
<scales pt_clust_5="13000.00000" pt_clust_6="13000.00000" pt_clust_7="13000.00000" pt_clust_8="13000.00000" pt_clust_9="31.51251"></scales>
<clustering>
<clus scale="   31.513">  2  9  1 -1</clus>
<clus scale="   83.190">  7  8 -1 -1</clus>
<clus scale="   92.438">  5  6 -1 -1</clus>
<clus scale="  134.750">  2  7  1 -1</clus>
<clus scale="  140.648">  1  5  2 -1</clus>
</clustering>
</event>
<event>
 9    1  0.1266593E-005  0.9283212E+02  0.7546771E-02  0.1302739E+00
          2   -1    0    0  502    0  0.00000000000E+00  0.00000000000E+00  0.17825748356E+03  0.17825748356E+03  0.00000000000E+00 0. -1.
         -2   -1    0    0    0  501 -0.00000000000E+00 -0.00000000000E+00 -0.77813482493E+02  0.77813482493E+02  0.00000000000E+00 0.  1.
         23    2    1    2    0    0 -0.81474265307E+01 -0.11998725417E+01  0.40457127906E+02  0.90804768692E+02  0.80875871344E+02 0.  0.
         23    2    1    2    0    0 -0.35956585037E+02 -0.15172802754E+02  0.63396748907E+02  0.11809782252E+03  0.91678012416E+02 0.  0.
        -11    1    3    3    0    0 -0.41181083454E+02  0.14363106146E+02  0.14343263147E+02  0.45911977199E+02  0.00000000000E+00 0. -1.
         11    1    3    3    0    0  0.33033656924E+02 -0.15562978688E+02  0.26113864759E+02  0.44892791493E+02  0.00000000000E+00 0.  1.
        -13    1    4    4    0    0 -0.52152082541E+02 -0.31726243148E+02  0.71082918181E+02  0.93697254361E+02  0.00000000000E+00 0. -1.
         13    1    4    4    0    0  0.16195497504E+02  0.16553440394E+02 -0.76861692735E+01  0.24400568157E+02  0.00000000000E+00 0.  1.
         21    1    1    2  502  501  0.44104011568E+02  0.16372675296E+02 -0.34098757463E+01  0.47168374843E+02  0.00000000000E+00 0.  1.
<scales pt_clust_5="13000.00000" pt_clust_6="13000.00000" pt_clust_7="13000.00000" pt_clust_8="13000.00000" pt_clust_9="47.04496"></scales>
<clustering>
<clus scale="   47.045">  2  9  1 -1</clus>
<clus scale="   80.876">  5  6 -1 -1</clus>
<clus scale="   82.182">  2  5  1 -1</clus>
<clus scale="   91.678">  7  8 -1 -1</clus>
<clus scale="   92.832">  1  5  2 -1</clus>
</clustering>
</event>
<event>
 9    1  0.1266593E-005  0.1140137E+03  0.7546771E-02  0.1266501E+00
         -3   -1    0    0    0  501 -0.00000000000E+00  0.00000000000E+00  0.28052097219E+03  0.28052097219E+03  0.00000000000E+00 0.  1.
          3   -1    0    0  502    0  0.00000000000E+00 -0.00000000000E+00 -0.64742052513E+02  0.64742052513E+02  0.00000000000E+00 0. -1.
         23    2    1    2    0    0 -0.56379900791E+02  0.18710311024E+02  0.15351088935E+03  0.17558894955E+03  0.61131964646E+02 0.  0.
         23    2    1    2    0    0  0.66928884326E+02 -0.47476280886E+02  0.39471682959E+02  0.13148460633E+03  0.94851015509E+02 0.  0.
        -13    1    3    3    0    0 -0.54301417615E+02 -0.11035439826E+02  0.98485543623E+02  0.11300366007E+03  0.00000000000E+00 0. -1.
         13    1    3    3    0    0 -0.20784831764E+01  0.29745750850E+02  0.55025345730E+02  0.62585289475E+02  0.00000000000E+00 0.  1.
        -13    1    4    4    0    0  0.38838275042E+01 -0.31525255346E+02 -0.24612599605E+02  0.40183403290E+02  0.00000000000E+00 0. -1.
         13    1    4    4    0    0  0.63045056822E+02 -0.15951025540E+02  0.64084282564E+02  0.91301203043E+02  0.00000000000E+00 0.  1.
         21    1    1    2  502  501 -0.10548983535E+02  0.28765969862E+02  0.22796347367E+02  0.38189468823E+02  0.00000000000E+00 0.  1.
<scales pt_clust_5="13000.00000" pt_clust_6="13000.00000" pt_clust_7="13000.00000" pt_clust_8="13000.00000" pt_clust_9="30.63922"></scales>
<clustering>
<clus scale="   30.639">  2  9  1 -1</clus>
<clus scale="   61.132">  5  6 -1 -1</clus>
<clus scale="   87.975">  1  5  2 -1</clus>
<clus scale="   94.851">  7  8 -1 -1</clus>
<clus scale="   30.639">  2  5  1 -1</clus>
</clustering>
</event>
<event>
 9    1  0.1266593E-005  0.9531139E+02  0.7546771E-02  0.1292267E+00
          4   -1    0    0  502    0  0.00000000000E+00  0.00000000000E+00  0.90985416978E+02  0.90985416978E+02  0.00000000000E+00 0. -1.
         -4   -1    0    0    0  501 -0.00000000000E+00 -0.00000000000E+00 -0.14891732061E+03  0.14891732061E+03  0.00000000000E+00 0.  1.
         23    2    1    2    0    0 -0.31132531133E+02 -0.16385926764E+02 -0.26986392912E+02  0.10065161117E+03  0.90358996997E+02 0.  0.
         23    2    1    2    0    0  0.29771554918E+02 -0.10014690998E+02  0.72261353161E+01  0.92819246898E+02  0.87043414714E+02 0.  0.
        -13    1    3    3    0    0 -0.17395774557E+02 -0.34267573838E+02 -0.53483502885E+02  0.65858671942E+02  0.00000000000E+00 0.  1.
         13    1    3    3    0    0 -0.13736756576E+02  0.17881647074E+02  0.26497109973E+02  0.34792939229E+02  0.00000000000E+00 0. -1.
        -13    1    4    4    0    0 -0.23875845983E+02  0.11270125414E+02  0.20702832984E+02  0.33551140693E+02  0.00000000000E+00 0. -1.
         13    1    4    4    0    0  0.53647400901E+02 -0.21284816411E+02 -0.13476697668E+02  0.59268106205E+02  0.00000000000E+00 0.  1.
         21    1    1    2  502  501  0.13609762151E+01  0.26400617762E+02 -0.38171646032E+02  0.46431879514E+02  0.00000000000E+00 0. -1.
<scales pt_clust_5="13000.00000" pt_clust_6="13000.00000" pt_clust_7="13000.00000" pt_clust_8="13000.00000" pt_clust_9="26.43567"></scales>
<clustering>
<clus scale="   26.436">  2  9  1 -1</clus>
<clus scale="   87.043">  7  8 -1 -1</clus>
<clus scale="   90.359">  5  6 -1 -1</clus>
<clus scale="   92.174">  1  7  2 -1</clus>
<clus scale="   92.174">  1  5  2 -1</clus>
</clustering>
</event>
<event>
 9    1  0.1266593E-005  0.1299456E+03  0.7546771E-02  0.1227759E+00
         -1   -1    0    0    0  501 -0.00000000000E+00  0.00000000000E+00  0.44091103920E+03  0.44091103920E+03  0.00000000000E+00 0.  1.
          1   -1    0    0  502    0  0.00000000000E+00 -0.00000000000E+00 -0.97066721173E+02  0.97066721173E+02  0.00000000000E+00 0. -1.
         23    2    1    2    0    0  0.60267763883E+02  0.17250384690E+02  0.30740801632E+03  0.32663879903E+03  0.90903450968E+02 0.  0.
         23    2    1    2    0    0 -0.97225109572E+02  0.13996072939E+02 -0.21202946651E+02  0.13607629154E+03  0.91752821120E+02 0.  0.
        -11    1    4    4    0    0 -0.11151676189E+03 -0.21634027863E+01 -0.24652260895E+02  0.11422960414E+03  0.00000000000E+00 0. -1.
         11    1    4    4    0    0  0.14291652318E+02  0.16159475725E+02  0.34493142438E+01  0.21846687402E+02  0.00000000000E+00 0.  1.
        -13    1    3    3    0    0  0.39577387425E+02  0.38391690316E+02  0.28290216370E+03  0.28822547720E+03  0.00000000000E+00 0.  1.
         13    1    3    3    0    0  0.20690376458E+02 -0.21141305626E+02  0.24505852628E+02  0.38413321837E+02  0.00000000000E+00 0. -1.
         21    1    1    2  502  501  0.36957345690E+02 -0.31246457629E+02  0.57639248356E+02  0.75262669803E+02  0.00000000000E+00 0. -1.
<scales pt_clust_5="13000.00000" pt_clust_6="13000.00000" pt_clust_7="13000.00000" pt_clust_8="13000.00000" pt_clust_9="48.39614"></scales>
<clustering>
<clus scale="   48.396">  1  9  2 -1</clus>
<clus scale="   90.903">  7  8 -1 -1</clus>
<clus scale="   91.753">  5  6 -1 -1</clus>
<clus scale="  129.347">  1  7  2 -1</clus>
<clus scale="  129.946">  2  5  1 -1</clus>
</clustering>
</event>
<event>
 9    1  0.1266593E-005  0.1041985E+03  0.7546771E-02  0.1271749E+00
          3   -1    0    0  502    0  0.00000000000E+00  0.00000000000E+00  0.28602488919E+03  0.28602488919E+03  0.00000000000E+00 0. -1.
         -3   -1    0    0    0  501 -0.00000000000E+00 -0.00000000000E+00 -0.89668756278E+02  0.89668756278E+02  0.00000000000E+00 0.  1.
         23    2    1    2    0    0  0.88945806497E+02  0.14295619520E+02  0.11214901824E+03  0.17018855612E+03  0.90945154409E+02 0.  0.
         23    2    1    2    0    0 -0.16671972138E+02  0.29067467071E+02  0.70938669685E+02  0.12018266531E+03  0.91042330193E+02 0.  0.
        -13    1    3    3    0    0  0.64869825672E+02  0.15827069717E+00  0.11681086974E+02  0.65913330406E+02  0.00000000000E+00 0.  1.
         13    1    3    3    0    0  0.24075980825E+02  0.14137348822E+02  0.10046793127E+03  0.10427522571E+03  0.00000000000E+00 0. -1.
        -13    1    4    4    0    0 -0.49084573419E+01  0.51593998177E+02  0.81730143122E+01  0.52467435275E+02  0.00000000000E+00 0.  1.
         13    1    4    4    0    0 -0.11763514796E+02 -0.22526531106E+02  0.62765655372E+02  0.67715230033E+02  0.00000000000E+00 0. -1.
         21    1    1    2  502  501 -0.72273834359E+02 -0.43363086591E+02  0.13268444984E+02  0.85322424039E+02  0.00000000000E+00 0. -1.
<scales pt_clust_5="13000.00000" pt_clust_6="13000.00000" pt_clust_7="13000.00000" pt_clust_8="13000.00000" pt_clust_9="84.28443"></scales>
<clustering>
<clus scale="   84.284">  2  9  1 -1</clus>
<clus scale="   90.945">  5  6 -1 -1</clus>
<clus scale="   91.042">  7  8 -1 -1</clus>
<clus scale="  104.114">  2  5  1 -1</clus>
<clus scale="  104.198">  1  5  2 -1</clus>
</clustering>
</event>
<event>
 9    1  0.1266593E-005  0.9497991E+02  0.7546771E-02  0.1300127E+00
         -2   -1    0    0    0  501 -0.00000000000E+00  0.00000000000E+00  0.31440959990E+02  0.31440959990E+02  0.00000000000E+00 0.  1.
          2   -1    0    0  502    0  0.00000000000E+00 -0.00000000000E+00 -0.44179192435E+03  0.44179192435E+03  0.00000000000E+00 0. -1.
         23    2    1    2    0    0 -0.39573893390E+01  0.78315687286E+01 -0.86384110082E+02  0.12797068040E+03  0.94006841068E+02 0.  0.
         23    2    1    2    0    0  0.11735454856E+02  0.13293946980E+02 -0.30552547659E+03  0.31616117083E+03  0.79357540078E+02 0.  0.
        -11    1    3    3    0    0  0.20819396750E+02  0.22883944986E+02  0.56759467998E+01  0.31453753214E+02  0.00000000000E+00 0.  1.
         11    1    3    3    0    0 -0.24776786089E+02 -0.15052376258E+02 -0.92060056882E+02  0.96516927184E+02  0.00000000000E+00 0. -1.
        -13    1    4    4    0    0  0.15866171513E+02 -0.31518231991E+02 -0.10988697204E+03  0.11541352161E+03  0.00000000000E+00 0.  1.
         13    1    4    4    0    0 -0.41307166570E+01  0.44812178971E+02 -0.19563850455E+03  0.20074764922E+03  0.00000000000E+00 0. -1.
         21    1    1    2  502  501 -0.77780655174E+01 -0.21125515709E+02 -0.18441377684E+02  0.29101033110E+02  0.00000000000E+00 0. -1.
<scales pt_clust_5="13000.00000" pt_clust_6="13000.00000" pt_clust_7="13000.00000" pt_clust_8="13000.00000" pt_clust_9="22.51190"></scales>
<clustering>
<clus scale="   22.512">  1  9  2 -1</clus>
<clus scale="   79.358">  7  8 -1 -1</clus>
<clus scale="   80.508">  2  7  1 -1</clus>
<clus scale="   94.007">  5  6 -1 -1</clus>
<clus scale="   80.508">  2  5  1 -1</clus>
</clustering>
</event>
<event>
 9    1  0.1266593E-005  0.3791231E+03  0.7546771E-02  0.1099679E+00
         -1   -1    0    0    0  501 -0.00000000000E+00  0.00000000000E+00  0.44420510533E+03  0.44420510533E+03  0.00000000000E+00 0.  1.
          1   -1    0    0  502    0  0.00000000000E+00 -0.00000000000E+00 -0.43954186520E+03  0.43954186520E+03  0.00000000000E+00 0. -1.
         23    2    1    2    0    0 -0.24530698920E+03 -0.25178989652E+03 -0.14828486469E+02  0.37247092219E+03  0.12223351801E+03 0.  0.
         23    2    1    2    0    0 -0.36025214512E+02  0.19287253591E+02 -0.84047688252E+02  0.13190064291E+03  0.93080349525E+02 0.  0.
        -13    1    3    3    0    0 -0.16412474264E+03 -0.15981439926E+03 -0.67714596985E+02  0.23887829538E+03  0.00000000000E+00 0. -1.
         13    1    3    3    0    0 -0.81182246568E+02 -0.91975497258E+02  0.52886110516E+02  0.13359262681E+03  0.00000000000E+00 0.  1.
        -13    1    4    4    0    0  0.29011063663E+02 -0.87429701106E+01 -0.19160063889E+02  0.35849538204E+02  0.00000000000E+00 0.  1.
         13    1    4    4    0    0 -0.65036278175E+02  0.28030223702E+02 -0.64887624363E+02  0.96051104705E+02  0.00000000000E+00 0. -1.
         21    1    1    2  502  501  0.28133220372E+03  0.23250264293E+03  0.10353941485E+03  0.37937540543E+03  0.00000000000E+00 0.  1.
<scales pt_clust_5="13000.00000" pt_clust_6="13000.00000" pt_clust_7="13000.00000" pt_clust_8="13000.00000" pt_clust_9="358.87782"></scales>
<clustering>
<clus scale="   93.080">  7  8 -1 -1</clus>
<clus scale="  101.655">  2  7  1 -1</clus>
<clus scale="  122.234">  5  6 -1 -1</clus>
<clus scale="  358.878">  1  9  2 -1</clus>
<clus scale="  101.655">  2  5  1 -1</clus>
</clustering>
</event>
<event>
 9    1  0.1266593E-005  0.1139477E+03  0.7546771E-02  0.1253458E+00
         -2   -1    0    0    0  501 -0.00000000000E+00  0.00000000000E+00  0.16741166108E+03  0.16741166108E+03  0.00000000000E+00 0.  1.
          2   -1    0    0  502    0  0.00000000000E+00 -0.00000000000E+00 -0.58502808043E+03  0.58502808043E+03  0.00000000000E+00 0. -1.
         23    2    1    2    0    0  0.57049433504E+02 -0.83820853945E+02  0.92114652641E+02  0.16442879731E+03  0.90945845057E+02 0.  0.
         23    2    1    2    0    0 -0.32130296165E+02  0.58977966993E+02 -0.53363888850E+03  0.54547018577E+03  0.90865305413E+02 0.  0.
        -11    1    4    4    0    0  0.25077483197E+02  0.48372967646E+02 -0.23752316324E+03  0.24369258757E+03  0.00000000000E+00 0.  1.
         11    1    4    4    0    0 -0.57207779361E+02  0.10604999348E+02 -0.29611572526E+03  0.30177759820E+03  0.00000000000E+00 0. -1.
        -13    1    3    3    0    0  0.72926962061E+01 -0.62776990908E+02  0.90497366603E+02  0.11038073821E+03  0.00000000000E+00 0.  1.
         13    1    3    3    0    0  0.49756737298E+02 -0.21043863037E+02  0.16172860381E+01  0.54048059098E+02  0.00000000000E+00 0. -1.
         21    1    1    2  502  501 -0.24919137340E+02  0.24842886952E+02  0.23907816505E+02  0.42540758431E+02  0.00000000000E+00 0. -1.
<scales pt_clust_5="13000.00000" pt_clust_6="13000.00000" pt_clust_7="13000.00000" pt_clust_8="13000.00000" pt_clust_9="35.18711"></scales>
<clustering>
<clus scale="   35.187">  1  9  2 -1</clus>
<clus scale="   90.865">  5  6 -1 -1</clus>
<clus scale="   90.946">  7  8 -1 -1</clus>
<clus scale="  113.883">  2  5  1 -1</clus>
<clus scale="  113.883">  2  5  1 -1</clus>
</clustering>
</event>
<event>
 9    1  0.1266593E-005  0.2002738E+03  0.7546771E-02  0.1149515E+00
         -1   -1    0    0    0  501 -0.00000000000E+00  0.00000000000E+00  0.11788852939E+04  0.11788852939E+04  0.00000000000E+00 0.  1.
          1   -1    0    0  502    0  0.00000000000E+00 -0.00000000000E+00 -0.72184704023E+02  0.72184704023E+02  0.00000000000E+00 0. -1.
         23    2    1    2    0    0 -0.26332437386E+02 -0.13209107790E+03  0.84257283244E+03  0.85801046306E+03  0.90064014029E+02 0.  0.
         23    2    1    2    0    0  0.36258810590E+02  0.18482910690E+03  0.12363629480E+03  0.24266776760E+03  0.90139957495E+02 0.  0.
        -11    1    3    3    0    0  0.11306979602E+02 -0.12155404101E+03  0.67389003549E+03  0.68485838872E+03  0.00000000000E+00 0.  1.
         11    1    3    3    0    0 -0.37639416987E+02 -0.10537036895E+02  0.16868279695E+03  0.17315207433E+03  0.00000000000E+00 0. -1.
        -11    1    4    4    0    0 -0.13926811579E+02  0.12306142378E+03  0.47846369298E+02  0.13276801256E+03  0.00000000000E+00 0.  1.
         11    1    4    4    0    0  0.50185622169E+02  0.61767683116E+02  0.75789925501E+02  0.10989975504E+03  0.00000000000E+00 0. -1.
         21    1    1    2  502  501 -0.99263732044E+01 -0.52738028997E+02  0.14049146260E+03  0.15039176723E+03  0.00000000000E+00 0.  1.
<scales pt_clust_5="13000.00000" pt_clust_6="13000.00000" pt_clust_7="13000.00000" pt_clust_8="13000.00000" pt_clust_9="53.66407"></scales>
<clustering>
<clus scale="   53.664">  1  9  2 -1</clus>
<clus scale="   90.064">  5  6 -1 -1</clus>
<clus scale="   90.140">  7  8 -1 -1</clus>
<clus scale="  200.240">  1  5  2 -1</clus>
<clus scale="  200.274">  2  5  1 -1</clus>
</clustering>
</event>
<event>
 9    1  0.1266593E-005  0.1029474E+03  0.7546771E-02  0.1274419E+00
         -1   -1    0    0    0  501 -0.00000000000E+00  0.00000000000E+00  0.59378851534E+02  0.59378851534E+02  0.00000000000E+00 0.  1.
          1   -1    0    0  502    0  0.00000000000E+00 -0.00000000000E+00 -0.35217987843E+03  0.35217987843E+03  0.00000000000E+00 0. -1.
         23    2    1    2    0    0  0.41958263622E+01 -0.20757242986E+02 -0.13013990790E+02  0.94675835144E+02  0.91354702718E+02 0.  0.
         23    2    1    2    0    0 -0.11277433537E+02  0.53120224410E+02 -0.25304436646E+03  0.27430729023E+03  0.90907091722E+02 0.  0.
        -13    1    4    4    0    0 -0.35803216428E+02 -0.95314265319E+01 -0.68451814306E+02  0.77835527108E+02  0.00000000000E+00 0.  1.
         13    1    4    4    0    0  0.24525782890E+02  0.62651650942E+02 -0.18459255215E+03  0.19647176312E+03  0.00000000000E+00 0. -1.
        -13    1    3    3    0    0  0.41111250317E+02  0.11562033173E+02 -0.15793819848E+02  0.45533067754E+02  0.00000000000E+00 0. -1.
         13    1    3    3    0    0 -0.36915423955E+02 -0.32319276159E+02  0.27798290581E+01  0.49142767390E+02  0.00000000000E+00 0.  1.
         21    1    1    2  502  501  0.70816071752E+01 -0.32362981424E+02 -0.26742669651E+02  0.42575604598E+02  0.00000000000E+00 0. -1.
<scales pt_clust_5="13000.00000" pt_clust_6="13000.00000" pt_clust_7="13000.00000" pt_clust_8="13000.00000" pt_clust_9="33.12871"></scales>
<clustering>
<clus scale="   33.129">  1  9  2 -1</clus>
<clus scale="   90.907">  5  6 -1 -1</clus>
<clus scale="   91.355">  7  8 -1 -1</clus>
<clus scale="  102.550">  2  5  1 -1</clus>
<clus scale="  102.550">  2  5  1 -1</clus>
</clustering>
</event>
<event>
 9    1  0.1266593E-005  0.9393953E+02  0.7546771E-02  0.1294254E+00
         -2   -1    0    0    0  501 -0.00000000000E+00  0.00000000000E+00  0.75343247265E+02  0.75343247265E+02  0.00000000000E+00 0.  1.
          2   -1    0    0  502    0  0.00000000000E+00 -0.00000000000E+00 -0.21822216790E+03  0.21822216790E+03  0.00000000000E+00 0. -1.
         23    2    1    2    0    0  0.26042017146E+02  0.13695886310E+02 -0.69862991744E+02  0.11903935862E+03  0.91781083711E+02 0.  0.
         23    2    1    2    0    0  0.71685310126E+01 -0.95263782647E+01 -0.95812131548E+02  0.13402923985E+03  0.92960921164E+02 0.  0.
        -11    1    3    3    0    0  0.27928661886E+02  0.36951898028E+02 -0.80905092941E+02  0.93225999519E+02  0.00000000000E+00 0. -1.
         11    1    3    3    0    0 -0.18866447398E+01 -0.23256011718E+02  0.11042101197E+02  0.25813359104E+02  0.00000000000E+00 0.  1.
        -13    1    4    4    0    0  0.25155583351E+02 -0.37272981893E+02 -0.16154777211E+02  0.47781328777E+02  0.00000000000E+00 0.  1.
         13    1    4    4    0    0 -0.17987052339E+02  0.27746603629E+02 -0.79657354337E+02  0.86247911075E+02  0.00000000000E+00 0. -1.
         21    1    1    2  502  501 -0.33210548159E+02 -0.41695080453E+01  0.22796202658E+02  0.40496816689E+02  0.00000000000E+00 0.  1.
<scales pt_clust_5="13000.00000" pt_clust_6="13000.00000" pt_clust_7="13000.00000" pt_clust_8="13000.00000" pt_clust_9="33.47126"></scales>
<clustering>
<clus scale="   33.471">  1  9  2 -1</clus>
<clus scale="   91.781">  5  6 -1 -1</clus>
<clus scale="   92.772">  1  5  2 -1</clus>
<clus scale="   92.961">  7  8 -1 -1</clus>
<clus scale="   93.940">  2  5  1 -1</clus>
</clustering>
</event>
<event>
 9    1  0.1266593E-005  0.9704814E+02  0.7546771E-02  0.1289805E+00
          2   -1    0    0  502    0  0.00000000000E+00  0.00000000000E+00  0.33321589896E+03  0.33321589896E+03  0.00000000000E+00 0. -1.
         -2   -1    0    0    0  501 -0.00000000000E+00 -0.00000000000E+00 -0.52487492809E+02  0.52487492809E+02  0.00000000000E+00 0.  1.
         23    2    1    2    0    0 -0.29150277829E+02 -0.92491481373E+01  0.76750056946E+02  0.12010680271E+03  0.87176759389E+02 0.  0.
         23    2    1    2    0    0  0.17739796550E+01  0.33487041937E+02  0.20647820367E+03  0.22894708060E+03  0.93053684198E+02 0.  0.
        -13    1    3    3    0    0  0.22051318868E+02 -0.54651581644E+01 -0.52899395259E+01  0.23326210103E+02  0.00000000000E+00 0.  1.
         13    1    3    3    0    0 -0.51201596697E+02 -0.37839899729E+01  0.82039996472E+02  0.96780592608E+02  0.00000000000E+00 0. -1.
        -13    1    4    4    0    0  0.13397942143E+02 -0.25305874211E+02  0.25636156402E+02  0.38433119029E+02  0.00000000000E+00 0.  1.
         13    1    4    4    0    0 -0.11623962488E+02  0.58792916148E+02  0.18084204727E+03  0.19051396157E+03  0.00000000000E+00 0. -1.
         21    1    1    2  502  501  0.27376298174E+02 -0.24237893799E+02 -0.24998544706E+01  0.36649508454E+02  0.00000000000E+00 0.  1.
<scales pt_clust_5="13000.00000" pt_clust_6="13000.00000" pt_clust_7="13000.00000" pt_clust_8="13000.00000" pt_clust_9="36.56415"></scales>
<clustering>
<clus scale="   36.564">  2  9  1 -1</clus>
<clus scale="   87.177">  5  6 -1 -1</clus>
<clus scale="   91.428">  2  5  1 -1</clus>
<clus scale="   93.054">  7  8 -1 -1</clus>
<clus scale="   97.048">  1  5  2 -1</clus>
</clustering>
</event>
<event>
 9    1  0.2109009E-005  0.1738957E+03  0.7546771E-02  0.1174596E+00
         -2   -1    0    0    0  501 -0.00000000000E+00  0.00000000000E+00  0.13205820140E+03  0.13205820140E+03  0.00000000000E+00 0.  1.
          2   -1    0    0  502    0  0.00000000000E+00 -0.00000000000E+00 -0.85339127461E+03  0.85339127461E+03  0.00000000000E+00 0. -1.
         23    2    1    2    0    0  0.63882284607E+02  0.88489338750E+02  0.31258611431E+02  0.14464214485E+03  0.89626669690E+02 0.  0.
         23    2    1    2    0    0 -0.14317981780E+02 -0.15102263841E+03 -0.73835319421E+03  0.75975322398E+03  0.95114037032E+02 0.  0.
        -11    1    4    4    0    0  0.74454763551E+01 -0.14238215576E+03 -0.70324553007E+03  0.71755305654E+03  0.00000000000E+00 0. -1.
         11    1    4    4    0    0 -0.21763458135E+02 -0.86404826540E+01 -0.35107664143E+02  0.42200167441E+02  0.00000000000E+00 0.  1.
        -11    1    3    3    0    0  0.88458991425E+01  0.81457960603E+02  0.34854438712E+02  0.89042019155E+02  0.00000000000E+00 0.  1.
         11    1    3    3    0    0  0.55036385465E+02  0.70313781468E+01 -0.35958272811E+01  0.55600125697E+02  0.00000000000E+00 0. -1.
         21    1    1    2  502  501 -0.49564302828E+02  0.62533299660E+02 -0.14238490429E+02  0.81054107180E+02  0.00000000000E+00 0.  1.
<scales pt_clust_5="13000.00000" pt_clust_6="13000.00000" pt_clust_7="13000.00000" pt_clust_8="13000.00000" pt_clust_9="79.79369"></scales>
<clustering>
<clus scale="   79.794">  1  9  2 -1</clus>
<clus scale="   89.627">  7  8 -1 -1</clus>
<clus scale="   95.114">  5  6 -1 -1</clus>
<clus scale="  170.956">  1  7  2 -1</clus>
<clus scale="  173.896">  2  5  1 -1</clus>
</clustering>
</event>
<event>
 9    1  0.1266593E-005  0.1289103E+03  0.7546771E-02  0.1229929E+00
         -2   -1    0    0    0  501 -0.00000000000E+00  0.00000000000E+00  0.20982189433E+03  0.20982189433E+03  0.00000000000E+00 0.  1.
          2   -1    0    0  502    0  0.00000000000E+00 -0.00000000000E+00 -0.96624184731E+02  0.96624184731E+02  0.00000000000E+00 0. -1.
         23    2    1    2    0    0  0.56376945534E+02  0.59071146348E+02  0.78075248386E+02  0.14289686359E+03  0.87498622244E+02 0.  0.
         23    2    1    2    0    0 -0.58301588751E+02 -0.79567878014E+02  0.15142686625E+02  0.13486103580E+03  0.90708740235E+02 0.  0.
        -11    1    4    4    0    0  0.70341765671E+00 -0.52754356768E+02  0.39200615063E+02  0.65728267707E+02  0.00000000000E+00 0.  1.
         11    1    4    4    0    0 -0.59005006408E+02 -0.26813521246E+02 -0.24057928438E+02  0.69132768088E+02  0.00000000000E+00 0. -1.
        -11    1    3    3    0    0  0.97779390001E+01  0.66630156205E+02  0.24924656866E+02  0.71808246928E+02  0.00000000000E+00 0. -1.
         11    1    3    3    0    0  0.46599006534E+02 -0.75590098567E+01  0.53150591521E+02  0.71088616662E+02  0.00000000000E+00 0.  1.
         21    1    1    2  502  501  0.19246432173E+01  0.20496731666E+02  0.19979774589E+02  0.28688179676E+02  0.00000000000E+00 0.  1.
<scales pt_clust_5="13000.00000" pt_clust_6="13000.00000" pt_clust_7="13000.00000" pt_clust_8="13000.00000" pt_clust_9="20.58690"></scales>
<clustering>
<clus scale="   20.587">  1  9  2 -1</clus>
<clus scale="   87.499">  7  8 -1 -1</clus>
<clus scale="   90.709">  5  6 -1 -1</clus>
<clus scale="  126.672">  1  7  2 -1</clus>
<clus scale="  128.910">  2  5  1 -1</clus>
</clustering>
</event>
<event>
 9    1  0.1266593E-005  0.1161919E+03  0.7546771E-02  0.1249956E+00
          2   -1    0    0  502    0  0.00000000000E+00  0.00000000000E+00  0.27648036303E+03  0.27648036303E+03  0.00000000000E+00 0. -1.
         -2   -1    0    0    0  501 -0.00000000000E+00 -0.00000000000E+00 -0.10328373414E+03  0.10328373414E+03  0.00000000000E+00 0.  1.
         23    2    1    2    0    0 -0.49769797885E+02  0.24305684453E+02  0.46552292091E+02  0.11571897583E+03  0.90310389161E+02 0.  0.
         23    2    1    2    0    0  0.73486188446E+02 -0.32834157372E+02  0.17277740452E+03  0.21147648079E+03  0.91607688705E+02 0.  0.
        -11    1    4    4    0    0  0.54032741569E+02 -0.62445418248E+02  0.14328954668E+03  0.16538095903E+03  0.00000000000E+00 0. -1.
         11    1    4    4    0    0  0.19453446877E+02  0.29611260876E+02  0.29487857845E+02  0.46095521760E+02  0.00000000000E+00 0.  1.
        -11    1    3    3    0    0 -0.12442917077E+02  0.55733383204E+02  0.26712383017E+02  0.63044330397E+02  0.00000000000E+00 0. -1.
         11    1    3    3    0    0 -0.37326880808E+02 -0.31427698751E+02  0.19839909074E+02  0.52674645435E+02  0.00000000000E+00 0.  1.
         21    1    1    2  502  501 -0.23716390561E+02  0.85284729191E+01 -0.46133067721E+02  0.52568640546E+02  0.00000000000E+00 0.  1.
<scales pt_clust_5="13000.00000" pt_clust_6="13000.00000" pt_clust_7="13000.00000" pt_clust_8="13000.00000" pt_clust_9="25.20321"></scales>
<clustering>
<clus scale="   25.203">  2  9  1 -1</clus>
<clus scale="   90.310">  7  8 -1 -1</clus>
<clus scale="   91.608">  5  6 -1 -1</clus>
<clus scale="  115.172">  2  7  1 -1</clus>
<clus scale="  116.192">  1  5  2 -1</clus>
</clustering>
</event>
<event>
 9    1  0.1266593E-005  0.9224349E+02  0.7546771E-02  0.1297991E+00
         -1   -1    0    0    0  501 -0.00000000000E+00  0.00000000000E+00  0.32200015654E+03  0.32200015654E+03  0.00000000000E+00 0.  1.
          1   -1    0    0  502    0  0.00000000000E+00 -0.00000000000E+00 -0.37032430790E+02  0.37032430790E+02  0.00000000000E+00 0. -1.
         23    2    1    2    0    0 -0.26810159189E+02 -0.13737947903E+02  0.18719446192E+03  0.21004822576E+03  0.90393444020E+02 0.  0.
         23    2    1    2    0    0  0.64984993252E+01  0.12735021137E+02  0.70008651953E+02  0.11456862301E+03  0.89556388785E+02 0.  0.
        -13    1    3    3    0    0  0.30838620296E+02 -0.47816486430E+00  0.34395292840E+02  0.46198325867E+02  0.00000000000E+00 0. -1.
         13    1    3    3    0    0 -0.57648779484E+02 -0.13259783039E+02  0.15279916908E+03  0.16384989989E+03  0.00000000000E+00 0.  1.
        -13    1    4    4    0    0 -0.34283423092E+01  0.50869173644E+02  0.44082971363E+02  0.67399812480E+02  0.00000000000E+00 0.  1.
         13    1    4    4    0    0  0.99268416344E+01 -0.38134152507E+02  0.25925680590E+02  0.47168810525E+02  0.00000000000E+00 0. -1.
         21    1    1    2  502  501  0.20311659863E+02  0.10029267662E+01  0.27764611875E+02  0.34415738567E+02  0.00000000000E+00 0.  1.
<scales pt_clust_5="13000.00000" pt_clust_6="13000.00000" pt_clust_7="13000.00000" pt_clust_8="13000.00000" pt_clust_9="20.33641"></scales>
<clustering>
<clus scale="   20.336">  1  9  2 -1</clus>
<clus scale="   89.556">  7  8 -1 -1</clus>
<clus scale="   90.393">  5  6 -1 -1</clus>
<clus scale="   91.423">  2  7  1 -1</clus>
<clus scale="   91.423">  2  5  1 -1</clus>
</clustering>
</event>
<event>
 9    1  0.1266593E-005  0.1094393E+03  0.7546771E-02  0.1263551E+00
         -2   -1    0    0    0  501 -0.00000000000E+00  0.00000000000E+00  0.18557512534E+03  0.18557512534E+03  0.00000000000E+00 0.  1.
          2   -1    0    0  502    0  0.00000000000E+00 -0.00000000000E+00 -0.14035578981E+03  0.14035578981E+03  0.00000000000E+00 0. -1.
         23    2    1    2    0    0  0.50461961384E+02 -0.23622088319E+02  0.63242196911E+02  0.12753854107E+03  0.95718814168E+02 0.  0.
         23    2    1    2    0    0 -0.21832656170E+02  0.54186304516E+02  0.49487852641E+02  0.11894739351E+03  0.91030843081E+02 0.  0.
        -11    1    3    3    0    0  0.47062139390E+02  0.23013848076E+02  0.61442212653E+02  0.80744211327E+02  0.00000000000E+00 0.  1.
         11    1    3    3    0    0  0.33998219947E+01 -0.46635936396E+02  0.17999842581E+01  0.46794329746E+02  0.00000000000E+00 0. -1.
        -11    1    4    4    0    0  0.28015336973E+02 -0.51597068432E+01  0.24332106029E+02  0.37463756676E+02  0.00000000000E+00 0.  1.
         11    1    4    4    0    0 -0.49847993143E+02  0.59346011359E+02  0.25155746611E+02  0.81483636837E+02  0.00000000000E+00 0. -1.
         21    1    1    2  502  501 -0.28629305215E+02 -0.30564216196E+02 -0.67510714018E+02  0.79444980559E+02  0.00000000000E+00 0. -1.
<scales pt_clust_5="13000.00000" pt_clust_6="13000.00000" pt_clust_7="13000.00000" pt_clust_8="13000.00000" pt_clust_9="41.87850"></scales>
<clustering>
<clus scale="   41.878">  2  9  1 -1</clus>
<clus scale="   91.031">  7  8 -1 -1</clus>
<clus scale="   95.719">  5  6 -1 -1</clus>
<clus scale="  105.364">  2  7  1 -1</clus>
<clus scale="   41.878">  2  5  1 -1</clus>
</clustering>
</event>
<event>
 9    1  0.1266593E-005  0.9979655E+02  0.7546771E-02  0.1281847E+00
          1   -1    0    0  502    0  0.00000000000E+00  0.00000000000E+00  0.31124985925E+02  0.31124985925E+02  0.00000000000E+00 0. -1.
         -1   -1    0    0    0  501 -0.00000000000E+00 -0.00000000000E+00 -0.52960396943E+03  0.52960396943E+03  0.00000000000E+00 0.  1.
         23    2    1    2    0    0  0.55517497576E+02  0.18168894586E+02 -0.29763811518E+03  0.31688338106E+03  0.91729647974E+02 0.  0.
         23    2    1    2    0    0 -0.31001011901E+02 -0.89332224532E+01 -0.93479236996E+02  0.13333369443E+03  0.89435122399E+02 0.  0.
        -11    1    3    3    0    0  0.79501331693E+02  0.25792955605E+02 -0.22976615022E+03  0.24449585290E+03  0.00000000000E+00 0.  1.
         11    1    3    3    0    0 -0.23983834117E+02 -0.76240610192E+01 -0.67871964956E+02  0.72387528155E+02  0.00000000000E+00 0. -1.
        -13    1    4    4    0    0 -0.45154304462E+02  0.27887800665E+02 -0.68455563651E+02  0.86618732571E+02  0.00000000000E+00 0. -1.
         13    1    4    4    0    0  0.14153292561E+02 -0.36821023118E+02 -0.25023673345E+02  0.46714961858E+02  0.00000000000E+00 0.  1.
         21    1    1    2  502  501 -0.24516485674E+02 -0.92356721329E+01 -0.10736163133E+03  0.11051187987E+03  0.00000000000E+00 0. -1.
<scales pt_clust_5="13000.00000" pt_clust_6="13000.00000" pt_clust_7="13000.00000" pt_clust_8="13000.00000" pt_clust_9="26.19839"></scales>
<clustering>
<clus scale="   26.198">  2  9  1 -1</clus>
<clus scale="   89.435">  7  8 -1 -1</clus>
<clus scale="   91.730">  5  6 -1 -1</clus>
<clus scale="   97.692">  1  7  2 -1</clus>
<clus scale="   97.692">  1  5  2 -1</clus>
</clustering>
</event>
<event>
 9    1  0.1266593E-005  0.1197306E+03  0.7546771E-02  0.1243563E+00
         -1   -1    0    0    0  501 -0.00000000000E+00  0.00000000000E+00  0.76499439171E+03  0.76499439171E+03  0.00000000000E+00 0.  1.
          1   -1    0    0  502    0  0.00000000000E+00 -0.00000000000E+00 -0.69298243298E+02  0.69298243298E+02  0.00000000000E+00 0. -1.
         23    2    1    2    0    0  0.80724142917E+02 -0.57689746859E+02  0.26986246295E+03  0.30181941369E+03  0.91786248576E+02 0.  0.
         23    2    1    2    0    0 -0.23029452968E+02  0.71534105423E+02  0.17508549793E+02  0.11985989152E+03  0.91718920271E+02 0.  0.
        -13    1    3    3    0    0  0.36477253829E+02 -0.57465053152E+02  0.23733550713E+03  0.24690274467E+03  0.00000000000E+00 0.  1.
         13    1    3    3    0    0  0.44246889088E+02 -0.22469370635E+00  0.32526955819E+02  0.54916669019E+02  0.00000000000E+00 0. -1.
        -13    1    4    4    0    0 -0.46004908350E+02  0.37858130837E+01 -0.20702664348E+00  0.46160879899E+02  0.00000000000E+00 0.  1.
         13    1    4    4    0    0  0.22975455382E+02  0.67748292340E+02  0.17715576436E+02  0.73699011618E+02  0.00000000000E+00 0. -1.
         21    1    1    2  502  501 -0.57694689949E+02 -0.13844358565E+02  0.40832513567E+03  0.41261332980E+03  0.00000000000E+00 0.  1.
<scales pt_clust_5="13000.00000" pt_clust_6="13000.00000" pt_clust_7="13000.00000" pt_clust_8="13000.00000" pt_clust_9="59.33248"></scales>
<clustering>
<clus scale="   59.332">  1  9  2 -1</clus>
<clus scale="   91.719">  7  8 -1 -1</clus>
<clus scale="   91.786">  5  6 -1 -1</clus>
<clus scale="  119.679">  2  7  1 -1</clus>
<clus scale="  119.679">  2  5  1 -1</clus>
</clustering>
</event>
<event>
 9    1  0.1266593E-005  0.1405348E+03  0.7546771E-02  0.1213088E+00
         -2   -1    0    0    0  501 -0.00000000000E+00  0.00000000000E+00  0.49585390449E+02  0.49585390449E+02  0.00000000000E+00 0.  1.
          2   -1    0    0  502    0  0.00000000000E+00 -0.00000000000E+00 -0.76867194857E+03  0.76867194857E+03  0.00000000000E+00 0. -1.
         23    2    1    2    0    0 -0.75741264573E+02  0.11007128117E+02 -0.11072202003E+03  0.17044178840E+03  0.10456166355E+03 0.  0.
         23    2    1    2    0    0  0.98839232267E+02  0.94116733885E+01 -0.59871489294E+03  0.61551138342E+03  0.10264972803E+03 0.  0.
        -11    1    4    4    0    0  0.10127624085E+03  0.42332523374E+02 -0.46568246437E+03  0.47844443472E+03  0.00000000000E+00 0. -1.
         11    1    4    4    0    0 -0.24370085858E+01 -0.32920849986E+02 -0.13303242857E+03  0.13706694870E+03  0.00000000000E+00 0.  1.
        -11    1    3    3    0    0 -0.10115723675E+03 -0.13993393648E+01 -0.83301185769E+02  0.13104896889E+03  0.00000000000E+00 0.  1.
         11    1    3    3    0    0  0.25415972175E+02  0.12406467482E+02 -0.27420834265E+02  0.39392819508E+02  0.00000000000E+00 0. -1.
         21    1    1    2  502  501 -0.23097967694E+02 -0.20418801505E+02 -0.96496451420E+01  0.32304167190E+02  0.00000000000E+00 0.  1.
<scales pt_clust_5="13000.00000" pt_clust_6="13000.00000" pt_clust_7="13000.00000" pt_clust_8="13000.00000" pt_clust_9="30.82926"></scales>
<clustering>
<clus scale="   30.829">  1  9  2 -1</clus>
<clus scale="  102.650">  5  6 -1 -1</clus>
<clus scale="  104.562">  7  8 -1 -1</clus>
<clus scale="  139.118">  2  5  1 -1</clus>
<clus scale="  139.118">  2  5  1 -1</clus>
</clustering>
</event>
<event>
 9    1  0.1266593E-005  0.9713912E+02  0.7546771E-02  0.1287988E+00
         -1   -1    0    0    0  501 -0.00000000000E+00  0.00000000000E+00  0.69946519785E+02  0.69946519785E+02  0.00000000000E+00 0.  1.
          1   -1    0    0  502    0  0.00000000000E+00 -0.00000000000E+00 -0.23199231115E+03  0.23199231115E+03  0.00000000000E+00 0. -1.
         23    2    1    2    0    0  0.21340798349E+02 -0.14864250649E+02 -0.46764439386E+00  0.95492849572E+02  0.91881935148E+02 0.  0.
         23    2    1    2    0    0 -0.28847094919E+02  0.40291563385E+02 -0.12335302970E+03  0.15992660570E+03  0.88909978691E+02 0.  0.
        -13    1    4    4    0    0 -0.10292928169E+02  0.67467594874E+02 -0.91306917674E+02  0.11399462243E+03  0.00000000000E+00 0.  1.
         13    1    4    4    0    0 -0.18554166750E+02 -0.27176031490E+02 -0.32046112023E+02  0.45931983270E+02  0.00000000000E+00 0. -1.
        -13    1    3    3    0    0 -0.30094812634E+02 -0.27736311708E+01 -0.23072720951E+02  0.38022904011E+02  0.00000000000E+00 0. -1.
         13    1    3    3    0    0  0.51435610984E+02 -0.12090619478E+02  0.22605076557E+02  0.57469945561E+02  0.00000000000E+00 0.  1.
         21    1    1    2  502  501  0.75062965695E+01 -0.25427312735E+02 -0.38225117273E+02  0.46519375658E+02  0.00000000000E+00 0.  1.
<scales pt_clust_5="13000.00000" pt_clust_6="13000.00000" pt_clust_7="13000.00000" pt_clust_8="13000.00000" pt_clust_9="26.51212"></scales>
<clustering>
<clus scale="   26.512">  2  9  1 -1</clus>
<clus scale="   88.910">  5  6 -1 -1</clus>
<clus scale="   91.882">  7  8 -1 -1</clus>
<clus scale="   94.333">  2  5  1 -1</clus>
<clus scale="   26.512">  2  5  1 -1</clus>
</clustering>
</event>
<event>
 9    1  0.1266593E-005  0.1166304E+03  0.7546771E-02  0.1248810E+00
         -2   -1    0    0    0  501 -0.00000000000E+00  0.00000000000E+00  0.52574658046E+02  0.52574658046E+02  0.00000000000E+00 0.  1.
          2   -1    0    0  502    0  0.00000000000E+00 -0.00000000000E+00 -0.39890569880E+03  0.39890569880E+03  0.00000000000E+00 0. -1.
         23    2    1    2    0    0 -0.52437431026E+02  0.30558105719E+02 -0.10637603837E+03  0.15322087547E+03  0.92072216996E+02 0.  0.
         23    2    1    2    0    0  0.57500890016E+02 -0.53869063815E+02 -0.24553247952E+03  0.27376157054E+03  0.91929160851E+02 0.  0.
        -13    1    4    4    0    0  0.46798512222E+01 -0.49896702668E+02 -0.19207370016E+03  0.19850412650E+03  0.00000000000E+00 0. -1.
         13    1    4    4    0    0  0.52821038794E+02 -0.39723611470E+01 -0.53458779363E+02  0.75257444039E+02  0.00000000000E+00 0.  1.
        -13    1    3    3    0    0 -0.62723947387E+02 -0.65184946100E+00 -0.10244701913E+03  0.12012539370E+03  0.00000000000E+00 0. -1.
         13    1    3    3    0    0  0.10286516361E+02  0.31209955180E+02 -0.39290192396E+01  0.33095481766E+02  0.00000000000E+00 0.  1.
         21    1    1    2  502  501 -0.50634589901E+01  0.23310958096E+02  0.55774771372E+01  0.24497910840E+02  0.00000000000E+00 0. -1.
<scales pt_clust_5="13000.00000" pt_clust_6="13000.00000" pt_clust_7="13000.00000" pt_clust_8="13000.00000" pt_clust_9="23.85455"></scales>
<clustering>
<clus scale="   23.855">  1  9  2 -1</clus>
<clus scale="   91.929">  5  6 -1 -1</clus>
<clus scale="   92.072">  7  8 -1 -1</clus>
<clus scale="  116.518">  2  5  1 -1</clus>
<clus scale="  116.518">  2  5  1 -1</clus>
</clustering>
</event>
<event>
 9    1  0.1266593E-005  0.1208866E+03  0.7546771E-02  0.1242307E+00
         -2   -1    0    0    0  501 -0.00000000000E+00  0.00000000000E+00  0.10188687782E+03  0.10188687782E+03  0.00000000000E+00 0.  1.
          2   -1    0    0  502    0  0.00000000000E+00 -0.00000000000E+00 -0.25276439087E+03  0.25276439087E+03  0.00000000000E+00 0. -1.
         23    2    1    2    0    0  0.69142986262E+02  0.81331440328E+01 -0.26595779210E+02  0.11925784549E+03  0.93103155999E+02 0.  0.
         23    2    1    2    0    0 -0.72011178901E+02 -0.28941820442E+02 -0.15526726043E+03  0.19795907534E+03  0.95166351671E+02 0.  0.
        -11    1    4    4    0    0 -0.50206751772E+02 -0.38454697489E+02 -0.29182737817E+02  0.69649938040E+02  0.00000000000E+00 0.  1.
         11    1    4    4    0    0 -0.21804427129E+02  0.95128770467E+01 -0.12608452261E+03  0.12830913730E+03  0.00000000000E+00 0. -1.
        -11    1    3    3    0    0  0.42730999053E+02  0.50077372550E+02 -0.22298353017E+02  0.69504662209E+02  0.00000000000E+00 0.  1.
         11    1    3    3    0    0  0.26411987209E+02 -0.41944228517E+02 -0.42974261923E+01  0.49753183276E+02  0.00000000000E+00 0. -1.
         21    1    1    2  502  501  0.28681926392E+01  0.20808676409E+02  0.30985526581E+02  0.37434347870E+02  0.00000000000E+00 0.  1.
<scales pt_clust_5="13000.00000" pt_clust_6="13000.00000" pt_clust_7="13000.00000" pt_clust_8="13000.00000" pt_clust_9="21.00542"></scales>
<clustering>
<clus scale="   21.005">  1  9  2 -1</clus>
<clus scale="   93.103">  7  8 -1 -1</clus>
<clus scale="   95.166">  5  6 -1 -1</clus>
<clus scale="  119.269">  1  7  2 -1</clus>
<clus scale="  120.887">  2  5  1 -1</clus>
</clustering>
</event>
<event>
 9    1  0.1266593E-005  0.9612294E+02  0.7546771E-02  0.1289348E+00
         -1   -1    0    0    0  501 -0.00000000000E+00  0.00000000000E+00  0.27697511709E+03  0.27697511709E+03  0.00000000000E+00 0.  1.
          1   -1    0    0  502    0  0.00000000000E+00 -0.00000000000E+00 -0.14242053032E+03  0.14242053032E+03  0.00000000000E+00 0. -1.
         23    2    1    2    0    0 -0.24884711946E+02 -0.11068649376E+02  0.21520340275E+02  0.97544904049E+02  0.91159856147E+02 0.  0.
         23    2    1    2    0    0  0.19239310057E+02 -0.35617885252E+02 -0.77632708999E+02  0.12547001366E+03  0.89872698974E+02 0.  0.
        -11    1    4    4    0    0  0.27575706437E+02 -0.69145444775E+01  0.12094753481E+02  0.30895203067E+02  0.00000000000E+00 0.  1.
         11    1    4    4    0    0 -0.83363963796E+01 -0.28703340775E+02 -0.89727462480E+02  0.94574810596E+02  0.00000000000E+00 0. -1.
        -13    1    3    3    0    0  0.33121923219E+02 -0.14239503397E+02  0.14495180200E+01  0.36082216633E+02  0.00000000000E+00 0. -1.
         13    1    3    3    0    0 -0.58006635164E+02  0.31708540214E+01  0.20070822256E+02  0.61462687415E+02  0.00000000000E+00 0.  1.
         21    1    1    2  502  501  0.56454018886E+01  0.46686534628E+02  0.19066695550E+03  0.19638072970E+03  0.00000000000E+00 0.  1.
<scales pt_clust_5="13000.00000" pt_clust_6="13000.00000" pt_clust_7="13000.00000" pt_clust_8="13000.00000" pt_clust_9="47.02662"></scales>
<clustering>
<clus scale="   47.027">  1  9  2 -1</clus>
<clus scale="   89.873">  5  6 -1 -1</clus>
<clus scale="   91.160">  7  8 -1 -1</clus>
<clus scale="   94.903">  2  5  1 -1</clus>
<clus scale="   94.903">  2  5  1 -1</clus>
</clustering>
</event>
<event>
 9    1  0.1266593E-005  0.9178032E+02  0.7546771E-02  0.1299905E+00
         -1   -1    0    0    0  501 -0.00000000000E+00  0.00000000000E+00  0.58397473131E+02  0.58397473131E+02  0.00000000000E+00 0.  1.
          1   -1    0    0  502    0  0.00000000000E+00 -0.00000000000E+00 -0.23319501911E+03  0.23319501911E+03  0.00000000000E+00 0. -1.
         23    2    1    2    0    0  0.34495078858E+01 -0.25909491615E+02 -0.30663024777E+02  0.95060322417E+02  0.86099029896E+02 0.  0.
         23    2    1    2    0    0 -0.23609780617E+02  0.13781854560E+02 -0.14609956048E+03  0.17292332494E+03  0.88374393796E+02 0.  0.
        -11    1    4    4    0    0 -0.45731908658E+02  0.37350793275E+02 -0.10681950560E+03  0.12205284103E+03  0.00000000000E+00 0. -1.
         11    1    4    4    0    0  0.22122128041E+02 -0.23568938715E+02 -0.39280054887E+02  0.50870483909E+02  0.00000000000E+00 0.  1.
        -13    1    3    3    0    0  0.36933324749E+02 -0.36060257778E+02 -0.53898945758E+01  0.51898589880E+02  0.00000000000E+00 0.  1.
         13    1    3    3    0    0 -0.33483816863E+02  0.10150766163E+02 -0.25273130201E+02  0.43161732537E+02  0.00000000000E+00 0. -1.
         21    1    1    2  502  501  0.20160272731E+02  0.12127637055E+02  0.19650392865E+01  0.23608844880E+02  0.00000000000E+00 0. -1.
<scales pt_clust_5="13000.00000" pt_clust_6="13000.00000" pt_clust_7="13000.00000" pt_clust_8="13000.00000" pt_clust_9="23.52692"></scales>
<clustering>
<clus scale="   23.527">  1  9  2 -1</clus>
<clus scale="   86.099">  7  8 -1 -1</clus>
<clus scale="   88.374">  5  6 -1 -1</clus>
<clus scale="   89.591">  1  7  2 -1</clus>
<clus scale="   91.780">  2  5  1 -1</clus>
</clustering>
</event>
<event>
 9    1  0.1266593E-005  0.1375764E+03  0.7546771E-02  0.1230169E+00
          2   -1    0    0  502    0  0.00000000000E+00  0.00000000000E+00  0.60520547606E+03  0.60520547606E+03  0.00000000000E+00 0. -1.
         -2   -1    0    0    0  501 -0.00000000000E+00 -0.00000000000E+00 -0.76220795035E+02  0.76220795035E+02  0.00000000000E+00 0.  1.
         23    2    1    2    0    0  0.21014344214E+02 -0.73146449395E+02  0.33557496589E+03  0.35613016813E+03  0.91793971442E+02 0.  0.
         23    2    1    2    0    0  0.44657421971E+02 -0.11841196763E+02  0.19161838897E+03  0.21787687880E+03  0.92834411968E+02 0.  0.
        -13    1    3    3    0    0  0.19919511890E+01  0.20718254375E+02  0.35606159681E+02  0.41243333293E+02  0.00000000000E+00 0.  1.
         13    1    3    3    0    0  0.19022393025E+02 -0.93864703770E+02  0.29996880621E+03  0.31488683483E+03  0.00000000000E+00 0. -1.
        -13    1    4    4    0    0  0.69724967530E+02  0.76211163854E+01  0.14954232122E+03  0.16517432714E+03  0.00000000000E+00 0.  1.
         13    1    4    4    0    0 -0.25067545559E+02 -0.19462313148E+02  0.42076067750E+02  0.52702551653E+02  0.00000000000E+00 0. -1.
         21    1    1    2  502  501 -0.65671766185E+02  0.84987646158E+02  0.17913261677E+01  0.10741922418E+03  0.00000000000E+00 0.  1.
<scales pt_clust_5="13000.00000" pt_clust_6="13000.00000" pt_clust_7="13000.00000" pt_clust_8="13000.00000" pt_clust_9="102.47499"></scales>
<clustering>
<clus scale="   91.794">  5  6 -1 -1</clus>
<clus scale="   92.834">  7  8 -1 -1</clus>
<clus scale="  103.695">  1  7  2 -1</clus>
<clus scale="  102.475">  2  9  1 -1</clus>
<clus scale="  103.695">  1  5  2 -1</clus>
</clustering>
</event>
<event>
 9    1  0.1266593E-005  0.1125597E+03  0.7546771E-02  0.1256866E+00
          2   -1    0    0  502    0  0.00000000000E+00  0.00000000000E+00  0.13619985633E+03  0.13619985633E+03  0.00000000000E+00 0. -1.
         -2   -1    0    0    0  501 -0.00000000000E+00 -0.00000000000E+00 -0.34965151876E+03  0.34965151876E+03  0.00000000000E+00 0.  1.
         23    2    1    2    0    0 -0.38086219970E+02 -0.26665923264E+02 -0.78194538710E+01  0.10531010460E+03  0.94167099648E+02 0.  0.
         23    2    1    2    0    0  0.19408599881E+02  0.77104623523E+02  0.41050107997E+02  0.12806338774E+03  0.91614972552E+02 0.  0.
        -11    1    4    4    0    0  0.10120796481E+02  0.97251201364E+02  0.25736457870E+02  0.10110683435E+03  0.00000000000E+00 0. -1.
         11    1    4    4    0    0  0.92878033994E+01 -0.20146577842E+02  0.15313650127E+02  0.26956553395E+02  0.00000000000E+00 0.  1.
        -11    1    3    3    0    0 -0.19027980347E+02 -0.59521004292E+02 -0.19687661140E+02  0.65516547446E+02  0.00000000000E+00 0.  1.
         11    1    3    3    0    0 -0.19058239623E+02  0.32855081028E+02  0.11868207269E+02  0.39793557150E+02  0.00000000000E+00 0. -1.
         21    1    1    2  502  501  0.18677620089E+02 -0.50438700259E+02 -0.24668231656E+03  0.25247788275E+03  0.00000000000E+00 0.  1.
<scales pt_clust_5="13000.00000" pt_clust_6="13000.00000" pt_clust_7="13000.00000" pt_clust_8="13000.00000" pt_clust_9="53.78583"></scales>
<clustering>
<clus scale="   53.786">  2  9  1 -1</clus>
<clus scale="   91.615">  5  6 -1 -1</clus>
<clus scale="   94.167">  7  8 -1 -1</clus>
<clus scale="  110.433">  1  5  2 -1</clus>
<clus scale="  110.433">  1  5  2 -1</clus>
</clustering>
</event>
<event>
 9    1  0.1266593E-005  0.9462799E+02  0.7546771E-02  0.1293073E+00
         -1   -1    0    0    0  501 -0.00000000000E+00  0.00000000000E+00  0.13078693222E+03  0.13078693222E+03  0.00000000000E+00 0.  1.
          1   -1    0    0  502    0  0.00000000000E+00 -0.00000000000E+00 -0.10190940617E+03  0.10190940617E+03  0.00000000000E+00 0. -1.
         23    2    1    2    0    0 -0.11690752553E+02 -0.40066522336E+01  0.57491216682E+02  0.10627110122E+03  0.88518811568E+02 0.  0.
         23    2    1    2    0    0  0.26061420718E+02  0.22889739605E+02 -0.32904283159E+02  0.10231100327E+03  0.90452814828E+02 0.  0.
        -11    1    3    3    0    0 -0.40754928389E+02 -0.28870994724E+02  0.41002547946E+02  0.64619714194E+02  0.00000000000E+00 0.  1.
         11    1    3    3    0    0  0.29064175836E+02  0.24864342491E+02  0.16488668735E+02  0.41651387026E+02  0.00000000000E+00 0. -1.
        -11    1    4    4    0    0 -0.17010973059E+02  0.18553540234E+02  0.21277043776E+02  0.32959363639E+02  0.00000000000E+00 0.  1.
         11    1    4    4    0    0  0.43072393777E+02  0.43361993710E+01 -0.54181326935E+02  0.69351639629E+02  0.00000000000E+00 0. -1.
         21    1    1    2  502  501 -0.14370668165E+02 -0.18883087372E+02  0.42905925274E+01  0.24114233897E+02  0.00000000000E+00 0.  1.
<scales pt_clust_5="13000.00000" pt_clust_6="13000.00000" pt_clust_7="13000.00000" pt_clust_8="13000.00000" pt_clust_9="23.72946"></scales>
<clustering>
<clus scale="   23.729">  1  9  2 -1</clus>
<clus scale="   88.519">  5  6 -1 -1</clus>
<clus scale="   90.453">  7  8 -1 -1</clus>
<clus scale="   92.781">  1  5  2 -1</clus>
<clus scale="   94.628">  2  5  1 -1</clus>
</clustering>
</event>
<event>
 9    1  0.1266593E-005  0.1116991E+03  0.7546771E-02  0.1257788E+00
          3   -1    0    0  502    0  0.00000000000E+00  0.00000000000E+00  0.19173400062E+03  0.19173400062E+03  0.00000000000E+00 0. -1.
         -3   -1    0    0    0  501 -0.00000000000E+00 -0.00000000000E+00 -0.88214409806E+02  0.88214409806E+02  0.00000000000E+00 0.  1.
         23    2    1    2    0    0 -0.53778183434E+02  0.49347333976E+02  0.26972947577E+02  0.11945889265E+03  0.90640138727E+02 0.  0.
         23    2    1    2    0    0  0.32003128688E+02 -0.50321615979E+02  0.83617717712E+02  0.13757440641E+03  0.91533214206E+02 0.  0.
        -13    1    4    4    0    0 -0.36958138907E+01  0.24056907999E+02  0.32191329866E+02  0.40356852966E+02  0.00000000000E+00 0.  1.
         13    1    4    4    0    0  0.35698942579E+02 -0.74378523979E+02  0.51426387846E+02  0.97217553443E+02  0.00000000000E+00 0. -1.
        -13    1    3    3    0    0  0.25319888892E+02  0.13505147421E+02  0.12993228069E+02  0.31500948494E+02  0.00000000000E+00 0. -1.
         13    1    3    3    0    0 -0.79098072326E+02  0.35842186556E+02  0.13979719508E+02  0.87957944157E+02  0.00000000000E+00 0.  1.
         21    1    1    2  502  501  0.21775054745E+02  0.97428200274E+00 -0.70710744771E+01  0.22915111364E+02  0.00000000000E+00 0.  1.
<scales pt_clust_5="13000.00000" pt_clust_6="13000.00000" pt_clust_7="13000.00000" pt_clust_8="13000.00000" pt_clust_9="21.79684"></scales>
<clustering>
<clus scale="   21.797">  2  9  1 -1</clus>
<clus scale="   90.640">  7  8 -1 -1</clus>
<clus scale="   91.533">  5  6 -1 -1</clus>
<clus scale="  110.968">  2  7  1 -1</clus>
<clus scale="  111.699">  1  5  2 -1</clus>
</clustering>
</event>
<event>
 9    1  0.1266593E-005  0.2700239E+03  0.7546771E-02  0.1103074E+00
          2   -1    0    0  502    0  0.00000000000E+00  0.00000000000E+00  0.29681818651E+03  0.29681818651E+03  0.00000000000E+00 0. -1.
         -2   -1    0    0    0  501 -0.00000000000E+00 -0.00000000000E+00 -0.27455065191E+03  0.27455065191E+03  0.00000000000E+00 0.  1.
         23    2    1    2    0    0 -0.44588659311E+00 -0.24962772313E+03 -0.63957361747E+02  0.28488522900E+03  0.12146954603E+03 0.  0.
         23    2    1    2    0    0  0.13186846713E+02  0.22864165292E+03  0.67051702713E+02  0.25533303059E+03  0.90819201146E+02 0.  0.
        -11    1    3    3    0    0 -0.45111966828E+02 -0.18251338729E+03 -0.10794292681E+02  0.18831554064E+03  0.00000000000E+00 0. -1.
         11    1    3    3    0    0  0.44666080235E+02 -0.67114335838E+02 -0.53163069066E+02  0.96569688365E+02  0.00000000000E+00 0.  1.
        -13    1    4    4    0    0  0.34684904821E+02  0.95658982539E+02 -0.62998189153E+01  0.10194788512E+03  0.00000000000E+00 0.  1.
         13    1    4    4    0    0 -0.21498058109E+02  0.13298267038E+03  0.73351521628E+02  0.15338514547E+03  0.00000000000E+00 0. -1.
         21    1    1    2  502  501 -0.12740960120E+02  0.20986070205E+02  0.19173193630E+02  0.31150578829E+02  0.00000000000E+00 0.  1.
<scales pt_clust_5="13000.00000" pt_clust_6="13000.00000" pt_clust_7="13000.00000" pt_clust_8="13000.00000" pt_clust_9="24.55091"></scales>
<clustering>
<clus scale="   24.551">  1  9  2 -1</clus>
<clus scale="   90.819">  7  8 -1 -1</clus>
<clus scale="  121.470">  5  6 -1 -1</clus>
<clus scale="  257.694">  1  7  2 -1</clus>
<clus scale="   24.551">  1  5  2 -1</clus>
</clustering>
</event>
<event>
 9    1  0.1266593E-005  0.1059533E+03  0.7546771E-02  0.1268998E+00
          3   -1    0    0  502    0  0.00000000000E+00  0.00000000000E+00  0.43256788705E+03  0.43256788705E+03  0.00000000000E+00 0. -1.
         -3   -1    0    0    0  501 -0.00000000000E+00 -0.00000000000E+00 -0.11317428415E+03  0.11317428415E+03  0.00000000000E+00 0.  1.
         23    2    1    2    0    0  0.16124155703E+02 -0.13015025061E+02 -0.67874993572E+02  0.11520030555E+03  0.90745338015E+02 0.  0.
         23    2    1    2    0    0  0.76030278931E+01  0.54682851797E+02  0.35915155604E+03  0.37495630109E+03  0.92489822168E+02 0.  0.
        -11    1    4    4    0    0 -0.16901124427E+02 -0.20303409847E+02  0.12848509029E+03  0.13117276732E+03  0.00000000000E+00 0.  1.
         11    1    4    4    0    0  0.24504152320E+02  0.74986261644E+02  0.23066646575E+03  0.24378353377E+03  0.00000000000E+00 0. -1.
        -11    1    3    3    0    0 -0.17636094620E+02  0.31995886209E+02 -0.22388953883E+02  0.42848965258E+02  0.00000000000E+00 0. -1.
         11    1    3    3    0    0  0.33760250323E+02 -0.45010911269E+02 -0.45486039689E+02  0.72351340290E+02  0.00000000000E+00 0.  1.
         21    1    1    2  502  501 -0.23727183596E+02 -0.41667826736E+02  0.28117040429E+02  0.55585564572E+02  0.00000000000E+00 0. -1.
<scales pt_clust_5="13000.00000" pt_clust_6="13000.00000" pt_clust_7="13000.00000" pt_clust_8="13000.00000" pt_clust_9="47.94984"></scales>
<clustering>
<clus scale="   47.950">  2  9  1 -1</clus>
<clus scale="   90.745">  7  8 -1 -1</clus>
<clus scale="   92.490">  5  6 -1 -1</clus>
<clus scale="  104.434">  2  7  1 -1</clus>
<clus scale="  105.953">  1  5  2 -1</clus>
</clustering>
</event>
<event>
 9    1  0.1266593E-005  0.9803705E+02  0.7546771E-02  0.1285353E+00
          1   -1    0    0  502    0  0.00000000000E+00  0.00000000000E+00  0.11647840343E+03  0.11647840343E+03  0.00000000000E+00 0. -1.
         -1   -1    0    0    0  501 -0.00000000000E+00 -0.00000000000E+00 -0.14159687462E+03  0.14159687462E+03  0.00000000000E+00 0.  1.
         23    2    1    2    0    0  0.11732489601E+02  0.12636672938E+02 -0.19391527992E+02  0.94723499319E+02  0.91099797751E+02 0.  0.
         23    2    1    2    0    0 -0.17435845364E+02 -0.36570285685E+02  0.42027931707E+02  0.10963144586E+03  0.92797157172E+02 0.  0.
        -11    1    4    4    0    0 -0.40774470555E+02  0.69800337734E+01  0.43724916303E+02  0.60192579495E+02  0.00000000000E+00 0. -1.
         11    1    4    4    0    0  0.23338625191E+02 -0.43550319458E+02 -0.16969845964E+01  0.49438866365E+02  0.00000000000E+00 0.  1.
        -11    1    3    3    0    0 -0.34280847499E+02  0.55393649963E+01 -0.31209699793E+02  0.46689468094E+02  0.00000000000E+00 0. -1.
         11    1    3    3    0    0  0.46013337099E+02  0.70973079416E+01  0.11818171801E+02  0.48034031225E+02  0.00000000000E+00 0.  1.
         21    1    1    2  502  501  0.57033557631E+01  0.23933612747E+02 -0.47754874903E+02  0.53720332865E+02  0.00000000000E+00 0.  1.
<scales pt_clust_5="13000.00000" pt_clust_6="13000.00000" pt_clust_7="13000.00000" pt_clust_8="13000.00000" pt_clust_9="24.60378"></scales>
<clustering>
<clus scale="   24.604">  2  9  1 -1</clus>
<clus scale="   91.100">  7  8 -1 -1</clus>
<clus scale="   92.797">  5  6 -1 -1</clus>
<clus scale="   96.432">  2  7  1 -1</clus>
<clus scale="   98.037">  1  5  2 -1</clus>
</clustering>
</event>
<event>
 9    1  0.1266593E-005  0.9171534E+02  0.7546771E-02  0.1299604E+00
          1   -1    0    0  502    0  0.00000000000E+00  0.00000000000E+00  0.39581162105E+03  0.39581162105E+03  0.00000000000E+00 0. -1.
         -1   -1    0    0    0  501 -0.00000000000E+00 -0.00000000000E+00 -0.36860520107E+02  0.36860520107E+02  0.00000000000E+00 0.  1.
         23    2    1    2    0    0 -0.69534613916E+01 -0.92205850627E+01  0.59465654737E+02  0.10808968100E+03  0.89520082842E+02 0.  0.
         23    2    1    2    0    0  0.26399598371E+01 -0.17692928313E+02  0.26420971440E+03  0.28000308429E+03  0.90966724294E+02 0.  0.
        -11    1    4    4    0    0 -0.52240844847E+01  0.35810140247E+02  0.13860645355E+03  0.14325294471E+03  0.00000000000E+00 0. -1.
         11    1    4    4    0    0  0.78640443218E+01 -0.53503068560E+02  0.12560326086E+03  0.13675013958E+03  0.00000000000E+00 0.  1.
        -13    1    3    3    0    0  0.15027727295E+02 -0.15709445323E+02  0.76502954041E+02  0.79531888177E+02  0.00000000000E+00 0.  1.
         13    1    3    3    0    0 -0.21981188686E+02  0.64888602599E+01 -0.17037299304E+02  0.28557792826E+02  0.00000000000E+00 0. -1.
         21    1    1    2  502  501  0.43135015545E+01  0.26913513375E+02  0.35275731808E+02  0.44579375864E+02  0.00000000000E+00 0.  1.
<scales pt_clust_5="13000.00000" pt_clust_6="13000.00000" pt_clust_7="13000.00000" pt_clust_8="13000.00000" pt_clust_9="27.25699"></scales>
<clustering>
<clus scale="   27.257">  2  9  1 -1</clus>
<clus scale="   89.520">  7  8 -1 -1</clus>
<clus scale="   90.281">  2  7  1 -1</clus>
<clus scale="   90.967">  5  6 -1 -1</clus>
<clus scale="   91.715">  1  5  2 -1</clus>
</clustering>
</event>
<event>
 9    1  0.1266593E-005  0.1024629E+03  0.7546771E-02  0.1278709E+00
          4   -1    0    0  502    0  0.00000000000E+00  0.00000000000E+00  0.17182077566E+03  0.17182077566E+03  0.00000000000E+00 0. -1.
         -4   -1    0    0    0  501 -0.00000000000E+00 -0.00000000000E+00 -0.10894695529E+03  0.10894695529E+03  0.00000000000E+00 0.  1.
         23    2    1    2    0    0  0.35763308931E+02 -0.42581470359E+02 -0.17550170917E+02  0.11301281668E+03  0.96807501521E+02 0.  0.
         23    2    1    2    0    0  0.68793696660E+01  0.48405588495E+01  0.45687745115E+02  0.10105123193E+03  0.89739760886E+02 0.  0.
        -11    1    4    4    0    0  0.34048511032E+02 -0.37434456932E+01  0.60058043009E+02  0.69139590824E+02  0.00000000000E+00 0. -1.
         11    1    4    4    0    0 -0.27169141366E+02  0.85840045427E+01 -0.14370297894E+02  0.31911641107E+02  0.00000000000E+00 0.  1.
        -13    1    3    3    0    0  0.23819610031E+02  0.28382441592E+02 -0.17669888546E+02  0.41050721967E+02  0.00000000000E+00 0.  1.
         13    1    3    3    0    0  0.11943698900E+02 -0.70963911952E+02  0.11971762938E+00  0.71962094711E+02  0.00000000000E+00 0. -1.
         21    1    1    2  502  501 -0.42642678597E+02  0.37740911510E+02  0.34736246171E+02  0.66703682339E+02  0.00000000000E+00 0.  1.
<scales pt_clust_5="13000.00000" pt_clust_6="13000.00000" pt_clust_7="13000.00000" pt_clust_8="13000.00000" pt_clust_9="56.94536"></scales>
<clustering>
<clus scale="   56.945">  1  9  2 -1</clus>
<clus scale="   89.740">  5  6 -1 -1</clus>
<clus scale="   95.813">  1  5  2 -1</clus>
<clus scale="   96.808">  7  8 -1 -1</clus>
<clus scale="   56.945">  1  5  2 -1</clus>
</clustering>
</event>
<event>
 9    1  0.1266593E-005  0.1396526E+03  0.7546771E-02  0.1213862E+00
         -1   -1    0    0    0  501 -0.00000000000E+00  0.00000000000E+00  0.17212406255E+02  0.17212406255E+02  0.00000000000E+00 0.  1.
          1   -1    0    0  502    0  0.00000000000E+00 -0.00000000000E+00 -0.14598545850E+04  0.14598545850E+04  0.00000000000E+00 0. -1.
         23    2    1    2    0    0 -0.90272016545E+02 -0.18008879990E+02 -0.50430744883E+03  0.52064856296E+03  0.90970140375E+02 0.  0.
         23    2    1    2    0    0  0.10867892328E+03  0.47856997606E+02 -0.77968576752E+03  0.79394006786E+03  0.91266284524E+02 0.  0.
        -11    1    3    3    0    0  0.11236342903E+02 -0.24684299650E+02 -0.12734980902E+03  0.13020577525E+03  0.00000000000E+00 0.  1.
         11    1    3    3    0    0 -0.10150835945E+03  0.66754196606E+01 -0.37695763982E+03  0.39044278772E+03  0.00000000000E+00 0. -1.
        -13    1    4    4    0    0  0.80948669939E+02 -0.12723402467E+02 -0.47931479868E+03  0.48626869976E+03  0.00000000000E+00 0.  1.
         13    1    4    4    0    0  0.27730253341E+02  0.60580400073E+02 -0.30037096884E+03  0.30767136810E+03  0.00000000000E+00 0. -1.
         21    1    1    2  502  501 -0.18406906735E+02 -0.29848117616E+02 -0.15864896241E+03  0.16247836045E+03  0.00000000000E+00 0. -1.
<scales pt_clust_5="13000.00000" pt_clust_6="13000.00000" pt_clust_7="13000.00000" pt_clust_8="13000.00000" pt_clust_9="35.06743"></scales>
<clustering>
<clus scale="   35.067">  1  9  2 -1</clus>
<clus scale="   90.970">  5  6 -1 -1</clus>
<clus scale="   91.266">  7  8 -1 -1</clus>
<clus scale="  139.459">  1  5  2 -1</clus>
<clus scale="  139.653">  2  5  1 -1</clus>
</clustering>
</event>
<event>
 9    1  0.1266593E-005  0.1361837E+03  0.7546771E-02  0.1218778E+00
         -1   -1    0    0    0  501 -0.00000000000E+00  0.00000000000E+00  0.55336450361E+02  0.55336450361E+02  0.00000000000E+00 0.  1.
          1   -1    0    0  502    0  0.00000000000E+00 -0.00000000000E+00 -0.61915398771E+03  0.61915398771E+03  0.00000000000E+00 0. -1.
         23    2    1    2    0    0 -0.72013323457E+02 -0.67376310095E+01 -0.12270462226E+03  0.16966604300E+03  0.92189085015E+02 0.  0.
         23    2    1    2    0    0  0.96698627924E+02  0.78402459262E+02 -0.36993522688E+03  0.40084615136E+03  0.91257847443E+02 0.  0.
        -13    1    4    4    0    0 -0.40125380334E+01  0.27170446431E+02 -0.22518635686E+02  0.35516511285E+02  0.00000000000E+00 0.  1.
         13    1    4    4    0    0  0.10071116596E+03  0.51232012831E+02 -0.34741659119E+03  0.36532964008E+03  0.00000000000E+00 0. -1.
        -13    1    3    3    0    0 -0.57384195230E+02  0.33257394560E+02 -0.42259555845E+02  0.78643945828E+02  0.00000000000E+00 0. -1.
         13    1    3    3    0    0 -0.14629128226E+02 -0.39995025570E+02 -0.80445066411E+02  0.91022097168E+02  0.00000000000E+00 0.  1.
         21    1    1    2  502  501 -0.24685304468E+02 -0.71664828252E+02 -0.71177688219E+02  0.10397824371E+03  0.00000000000E+00 0.  1.
<scales pt_clust_5="13000.00000" pt_clust_6="13000.00000" pt_clust_7="13000.00000" pt_clust_8="13000.00000" pt_clust_9="75.79718"></scales>
<clustering>
<clus scale="   75.797">  1  9  2 -1</clus>
<clus scale="   91.258">  5  6 -1 -1</clus>
<clus scale="   92.189">  7  8 -1 -1</clus>
<clus scale="  135.555">  2  5  1 -1</clus>
<clus scale="  135.555">  2  5  1 -1</clus>
</clustering>
</event>
<event>
 9    1  0.1266593E-005  0.1148723E+03  0.7546771E-02  0.1252242E+00
          3   -1    0    0  502    0  0.00000000000E+00  0.00000000000E+00  0.42669690155E+02  0.42669690155E+02  0.00000000000E+00 0. -1.
         -3   -1    0    0    0  501 -0.00000000000E+00 -0.00000000000E+00 -0.47431553538E+03  0.47431553538E+03  0.00000000000E+00 0.  1.
         23    2    1    2    0    0 -0.45655152101E+02  0.26537090099E+02 -0.19024887380E+03  0.21756143883E+03  0.91376887764E+02 0.  0.
         23    2    1    2    0    0  0.67799349888E+02 -0.37926330132E+02 -0.10302760728E+03  0.15883160620E+03  0.92615511151E+02 0.  0.
        -11    1    3    3    0    0 -0.24859752006E+02  0.31299330863E+02 -0.19203724073E+03  0.19615289244E+03  0.00000000000E+00 0.  1.
         11    1    3    3    0    0 -0.20795400095E+02 -0.47622407638E+01  0.17883669345E+01  0.21408546389E+02  0.00000000000E+00 0. -1.
        -11    1    4    4    0    0  0.50925075042E+02  0.20125874291E+02 -0.73211352554E+02  0.91423827457E+02  0.00000000000E+00 0.  1.
         11    1    4    4    0    0  0.16874274846E+02 -0.58052204423E+02 -0.29816254722E+02  0.67407778747E+02  0.00000000000E+00 0. -1.
         21    1    1    2  502  501 -0.22144197787E+02  0.11389240033E+02 -0.13836936415E+03  0.14059218051E+03  0.00000000000E+00 0.  1.
<scales pt_clust_5="13000.00000" pt_clust_6="13000.00000" pt_clust_7="13000.00000" pt_clust_8="13000.00000" pt_clust_9="24.90141"></scales>
<clustering>
<clus scale="   24.901">  2  9  1 -1</clus>
<clus scale="   91.377">  5  6 -1 -1</clus>
<clus scale="   92.616">  7  8 -1 -1</clus>
<clus scale="  113.876">  2  5  1 -1</clus>
<clus scale="  114.872">  1  5  2 -1</clus>
</clustering>
</event>
<event>
 9    1  0.1266593E-005  0.1037189E+03  0.7546771E-02  0.1275444E+00
         -2   -1    0    0    0  501 -0.00000000000E+00  0.00000000000E+00  0.11085273391E+03  0.11085273391E+03  0.00000000000E+00 0.  1.
          2   -1    0    0  502    0  0.00000000000E+00 -0.00000000000E+00 -0.41238672665E+03  0.41238672665E+03  0.00000000000E+00 0. -1.
         23    2    1    2    0    0  0.35701924025E+02 -0.27819568508E+02 -0.19611396809E+03  0.22102299877E+03  0.91334121421E+02 0.  0.
         23    2    1    2    0    0 -0.11970679902E+02  0.26984527011E+02 -0.18943177014E+03  0.21491329677E+03  0.97117803282E+02 0.  0.
        -11    1    3    3    0    0  0.43928083535E+02  0.11235423322E+02 -0.41933052420E+02  0.61759955841E+02  0.00000000000E+00 0.  1.
         11    1    3    3    0    0 -0.82261595099E+01 -0.39054991830E+02 -0.15418091567E+03  0.15926304293E+03  0.00000000000E+00 0. -1.
        -13    1    4    4    0    0  0.23005379250E+02 -0.14845595909E+02 -0.13543641617E+03  0.13817619917E+03  0.00000000000E+00 0. -1.
         13    1    4    4    0    0 -0.34976059151E+02  0.41830122921E+02 -0.53995353969E+02  0.76737097596E+02  0.00000000000E+00 0.  1.
         21    1    1    2  502  501 -0.23731244124E+02  0.83504149736E+00  0.84011745487E+02  0.87303165016E+02  0.00000000000E+00 0.  1.
<scales pt_clust_5="13000.00000" pt_clust_6="13000.00000" pt_clust_7="13000.00000" pt_clust_8="13000.00000" pt_clust_9="23.74593"></scales>
<clustering>
<clus scale="   23.746">  1  9  2 -1</clus>
<clus scale="   91.334">  5  6 -1 -1</clus>
<clus scale="   97.118">  7  8 -1 -1</clus>
<clus scale="   98.324">  1  5  2 -1</clus>
<clus scale="  103.719">  2  5  1 -1</clus>
</clustering>
</event>
<event>
 9    1  0.1266593E-005  0.1118927E+03  0.7546771E-02  0.1259960E+00
         -1   -1    0    0    0  501 -0.00000000000E+00  0.00000000000E+00  0.55133261883E+02  0.55133261883E+02  0.00000000000E+00 0.  1.
          1   -1    0    0  502    0  0.00000000000E+00 -0.00000000000E+00 -0.58326177652E+03  0.58326177652E+03  0.00000000000E+00 0. -1.
         23    2    1    2    0    0  0.54561612425E+02  0.44993412125E+02 -0.24811019695E+03  0.27342083179E+03  0.90547803615E+02 0.  0.
         23    2    1    2    0    0 -0.29680479179E+02 -0.31698823821E+02 -0.30753366456E+03  0.32556721253E+03  0.97628421891E+02 0.  0.
        -11    1    3    3    0    0 -0.18381427036E+02  0.33403556422E+02 -0.11549549974E+03  0.12162600422E+03  0.00000000000E+00 0. -1.
         11    1    3    3    0    0  0.72943039461E+02  0.11589855703E+02 -0.13261469721E+03  0.15179482757E+03  0.00000000000E+00 0.  1.
        -13    1    4    4    0    0  0.58595047523E+01  0.29308948113E+02 -0.14979604426E+03  0.15274882360E+03  0.00000000000E+00 0. -1.
         13    1    4    4    0    0 -0.35539983932E+02 -0.61007771934E+02 -0.15773762030E+03  0.17281838893E+03  0.00000000000E+00 0.  1.
         21    1    1    2  502  501 -0.24881133245E+02 -0.13294588304E+02  0.27515346870E+02  0.39406994089E+02  0.00000000000E+00 0.  1.
<scales pt_clust_5="13000.00000" pt_clust_6="13000.00000" pt_clust_7="13000.00000" pt_clust_8="13000.00000" pt_clust_9="28.21023"></scales>
<clustering>
<clus scale="   28.210">  1  9  2 -1</clus>
<clus scale="   90.548">  5  6 -1 -1</clus>
<clus scale="   97.628">  7  8 -1 -1</clus>
<clus scale="  105.771">  1  5  2 -1</clus>
<clus scale="  111.893">  2  5  1 -1</clus>
</clustering>
</event>
<event>
 9    1  0.1266593E-005  0.2128983E+03  0.7546771E-02  0.1139374E+00
         -2   -1    0    0    0  501 -0.00000000000E+00  0.00000000000E+00  0.89303988464E+02  0.89303988464E+02  0.00000000000E+00 0.  1.
          2   -1    0    0  502    0  0.00000000000E+00 -0.00000000000E+00 -0.11137692945E+04  0.11137692945E+04  0.00000000000E+00 0. -1.
         23    2    1    2    0    0  0.11986218739E+03 -0.78026110220E+02 -0.15879694393E+03  0.23187915066E+03  0.89980293786E+02 0.  0.
         23    2    1    2    0    0 -0.14787036603E+03  0.15596735495E+03 -0.85666323704E+03  0.88788514134E+03  0.90976159341E+02 0.  0.
        -11    1    4    4    0    0 -0.88442373904E+02  0.14664176268E+03 -0.57973081263E+03  0.60449456174E+03  0.00000000000E+00 0. -1.
         11    1    4    4    0    0 -0.59427992125E+02  0.93255922751E+01 -0.27693242441E+03  0.28339057960E+03  0.00000000000E+00 0.  1.
        -13    1    3    3    0    0  0.80083597900E+02 -0.83072261022E+02 -0.71319570309E+02  0.13564978553E+03  0.00000000000E+00 0.  1.
         13    1    3    3    0    0  0.39778589490E+02  0.50461508021E+01 -0.87477373619E+02  0.96229365138E+02  0.00000000000E+00 0. -1.
         21    1    1    2  502  501  0.28008178639E+02 -0.77941244733E+02 -0.90051251036E+01  0.83308990988E+02  0.00000000000E+00 0.  1.
<scales pt_clust_5="13000.00000" pt_clust_6="13000.00000" pt_clust_7="13000.00000" pt_clust_8="13000.00000" pt_clust_9="82.82087"></scales>
<clustering>
<clus scale="   82.821">  1  9  2 -1</clus>
<clus scale="   89.980">  7  8 -1 -1</clus>
<clus scale="   90.976">  5  6 -1 -1</clus>
<clus scale="  212.475">  1  7  2 -1</clus>
<clus scale="  212.898">  2  5  1 -1</clus>
</clustering>
</event>
<event>
 9    1  0.1266593E-005  0.3200905E+03  0.7546771E-02  0.1075648E+00
         -3   -1    0    0    0  501 -0.00000000000E+00  0.00000000000E+00  0.68709689845E+03  0.68709689845E+03  0.00000000000E+00 0.  1.
          3   -1    0    0  502    0  0.00000000000E+00 -0.00000000000E+00 -0.17771671379E+03  0.17771671379E+03  0.00000000000E+00 0. -1.
         23    2    1    2    0    0  0.14016289183E+03 -0.24981040999E+03  0.36405622720E+03  0.47236314419E+03  0.92407392775E+02 0.  0.
         23    2    1    2    0    0 -0.15411478425E+03  0.27711242276E+03  0.11699020980E+03  0.35070293567E+03  0.93611849290E+02 0.  0.
        -11    1    3    3    0    0 -0.62475567478E+01 -0.64190965421E+02  0.73738823844E+02  0.97963902275E+02  0.00000000000E+00 0. -1.
         11    1    3    3    0    0  0.14641044858E+03 -0.18561944457E+03  0.29031740335E+03  0.37439924191E+03  0.00000000000E+00 0.  1.
        -13    1    4    4    0    0 -0.12219510272E+03  0.21244431215E+03  0.45714003904E+02  0.24930703770E+03  0.00000000000E+00 0. -1.
         13    1    4    4    0    0 -0.31919681526E+02  0.64668110609E+02  0.71276205892E+02  0.10139589797E+03  0.00000000000E+00 0.  1.
         21    1    1    2  502  501  0.13951892423E+02 -0.27302012767E+02  0.28333747667E+02  0.41747532384E+02  0.00000000000E+00 0. -1.
<scales pt_clust_5="13000.00000" pt_clust_6="13000.00000" pt_clust_7="13000.00000" pt_clust_8="13000.00000" pt_clust_9="30.66032"></scales>
<clustering>
<clus scale="   30.660">  1  9  2 -1</clus>
<clus scale="   92.407">  5  6 -1 -1</clus>
<clus scale="   93.612">  7  8 -1 -1</clus>
<clus scale="  319.740">  1  5  2 -1</clus>
<clus scale="  320.090">  2  5  1 -1</clus>
</clustering>
</event>
<event>
 9    1  0.1266593E-005  0.1388528E+03  0.7546771E-02  0.1215819E+00
          1   -1    0    0  502    0  0.00000000000E+00  0.00000000000E+00  0.15546752812E+03  0.15546752812E+03  0.00000000000E+00 0. -1.
         -1   -1    0    0    0  501 -0.00000000000E+00 -0.00000000000E+00 -0.16801798290E+03  0.16801798290E+03  0.00000000000E+00 0.  1.
         23    2    1    2    0    0 -0.11568417668E+02 -0.11668356872E+03 -0.22078294990E+02  0.14928659994E+03  0.89722652194E+02 0.  0.
         23    2    1    2    0    0 -0.13492987430E+02  0.93185653539E+02  0.27042880778E+02  0.13563723723E+03  0.93811065385E+02 0.  0.
        -11    1    3    3    0    0 -0.33656860610E+02 -0.17075930770E+02  0.15165776627E+02  0.40673977657E+02  0.00000000000E+00 0. -1.
         11    1    3    3    0    0  0.22088442941E+02 -0.99607637949E+02 -0.37244071617E+02  0.10861262229E+03  0.00000000000E+00 0.  1.
        -11    1    4    4    0    0 -0.14506879361E+02 -0.16282603317E+02 -0.32544761283E+01  0.22049134551E+02  0.00000000000E+00 0.  1.
         11    1    4    4    0    0  0.10138919316E+01  0.10946825686E+03  0.30297356906E+02  0.11358810268E+03  0.00000000000E+00 0. -1.
         21    1    1    2  502  501  0.25061405098E+02  0.23497915180E+02 -0.17515040572E+02  0.38561673842E+02  0.00000000000E+00 0. -1.
<scales pt_clust_5="13000.00000" pt_clust_6="13000.00000" pt_clust_7="13000.00000" pt_clust_8="13000.00000" pt_clust_9="34.35442"></scales>
<clustering>
<clus scale="   34.354">  2  9  1 -1</clus>
<clus scale="   89.723">  5  6 -1 -1</clus>
<clus scale="   93.811">  7  8 -1 -1</clus>
<clus scale="  136.124">  2  5  1 -1</clus>
<clus scale="  138.853">  1  5  2 -1</clus>
</clustering>
</event>
<event>
 9    1  0.1266593E-005  0.1033570E+03  0.7546771E-02  0.1273788E+00
          1   -1    0    0  502    0  0.00000000000E+00  0.00000000000E+00  0.27430188201E+03  0.27430188201E+03  0.00000000000E+00 0. -1.
         -1   -1    0    0    0  501 -0.00000000000E+00 -0.00000000000E+00 -0.77027961939E+02  0.77027961939E+02  0.00000000000E+00 0.  1.
         23    2    1    2    0    0  0.13179409988E+02 -0.27272062225E+02  0.45200691408E+02  0.10618520538E+03  0.91185158403E+02 0.  0.
         23    2    1    2    0    0  0.49669441405E+02  0.54891988214E+02  0.12580953060E+03  0.17164211977E+03  0.90292831997E+02 0.  0.
        -11    1    3    3    0    0 -0.31673935717E+02 -0.35523299482E+02  0.35963150984E+02  0.59653090772E+02  0.00000000000E+00 0.  1.
         11    1    3    3    0    0  0.44853345705E+02  0.82512372568E+01  0.92375404241E+01  0.46532114612E+02  0.00000000000E+00 0. -1.
        -13    1    4    4    0    0 -0.21257190473E+02  0.33114043139E+02  0.63740343583E+02  0.74908206492E+02  0.00000000000E+00 0.  1.
         13    1    4    4    0    0  0.70926631878E+02  0.21777945076E+02  0.62069187022E+02  0.96733913282E+02  0.00000000000E+00 0. -1.
         21    1    1    2  502  501 -0.62848851393E+02 -0.27619925989E+02  0.26263698061E+02  0.73502518793E+02  0.00000000000E+00 0. -1.
<scales pt_clust_5="13000.00000" pt_clust_6="13000.00000" pt_clust_7="13000.00000" pt_clust_8="13000.00000" pt_clust_9="68.65012"></scales>
<clustering>
<clus scale="   68.650">  2  9  1 -1</clus>
<clus scale="   90.293">  7  8 -1 -1</clus>
<clus scale="   91.185">  5  6 -1 -1</clus>
<clus scale="  102.571">  1  7  2 -1</clus>
<clus scale="  102.571">  1  5  2 -1</clus>
</clustering>
</event>
<event>
 9    1  0.1266593E-005  0.1227045E+03  0.7546771E-02  0.1241349E+00
         -4   -1    0    0    0  501 -0.00000000000E+00  0.00000000000E+00  0.34078570905E+03  0.34078570905E+03  0.00000000000E+00 0. -1.
          4   -1    0    0  502    0  0.00000000000E+00 -0.00000000000E+00 -0.55975932895E+02  0.55975932895E+02  0.00000000000E+00 0.  1.
         23    2    1    2    0    0 -0.20971206659E+02  0.87810118011E+02  0.14551818087E+03  0.19349794529E+03  0.90086100666E+02 0.  0.
         23    2    1    2    0    0  0.59787648180E+01 -0.61249996208E+02  0.97184645733E+02  0.15127130699E+03  0.98238715832E+02 0.  0.
        -11    1    4    4    0    0 -0.10479451242E+02 -0.38095622436E+02 -0.96933724401E+01  0.40682389512E+02  0.00000000000E+00 0.  1.
         11    1    4    4    0    0  0.16458216060E+02 -0.23154373772E+02  0.10687801817E+03  0.11058891748E+03  0.00000000000E+00 0. -1.
        -11    1    3    3    0    0  0.24133864628E+02  0.37562692970E+01  0.71773452761E+01  0.25457165320E+02  0.00000000000E+00 0. -1.
         11    1    3    3    0    0 -0.45105071288E+02  0.84053848714E+02  0.13834083559E+03  0.16804077997E+03  0.00000000000E+00 0.  1.
         21    1    1    2  502  501  0.14992441841E+02 -0.26560121803E+02  0.42106949559E+02  0.51992389671E+02  0.00000000000E+00 0. -1.
<scales pt_clust_5="13000.00000" pt_clust_6="13000.00000" pt_clust_7="13000.00000" pt_clust_8="13000.00000" pt_clust_9="30.49940"></scales>
<clustering>
<clus scale="   30.499">  1  9  2 -1</clus>
<clus scale="   90.086">  7  8 -1 -1</clus>
<clus scale="   98.239">  5  6 -1 -1</clus>
<clus scale="  116.280">  1  7  2 -1</clus>
<clus scale="  122.704">  2  5  1 -1</clus>
</clustering>
</event>
<event>
 9    1  0.1266593E-005  0.9152007E+02  0.7546771E-02  0.1301220E+00
          1   -1    0    0  502    0  0.00000000000E+00  0.00000000000E+00  0.37660744408E+03  0.37660744408E+03  0.00000000000E+00 0. -1.
         -1   -1    0    0    0  501 -0.00000000000E+00 -0.00000000000E+00 -0.32041832421E+02  0.32041832421E+02  0.00000000000E+00 0.  1.
         23    2    1    2    0    0 -0.15472365400E+02  0.91588688641E+01  0.10703431846E+03  0.13935134538E+03  0.87402363591E+02 0.  0.
         23    2    1    2    0    0  0.55066167428E+01  0.17215277185E+02  0.21177433681E+03  0.23110981086E+03  0.90756191803E+02 0.  0.
        -11    1    3    3    0    0  0.10773030246E+02 -0.33913053745E+02  0.63193906159E+02  0.72523259514E+02  0.00000000000E+00 0. -1.
         11    1    3    3    0    0 -0.26245395646E+02  0.43071922609E+02  0.43840412306E+02  0.66828085870E+02  0.00000000000E+00 0.  1.
        -13    1    4    4    0    0  0.32319399862E+02  0.41317605027E+02  0.90649407280E+02  0.10473300880E+03  0.00000000000E+00 0. -1.
         13    1    4    4    0    0 -0.26812783119E+02 -0.24102327843E+02  0.12112492953E+03  0.12637680206E+03  0.00000000000E+00 0.  1.
         21    1    1    2  502  501  0.99657486572E+01 -0.26374146049E+02  0.25756956383E+02  0.38188120250E+02  0.00000000000E+00 0.  1.
<scales pt_clust_5="13000.00000" pt_clust_6="13000.00000" pt_clust_7="13000.00000" pt_clust_8="13000.00000" pt_clust_9="28.19418"></scales>
<clustering>
<clus scale="   28.194">  2  9  1 -1</clus>
<clus scale="   87.402">  5  6 -1 -1</clus>
<clus scale="   88.195">  2  5  1 -1</clus>
<clus scale="   90.756">  7  8 -1 -1</clus>
<clus scale="   91.520">  1  5  2 -1</clus>
</clustering>
</event>
<event>
 9    1  0.1266593E-005  0.1131031E+03  0.7546771E-02  0.1257662E+00
          1   -1    0    0  502    0  0.00000000000E+00  0.00000000000E+00  0.35854525697E+02  0.35854525697E+02  0.00000000000E+00 0. -1.
         -1   -1    0    0    0  501 -0.00000000000E+00 -0.00000000000E+00 -0.50086459882E+03  0.50086459882E+03  0.00000000000E+00 0.  1.
         23    2    1    2    0    0 -0.51408780067E+02  0.37623952918E+02 -0.22640119166E+03  0.25427129332E+03  0.96633154355E+02 0.  0.
         23    2    1    2    0    0  0.25700583862E+02 -0.52578747825E+02 -0.12282806460E+03  0.16290806879E+03  0.89594981388E+02 0.  0.
        -11    1    4    4    0    0  0.41746996247E+02  0.27045405041E+01 -0.82879801265E+02  0.92839580421E+02  0.00000000000E+00 0.  1.
         11    1    4    4    0    0 -0.16046412385E+02 -0.55283288329E+02 -0.39948263335E+02  0.70068488369E+02  0.00000000000E+00 0. -1.
        -11    1    3    3    0    0 -0.31425675260E+02  0.35791438739E+02 -0.22912240341E+03  0.23402067408E+03  0.00000000000E+00 0.  1.
         11    1    3    3    0    0 -0.19983104807E+02  0.18325141790E+01  0.27212117561E+01  0.20250619234E+02  0.00000000000E+00 0. -1.
         21    1    1    2  502  501  0.25708196205E+02  0.14954794907E+02 -0.11578081686E+03  0.11953976241E+03  0.00000000000E+00 0. -1.
<scales pt_clust_5="13000.00000" pt_clust_6="13000.00000" pt_clust_7="13000.00000" pt_clust_8="13000.00000" pt_clust_9="29.74151"></scales>
<clustering>
<clus scale="   29.742">  2  9  1 -1</clus>
<clus scale="   89.595">  5  6 -1 -1</clus>
<clus scale="   96.633">  7  8 -1 -1</clus>
<clus scale="  107.152">  1  5  2 -1</clus>
<clus scale="  107.152">  1  5  2 -1</clus>
</clustering>
</event>
<event>
 9    1  0.1266593E-005  0.1059003E+03  0.7546771E-02  0.1268863E+00
          1   -1    0    0  502    0  0.00000000000E+00  0.00000000000E+00  0.84943231967E+02  0.84943231967E+02  0.00000000000E+00 0. -1.
         -1   -1    0    0    0  501 -0.00000000000E+00 -0.00000000000E+00 -0.28498448415E+03  0.28498448415E+03  0.00000000000E+00 0.  1.
         23    2    1    2    0    0  0.60477292237E+02 -0.32501349254E+02 -0.14099825329E+03  0.18031554621E+03  0.88990719700E+02 0.  0.
         23    2    1    2    0    0 -0.22723969127E+02  0.52734172902E+02  0.13124104357E+02  0.10569094882E+03  0.87755699428E+02 0.  0.
        -13    1    3    3    0    0  0.39196288128E+02 -0.56826922534E+02 -0.54430041770E+02  0.87910622650E+02  0.00000000000E+00 0.  1.
         13    1    3    3    0    0  0.21281004109E+02  0.24325573280E+02 -0.86568211522E+02  0.92404923557E+02  0.00000000000E+00 0. -1.
        -13    1    4    4    0    0 -0.14162215857E+02  0.34482881577E+02 -0.36473256393E+02  0.52153004819E+02  0.00000000000E+00 0.  1.
         13    1    4    4    0    0 -0.85617532703E+01  0.18251291325E+02  0.49597360750E+02  0.53537943997E+02  0.00000000000E+00 0. -1.
         21    1    1    2  502  501 -0.37753323110E+02 -0.20232823648E+02 -0.72167103244E+02  0.83921221090E+02  0.00000000000E+00 0.  1.
<scales pt_clust_5="13000.00000" pt_clust_6="13000.00000" pt_clust_7="13000.00000" pt_clust_8="13000.00000" pt_clust_9="42.83317"></scales>
<clustering>
<clus scale="   42.833">  2  9  1 -1</clus>
<clus scale="   87.756">  7  8 -1 -1</clus>
<clus scale="   88.991">  5  6 -1 -1</clus>
<clus scale="  104.865">  1  7  2 -1</clus>
<clus scale="  104.865">  1  5  2 -1</clus>
</clustering>
</event>
<event>
 9    1  0.1266593E-005  0.1275753E+03  0.7546771E-02  0.1231961E+00
         -2   -1    0    0    0  501 -0.00000000000E+00  0.00000000000E+00  0.34302728740E+02  0.34302728740E+02  0.00000000000E+00 0.  1.
          2   -1    0    0  502    0  0.00000000000E+00 -0.00000000000E+00 -0.64528940342E+03  0.64528940342E+03  0.00000000000E+00 0. -1.
         23    2    1    2    0    0  0.99422539930E+01 -0.70059806072E+02 -0.17902715623E+03  0.21309988387E+03  0.91398101691E+02 0.  0.
         23    2    1    2    0    0 -0.15708499052E+02  0.93692025232E+02 -0.41686908765E+03  0.43786616812E+03  0.94456298955E+02 0.  0.
        -11    1    3    3    0    0  0.37455473710E+02 -0.23225523527E+02 -0.27058515158E+02  0.51715574990E+02  0.00000000000E+00 0.  1.
         11    1    3    3    0    0 -0.27513219717E+02 -0.46834282545E+02 -0.15196864108E+03  0.16138430888E+03  0.00000000000E+00 0. -1.
        -13    1    4    4    0    0 -0.25919261938E+02  0.26762679758E+02 -0.38831801764E+02  0.53814105915E+02  0.00000000000E+00 0. -1.
         13    1    4    4    0    0  0.10210762886E+02  0.66929345474E+02 -0.37803728589E+03  0.38405206221E+03  0.00000000000E+00 0.  1.
         21    1    1    2  502  501  0.57662450590E+01 -0.23632219160E+02 -0.15090430793E+02  0.28626080172E+02  0.00000000000E+00 0.  1.
<scales pt_clust_5="13000.00000" pt_clust_6="13000.00000" pt_clust_7="13000.00000" pt_clust_8="13000.00000" pt_clust_9="24.32553"></scales>
<clustering>
<clus scale="   24.326">  1  9  2 -1</clus>
<clus scale="   91.398">  5  6 -1 -1</clus>
<clus scale="   94.456">  7  8 -1 -1</clus>
<clus scale="  125.328">  1  5  2 -1</clus>
<clus scale="  127.575">  2  5  1 -1</clus>
</clustering>
</event>
<event>
 9    1  0.1266593E-005  0.9789125E+02  0.7546771E-02  0.1286183E+00
          2   -1    0    0  502    0  0.00000000000E+00  0.00000000000E+00  0.40831315683E+03  0.40831315683E+03  0.00000000000E+00 0. -1.
         -2   -1    0    0    0  501 -0.00000000000E+00 -0.00000000000E+00 -0.47372518079E+02  0.47372518079E+02  0.00000000000E+00 0.  1.
         23    2    1    2    0    0 -0.36382193794E+01  0.42594410362E+02  0.58796979937E+02  0.11790359549E+03  0.92825926041E+02 0.  0.
         23    2    1    2    0    0  0.27533459103E+02  0.54782824096E+01  0.22281154938E+03  0.24199298892E+03  0.90152743721E+02 0.  0.
        -11    1    3    3    0    0 -0.35562737201E+02 -0.13133023676E+02  0.19841273014E+02  0.42788558084E+02  0.00000000000E+00 0.  1.
         11    1    3    3    0    0  0.31924517822E+02  0.55727434038E+02  0.38955706924E+02  0.75115037406E+02  0.00000000000E+00 0. -1.
        -13    1    4    4    0    0  0.51563711570E+02  0.27518421470E+02  0.17161246039E+03  0.18129235073E+03  0.00000000000E+00 0. -1.
         13    1    4    4    0    0 -0.24030252467E+02 -0.22040139061E+02  0.51199088989E+02  0.60700638191E+02  0.00000000000E+00 0.  1.
         21    1    1    2  502  501 -0.23895239723E+02 -0.48072692772E+02  0.79332109431E+02  0.95789090499E+02  0.00000000000E+00 0.  1.
<scales pt_clust_5="13000.00000" pt_clust_6="13000.00000" pt_clust_7="13000.00000" pt_clust_8="13000.00000" pt_clust_9="53.68395"></scales>
<clustering>
<clus scale="   53.684">  1  9  2 -1</clus>
<clus scale="   90.153">  7  8 -1 -1</clus>
<clus scale="   92.826">  5  6 -1 -1</clus>
<clus scale="   95.360">  1  7  2 -1</clus>
<clus scale="   53.684">  1  5  2 -1</clus>
</clustering>
</event>
<event>
 9    1  0.1266593E-005  0.2065753E+03  0.7546771E-02  0.1179804E+00
          2   -1    0    0  502    0  0.00000000000E+00  0.00000000000E+00  0.98127779612E+03  0.98127779612E+03  0.00000000000E+00 0. -1.
         -2   -1    0    0    0  501 -0.00000000000E+00 -0.00000000000E+00 -0.11486386311E+03  0.11486386311E+03  0.00000000000E+00 0.  1.
         23    2    1    2    0    0  0.42839149968E+02  0.18029925528E+03  0.24743464024E+02  0.20768556830E+03  0.90432527571E+02 0.  0.
         23    2    1    2    0    0 -0.54533760058E+01  0.40925525066E+01  0.19639776095E+03  0.21631406531E+03  0.90405785486E+02 0.  0.
        -13    1    3    3    0    0  0.33466247985E+02  0.13444516529E+03  0.58075262886E+02  0.15022725580E+03  0.00000000000E+00 0. -1.
         13    1    3    3    0    0  0.93729019831E+01  0.45854089984E+02 -0.33331798862E+02  0.57458312498E+02  0.00000000000E+00 0.  1.
        -13    1    4    4    0    0 -0.10771355825E+02  0.33530734926E+02  0.27218681296E+02  0.44510548216E+02  0.00000000000E+00 0.  1.
         13    1    4    4    0    0  0.53179798197E+01 -0.29438182419E+02  0.16917907966E+03  0.17180351710E+03  0.00000000000E+00 0. -1.
         21    1    1    2  502  501 -0.37385773962E+02 -0.18439180778E+03  0.64527270803E+03  0.67214202562E+03  0.00000000000E+00 0. -1.
<scales pt_clust_5="13000.00000" pt_clust_6="13000.00000" pt_clust_7="13000.00000" pt_clust_8="13000.00000" pt_clust_9="185.72913"></scales>
<clustering>
<clus scale="   90.406">  7  8 -1 -1</clus>
<clus scale="   90.433">  5  6 -1 -1</clus>
<clus scale="   90.663">  1  7  2 -1</clus>
<clus scale="  185.729">  1  9  2 -1</clus>
<clus scale="   90.663">  1  5  2 -1</clus>
</clustering>
</event>
<event>
 9    1  0.1266593E-005  0.1440500E+03  0.7546771E-02  0.1210693E+00
          1   -1    0    0  502    0  0.00000000000E+00  0.00000000000E+00  0.53078511296E+03  0.53078511296E+03  0.00000000000E+00 0. -1.
         -1   -1    0    0    0  501 -0.00000000000E+00 -0.00000000000E+00 -0.53177422000E+02  0.53177422000E+02  0.00000000000E+00 0.  1.
         23    2    1    2    0    0 -0.95548503276E+02  0.89655285573E+02  0.19568871631E+03  0.25172195623E+03  0.88894785269E+02 0.  0.
         23    2    1    2    0    0  0.85430787379E+02 -0.60285307796E+02  0.26975005559E+03  0.29887822928E+03  0.75035762696E+02 0.  0.
        -13    1    4    4    0    0  0.59197942516E+02 -0.76309240608E+02  0.22188212660E+03  0.24199003018E+03  0.00000000000E+00 0. -1.
         13    1    4    4    0    0  0.26232844863E+02  0.16023932812E+02  0.47867928988E+02  0.56888199110E+02  0.00000000000E+00 0.  1.
        -13    1    3    3    0    0 -0.24739811275E+02 -0.50679378252E+01  0.88768565112E+02  0.92290846826E+02  0.00000000000E+00 0. -1.
         13    1    3    3    0    0 -0.70808692000E+02  0.94723223398E+02  0.10692015120E+03  0.15943110940E+03  0.00000000000E+00 0.  1.
         21    1    1    2  502  501  0.10117715897E+02 -0.29369977777E+02  0.12168919071E+02  0.33362349452E+02  0.00000000000E+00 0. -1.
<scales pt_clust_5="13000.00000" pt_clust_6="13000.00000" pt_clust_7="13000.00000" pt_clust_8="13000.00000" pt_clust_9="31.06387"></scales>
<clustering>
<clus scale="   31.064">  2  9  1 -1</clus>
<clus scale="   75.036">  5  6 -1 -1</clus>
<clus scale="   88.895">  7  8 -1 -1</clus>
<clus scale="  135.936">  1  5  2 -1</clus>
<clus scale="  135.936">  1  5  2 -1</clus>
</clustering>
</event>
<event>
 9    1  0.1266593E-005  0.1157323E+03  0.7546771E-02  0.1251339E+00
         -1   -1    0    0    0  501 -0.00000000000E+00  0.00000000000E+00  0.11227245653E+03  0.11227245653E+03  0.00000000000E+00 0.  1.
          1   -1    0    0  502    0  0.00000000000E+00 -0.00000000000E+00 -0.16520385080E+03  0.16520385080E+03  0.00000000000E+00 0. -1.
         23    2    1    2    0    0  0.58541112653E+02 -0.50410273716E+01  0.34472495785E+01  0.11061592941E+03  0.93656427875E+02 0.  0.
         23    2    1    2    0    0 -0.72925063248E+02 -0.12150934007E+02 -0.73895309208E+02  0.13841226488E+03  0.90728872462E+02 0.  0.
        -13    1    3    3    0    0  0.14465031852E+02  0.33851956669E+02 -0.25805722371E+02  0.44956950785E+02  0.00000000000E+00 0. -1.
         13    1    3    3    0    0  0.44076080801E+02 -0.38892984041E+02  0.29252971949E+02  0.65658978626E+02  0.00000000000E+00 0.  1.
        -13    1    4    4    0    0  0.17149149565E+02 -0.15866270145E+02 -0.30335126970E+02  0.38289055713E+02  0.00000000000E+00 0.  1.
         13    1    4    4    0    0 -0.90074212813E+02  0.37153361380E+01 -0.43560182238E+02  0.10012320916E+03  0.00000000000E+00 0. -1.
         21    1    1    2  502  501  0.14383950595E+02  0.17191961379E+02  0.17516665358E+02  0.28448113049E+02  0.00000000000E+00 0. -1.
<scales pt_clust_5="13000.00000" pt_clust_6="13000.00000" pt_clust_7="13000.00000" pt_clust_8="13000.00000" pt_clust_9="22.41565"></scales>
<clustering>
<clus scale="   22.416">  1  9  2 -1</clus>
<clus scale="   90.729">  7  8 -1 -1</clus>
<clus scale="   93.656">  5  6 -1 -1</clus>
<clus scale="  113.376">  2  7  1 -1</clus>
<clus scale="  113.376">  2  5  1 -1</clus>
</clustering>
</event>
<event>
 9    1  0.1266593E-005  0.1037728E+03  0.7546771E-02  0.1272739E+00
          1   -1    0    0  502    0  0.00000000000E+00  0.00000000000E+00  0.28513860336E+03  0.28513860336E+03  0.00000000000E+00 0. -1.
         -1   -1    0    0    0  501 -0.00000000000E+00 -0.00000000000E+00 -0.48167746496E+02  0.48167746496E+02  0.00000000000E+00 0.  1.
         23    2    1    2    0    0 -0.23504172152E+02  0.19990569809E+02  0.93057866618E+02  0.13656177857E+03  0.95064629789E+02 0.  0.
         23    2    1    2    0    0  0.46683919686E+02 -0.18719415556E+02  0.13249959237E+03  0.17087601547E+03  0.95460283932E+02 0.  0.
        -11    1    4    4    0    0  0.14684064246E+02  0.37515653628E+02  0.32462842221E+02  0.51738594250E+02  0.00000000000E+00 0.  1.
         11    1    4    4    0    0  0.31999855441E+02 -0.56235069184E+02  0.10003675015E+03  0.11913742122E+03  0.00000000000E+00 0. -1.
        -13    1    3    3    0    0 -0.23065859582E+02  0.47415249168E+02  0.16516262927E+02  0.55254200501E+02  0.00000000000E+00 0.  1.
         13    1    3    3    0    0 -0.43831257029E+00 -0.27424679359E+02  0.76541603691E+02  0.81307578069E+02  0.00000000000E+00 0. -1.
         21    1    1    2  502  501 -0.23179747534E+02 -0.12711542533E+01  0.11413397872E+02  0.25868555814E+02  0.00000000000E+00 0.  1.
<scales pt_clust_5="13000.00000" pt_clust_6="13000.00000" pt_clust_7="13000.00000" pt_clust_8="13000.00000" pt_clust_9="23.21458"></scales>
<clustering>
<clus scale="   23.215">  2  9  1 -1</clus>
<clus scale="   95.065">  7  8 -1 -1</clus>
<clus scale="   95.460">  5  6 -1 -1</clus>
<clus scale="  103.409">  2  7  1 -1</clus>
<clus scale="  103.773">  1  5  2 -1</clus>
</clustering>
</event>
<event>
 9    1  0.1266593E-005  0.2167250E+03  0.7546771E-02  0.1157400E+00
          1   -1    0    0  502    0  0.00000000000E+00  0.00000000000E+00  0.64307177933E+03  0.64307177933E+03  0.00000000000E+00 0. -1.
         -1   -1    0    0    0  501 -0.00000000000E+00 -0.00000000000E+00 -0.12038535592E+03  0.12038535592E+03  0.00000000000E+00 0.  1.
         23    2    1    2    0    0 -0.76138045570E+02  0.43807621513E+02  0.10870830652E+03  0.17041352702E+03  0.97504690135E+02 0.  0.
         23    2    1    2    0    0 -0.84879313073E+02 -0.17404201311E+03  0.17166936194E+03  0.27429430351E+03  0.90949848778E+02 0.  0.
        -11    1    4    4    0    0  0.96756155095E+01 -0.79803073222E+02  0.67318637927E+02  0.10485202451E+03  0.00000000000E+00 0. -1.
         11    1    4    4    0    0 -0.94554928582E+02 -0.94238939890E+02  0.10435072401E+03  0.16944227900E+03  0.00000000000E+00 0.  1.
        -13    1    3    3    0    0 -0.99041366002E+02  0.30330338298E+02  0.94824897157E+02  0.14043106039E+03  0.00000000000E+00 0.  1.
         13    1    3    3    0    0  0.22903320432E+02  0.13477283216E+02  0.13883409360E+02  0.29982466628E+02  0.00000000000E+00 0. -1.
         21    1    1    2  502  501  0.16101735864E+03  0.13023439160E+03  0.24230875495E+03  0.31874930473E+03  0.00000000000E+00 0. -1.
<scales pt_clust_5="13000.00000" pt_clust_6="13000.00000" pt_clust_7="13000.00000" pt_clust_8="13000.00000" pt_clust_9="196.71766"></scales>
<clustering>
<clus scale="   90.950">  5  6 -1 -1</clus>
<clus scale="   97.505">  7  8 -1 -1</clus>
<clus scale="  131.237">  2  7  1 -1</clus>
<clus scale="  196.718">  1  9  2 -1</clus>
<clus scale="  196.718">  1  5  2 -1</clus>
</clustering>
</event>
<event>
 9    1  0.1266593E-005  0.1948881E+03  0.7546771E-02  0.1154270E+00
         -1   -1    0    0    0  501 -0.00000000000E+00  0.00000000000E+00  0.65518245913E+02  0.65518245913E+02  0.00000000000E+00 0.  1.
          1   -1    0    0  502    0  0.00000000000E+00 -0.00000000000E+00 -0.68307355627E+03  0.68307355627E+03  0.00000000000E+00 0. -1.
         23    2    1    2    0    0 -0.12472789972E+03  0.96139537913E+02 -0.18543994845E+03  0.25973395764E+03  0.90960950703E+02 0.  0.
         23    2    1    2    0    0  0.14554573025E+03 -0.10722395782E+03 -0.40418083108E+03  0.45229851679E+03  0.92364859967E+02 0.  0.
        -11    1    3    3    0    0 -0.12556978634E+03  0.55738625207E+02 -0.16416129599E+03  0.21406423495E+03  0.00000000000E+00 0. -1.
         11    1    3    3    0    0  0.84188662371E+00  0.40400912706E+02 -0.21278652460E+02  0.45669722696E+02  0.00000000000E+00 0.  1.
        -13    1    4    4    0    0  0.28438323616E+02 -0.40018659419E+02 -0.21082402847E+03  0.21646478313E+03  0.00000000000E+00 0. -1.
         13    1    4    4    0    0  0.11710740663E+03 -0.67205298405E+02 -0.19335680261E+03  0.23583373367E+03  0.00000000000E+00 0.  1.
         21    1    1    2  502  501 -0.20817830530E+02  0.11084419911E+02 -0.27934530832E+02  0.36559327750E+02  0.00000000000E+00 0. -1.
<scales pt_clust_5="13000.00000" pt_clust_6="13000.00000" pt_clust_7="13000.00000" pt_clust_8="13000.00000" pt_clust_9="23.58488"></scales>
<clustering>
<clus scale="   23.585">  1  9  2 -1</clus>
<clus scale="   90.961">  5  6 -1 -1</clus>
<clus scale="   92.365">  7  8 -1 -1</clus>
<clus scale="  194.227">  1  5  2 -1</clus>
<clus scale="  194.888">  2  5  1 -1</clus>
</clustering>
</event>
<event>
 9    1  0.1266593E-005  0.9535894E+02  0.7546771E-02  0.1291501E+00
          2   -1    0    0  502    0  0.00000000000E+00  0.00000000000E+00  0.31645987910E+03  0.31645987910E+03  0.00000000000E+00 0. -1.
         -2   -1    0    0    0  501 -0.00000000000E+00 -0.00000000000E+00 -0.58135667781E+02  0.58135667781E+02  0.00000000000E+00 0.  1.
         23    2    1    2    0    0 -0.55883227906E+01  0.31596300595E+02  0.61471104452E+02  0.11615982074E+03  0.93192551788E+02 0.  0.
         23    2    1    2    0    0 -0.98970799275E+01  0.10672175701E+02  0.18985207136E+03  0.21287876966E+03  0.95193035705E+02 0.  0.
        -11    1    3    3    0    0  0.34877243420E+02 -0.13647924753E+02  0.18378844114E+02  0.41718938980E+02  0.00000000000E+00 0.  1.
         11    1    3    3    0    0 -0.40465566211E+02  0.45244225348E+02  0.43092260337E+02  0.74440881759E+02  0.00000000000E+00 0. -1.
        -13    1    4    4    0    0  0.29856565510E+02 -0.21545542714E+02  0.39227298620E+02  0.53799682823E+02  0.00000000000E+00 0.  1.
         13    1    4    4    0    0 -0.39753645438E+02  0.32217718416E+02  0.15062477274E+03  0.15907908684E+03  0.00000000000E+00 0. -1.
         21    1    1    2  502  501  0.15485402718E+02 -0.42268476296E+02  0.70010355078E+01  0.45556956482E+02  0.00000000000E+00 0.  1.
<scales pt_clust_5="13000.00000" pt_clust_6="13000.00000" pt_clust_7="13000.00000" pt_clust_8="13000.00000" pt_clust_9="45.01579"></scales>
<clustering>
<clus scale="   45.016">  2  9  1 -1</clus>
<clus scale="   93.193">  5  6 -1 -1</clus>
<clus scale="   93.362">  2  5  1 -1</clus>
<clus scale="   95.193">  7  8 -1 -1</clus>
<clus scale="   95.359">  1  5  2 -1</clus>
</clustering>
</event>
<event>
 9    1  0.1266593E-005  0.1097839E+03  0.7546771E-02  0.1261067E+00
         -2   -1    0    0    0  501 -0.00000000000E+00  0.00000000000E+00  0.15213148246E+03  0.15213148246E+03  0.00000000000E+00 0.  1.
          2   -1    0    0  502    0  0.00000000000E+00 -0.00000000000E+00 -0.19143107268E+03  0.19143107268E+03  0.00000000000E+00 0. -1.
         23    2    1    2    0    0 -0.35931889593E+02  0.93188132206E+02  0.21818739717E+02  0.13520043021E+03  0.88475817326E+02 0.  0.
         23    2    1    2    0    0 -0.69371587417E+01 -0.56091878180E+02 -0.95478555905E+02  0.14207100564E+03  0.88733269050E+02 0.  0.
        -11    1    4    4    0    0  0.93536241058E+00 -0.77292496723E+02 -0.52301373768E+02  0.93329730797E+02  0.00000000000E+00 0. -1.
         11    1    4    4    0    0 -0.78725211523E+01  0.21200618543E+02 -0.43177182137E+02  0.48741274842E+02  0.00000000000E+00 0.  1.
        -13    1    3    3    0    0  0.10685358551E+02  0.84896449176E+02  0.19696575315E+02  0.87803980827E+02  0.00000000000E+00 0.  1.
         13    1    3    3    0    0 -0.46617248144E+02  0.82916830302E+01  0.21221644022E+01  0.47396449380E+02  0.00000000000E+00 0. -1.
         21    1    1    2  502  501  0.42869048335E+02 -0.37096254026E+02  0.34360225972E+02  0.66291119290E+02  0.00000000000E+00 0. -1.
<scales pt_clust_5="13000.00000" pt_clust_6="13000.00000" pt_clust_7="13000.00000" pt_clust_8="13000.00000" pt_clust_9="56.69116"></scales>
<clustering>
<clus scale="   56.691">  1  9  2 -1</clus>
<clus scale="   88.476">  7  8 -1 -1</clus>
<clus scale="   88.733">  5  6 -1 -1</clus>
<clus scale="  109.576">  1  7  2 -1</clus>
<clus scale="  109.784">  2  5  1 -1</clus>
</clustering>
</event>
<event>
 9    1  0.1266593E-005  0.1119169E+03  0.7546771E-02  0.1265841E+00
         -1   -1    0    0    0  501 -0.00000000000E+00  0.00000000000E+00  0.40878774789E+03  0.40878774789E+03  0.00000000000E+00 0.  1.
          1   -1    0    0  502    0  0.00000000000E+00 -0.00000000000E+00 -0.22609002281E+03  0.22609002281E+03  0.00000000000E+00 0. -1.
         23    2    1    2    0    0  0.63781870266E+02  0.42424156200E+02 -0.35536077824E+02  0.13920755225E+03  0.11067065452E+03 0.  0.
         23    2    1    2    0    0  0.66084520349E+01 -0.41315090784E+01 -0.11785203412E+03  0.15016361337E+03  0.92732237267E+02 0.  0.
        -11    1    3    3    0    0 -0.25264549981E+02 -0.14108259781E+02 -0.46961930343E+01  0.29315434651E+02  0.00000000000E+00 0.  1.
         11    1    3    3    0    0  0.89046420247E+02  0.56532415981E+02 -0.30839884790E+02  0.10989211759E+03  0.00000000000E+00 0. -1.
        -13    1    4    4    0    0 -0.24460543775E+02  0.35207091609E+02 -0.51623322857E+02  0.67103092061E+02  0.00000000000E+00 0.  1.
         13    1    4    4    0    0  0.31068995810E+02 -0.39338600687E+02 -0.66228711267E+02  0.83060521313E+02  0.00000000000E+00 0. -1.
         21    1    1    2  502  501 -0.70390322301E+02 -0.38292647122E+02  0.33608583704E+03  0.34550660508E+03  0.00000000000E+00 0.  1.
<scales pt_clust_5="13000.00000" pt_clust_6="13000.00000" pt_clust_7="13000.00000" pt_clust_8="13000.00000" pt_clust_9="80.13192"></scales>
<clustering>
<clus scale="   80.132">  1  9  2 -1</clus>
<clus scale="   92.732">  7  8 -1 -1</clus>
<clus scale="   94.216">  2  7  1 -1</clus>
<clus scale="  110.671">  5  6 -1 -1</clus>
<clus scale="   94.216">  2  5  1 -1</clus>
</clustering>
</event>
<event>
 9    1  0.1266593E-005  0.1187636E+03  0.7546771E-02  0.1246326E+00
         -3   -1    0    0    0  501 -0.00000000000E+00  0.00000000000E+00  0.49517420929E+02  0.49517420929E+02  0.00000000000E+00 0.  1.
          3   -1    0    0  502    0  0.00000000000E+00 -0.00000000000E+00 -0.45043725814E+03  0.45043725814E+03  0.00000000000E+00 0. -1.
         23    2    1    2    0    0  0.47062879778E+02  0.18149366084E+02 -0.12220022897E+03  0.16107614789E+03  0.92023449818E+02 0.  0.
         23    2    1    2    0    0 -0.82607941981E+02 -0.46595957152E+02 -0.25822825111E+03  0.28895302961E+03  0.88412489760E+02 0.  0.
        -11    1    4    4    0    0 -0.19341725456E+02 -0.59654771340E+02 -0.15464324046E+03  0.16687518062E+03  0.00000000000E+00 0. -1.
         11    1    4    4    0    0 -0.63266216525E+02  0.13058814189E+02 -0.10358501065E+03  0.12207784899E+03  0.00000000000E+00 0.  1.
        -11    1    3    3    0    0  0.67299234489E+02  0.36230172481E+02 -0.77965663122E+02  0.10918084533E+03  0.00000000000E+00 0.  1.
         11    1    3    3    0    0 -0.20236354711E+02 -0.18080806397E+02 -0.44234565851E+02  0.51895302562E+02  0.00000000000E+00 0. -1.
         21    1    1    2  502  501  0.35545062203E+02  0.28446591067E+02 -0.20491357129E+02  0.49925501573E+02  0.00000000000E+00 0.  1.
<scales pt_clust_5="13000.00000" pt_clust_6="13000.00000" pt_clust_7="13000.00000" pt_clust_8="13000.00000" pt_clust_9="45.52648"></scales>
<clustering>
<clus scale="   45.526">  1  9  2 -1</clus>
<clus scale="   88.412">  5  6 -1 -1</clus>
<clus scale="   92.023">  7  8 -1 -1</clus>
<clus scale="  115.988">  2  5  1 -1</clus>
<clus scale="  115.988">  2  5  1 -1</clus>
</clustering>
</event>
<event>
 9    1  0.1266593E-005  0.1203078E+03  0.7546771E-02  0.1242713E+00
         -1   -1    0    0    0  501 -0.00000000000E+00  0.00000000000E+00  0.24656002080E+03  0.24656002080E+03  0.00000000000E+00 0.  1.
          1   -1    0    0  502    0  0.00000000000E+00 -0.00000000000E+00 -0.11414815912E+03  0.11414815912E+03  0.00000000000E+00 0. -1.
         23    2    1    2    0    0  0.52513938841E+02 -0.80474009141E+02  0.10330554091E+03  0.16750672885E+03  0.90292244997E+02 0.  0.
         23    2    1    2    0    0 -0.44765779583E+02  0.59375025794E+02 -0.37790087966E+02  0.12262999386E+03  0.89892468743E+02 0.  0.
        -13    1    3    3    0    0  0.55068032521E+02 -0.30110182894E+02  0.98571390347E+02  0.11685645175E+03  0.00000000000E+00 0. -1.
         13    1    3    3    0    0 -0.25540936805E+01 -0.50363826247E+02  0.47341505607E+01  0.50650277100E+02  0.00000000000E+00 0.  1.
        -13    1    4    4    0    0  0.22389267521E+02  0.40476900318E+02 -0.88162109450E+01  0.47089110577E+02  0.00000000000E+00 0.  1.
         13    1    4    4    0    0 -0.67155047104E+02  0.18898125477E+02 -0.28973877021E+02  0.75540883286E+02  0.00000000000E+00 0. -1.
         21    1    1    2  502  501 -0.77481592580E+01  0.21098983347E+02  0.66896408737E+02  0.70571457205E+02  0.00000000000E+00 0.  1.
<scales pt_clust_5="13000.00000" pt_clust_6="13000.00000" pt_clust_7="13000.00000" pt_clust_8="13000.00000" pt_clust_9="22.47668"></scales>
<clustering>
<clus scale="   22.477">  1  9  2 -1</clus>
<clus scale="   89.892">  7  8 -1 -1</clus>
<clus scale="   90.292">  5  6 -1 -1</clus>
<clus scale="  120.008">  2  7  1 -1</clus>
<clus scale="  120.008">  2  5  1 -1</clus>
</clustering>
</event>
<event>
 9    1  0.1266593E-005  0.1505057E+03  0.7546771E-02  0.1208485E+00
          1   -1    0    0  502    0  0.00000000000E+00  0.00000000000E+00  0.85987432527E+03  0.85987432527E+03  0.00000000000E+00 0. -1.
         -1   -1    0    0    0  501 -0.00000000000E+00 -0.00000000000E+00 -0.36762663057E+02  0.36762663057E+02  0.00000000000E+00 0.  1.
         23    2    1    2    0    0  0.91905021125E+02 -0.33654259371E+02  0.14160773872E+03  0.19351587960E+03  0.88410982970E+02 0.  0.
         23    2    1    2    0    0 -0.84203371684E+02  0.14730411579E+02  0.63676296056E+03  0.65393593633E+03  0.12189318299E+03 0.  0.
        -11    1    3    3    0    0  0.78512333175E+02 -0.62309155035E+02  0.10587375711E+03  0.14579392891E+03  0.00000000000E+00 0. -1.
         11    1    3    3    0    0  0.13392687950E+02  0.28654895664E+02  0.35733981607E+02  0.47721950689E+02  0.00000000000E+00 0.  1.
        -13    1    4    4    0    0 -0.63732346785E+02 -0.48808416789E+02  0.39810063768E+03  0.40611352021E+03  0.00000000000E+00 0. -1.
         13    1    4    4    0    0 -0.20471024899E+02  0.63538828368E+02  0.23866232288E+03  0.24782241612E+03  0.00000000000E+00 0.  1.
         21    1    1    2  502  501 -0.77016494408E+01  0.18923847792E+02  0.44740962944E+02  0.49185172405E+02  0.00000000000E+00 0.  1.
<scales pt_clust_5="13000.00000" pt_clust_6="13000.00000" pt_clust_7="13000.00000" pt_clust_8="13000.00000" pt_clust_9="20.43104"></scales>
<clustering>
<clus scale="   20.431">  2  9  1 -1</clus>
<clus scale="   88.411">  5  6 -1 -1</clus>
<clus scale="  121.893">  7  8 -1 -1</clus>
<clus scale="  124.942">  2  5  1 -1</clus>
<clus scale="  150.506">  1  5  2 -1</clus>
</clustering>
</event>
<event>
 9    1  0.1266593E-005  0.1877885E+03  0.7546771E-02  0.1161009E+00
         -1   -1    0    0    0  501 -0.00000000000E+00  0.00000000000E+00  0.10294464739E+03  0.10294464739E+03  0.00000000000E+00 0.  1.
          1   -1    0    0  502    0  0.00000000000E+00 -0.00000000000E+00 -0.88986794416E+03  0.88986794416E+03  0.00000000000E+00 0. -1.
         23    2    1    2    0    0 -0.19519999789E+03  0.37336445255E+02 -0.16703404338E+03  0.27400723476E+03  0.87650121101E+02 0.  0.
         23    2    1    2    0    0  0.15580292250E+03  0.19896295078E+01 -0.63563448825E+03  0.66095570575E+03  0.92480987425E+02 0.  0.
        -13    1    3    3    0    0 -0.88351217814E+02  0.45754247394E+02 -0.12282538985E+03  0.15806791337E+03  0.00000000000E+00 0. -1.
         13    1    3    3    0    0 -0.10684878008E+03 -0.84178021387E+01 -0.44208653525E+02  0.11593932139E+03  0.00000000000E+00 0.  1.
        -13    1    4    4    0    0  0.75812548451E+02 -0.11802072908E+02 -0.14896113166E+03  0.16755969137E+03  0.00000000000E+00 0.  1.
         13    1    4    4    0    0  0.79990374053E+02  0.13791702416E+02 -0.48667335659E+03  0.49339601438E+03  0.00000000000E+00 0. -1.
         21    1    1    2  502  501  0.39397075391E+02 -0.39326074763E+02  0.15745234854E+02  0.57849651046E+02  0.00000000000E+00 0.  1.
<scales pt_clust_5="13000.00000" pt_clust_6="13000.00000" pt_clust_7="13000.00000" pt_clust_8="13000.00000" pt_clust_9="55.66570"></scales>
<clustering>
<clus scale="   55.666">  1  9  2 -1</clus>
<clus scale="   87.650">  5  6 -1 -1</clus>
<clus scale="   92.481">  7  8 -1 -1</clus>
<clus scale="  185.457">  1  5  2 -1</clus>
<clus scale="  187.788">  2  5  1 -1</clus>
</clustering>
</event>
<event>
 9    1  0.1266593E-005  0.9138942E+02  0.7546771E-02  0.1299600E+00
         -1   -1    0    0    0  501 -0.00000000000E+00  0.00000000000E+00  0.42177543767E+02  0.42177543767E+02  0.00000000000E+00 0.  1.
          1   -1    0    0  502    0  0.00000000000E+00 -0.00000000000E+00 -0.37162275585E+03  0.37162275585E+03  0.00000000000E+00 0. -1.
         23    2    1    2    0    0 -0.18401020052E+02  0.20374932443E+02 -0.77296771047E+02  0.12227296756E+03  0.90676084888E+02 0.  0.
         23    2    1    2    0    0  0.24519681957E+01 -0.34703364650E+01 -0.25241344839E+03  0.26828496021E+03  0.90808675587E+02 0.  0.
        -11    1    4    4    0    0  0.53963738460E+01  0.37983136815E+02 -0.58425491791E+02  0.69895476420E+02  0.00000000000E+00 0.  1.
         11    1    4    4    0    0 -0.29444056503E+01 -0.41453473280E+02 -0.19398795660E+03  0.19838948379E+03  0.00000000000E+00 0. -1.
        -13    1    3    3    0    0 -0.12288030454E+02  0.52082972044E+02 -0.21227233799E+02  0.57569324506E+02  0.00000000000E+00 0.  1.
         13    1    3    3    0    0 -0.61129895980E+01 -0.31708039601E+02 -0.56069537249E+02  0.64703643054E+02  0.00000000000E+00 0. -1.
         21    1    1    2  502  501  0.15949051856E+02 -0.16904595978E+02  0.26500735531E+00  0.23242371850E+02  0.00000000000E+00 0.  1.
<scales pt_clust_5="13000.00000" pt_clust_6="13000.00000" pt_clust_7="13000.00000" pt_clust_8="13000.00000" pt_clust_9="23.24086"></scales>
<clustering>
<clus scale="   23.241">  1  9  2 -1</clus>
<clus scale="   90.676">  7  8 -1 -1</clus>
<clus scale="   90.809">  5  6 -1 -1</clus>
<clus scale="   91.258">  1  7  2 -1</clus>
<clus scale="   91.389">  2  5  1 -1</clus>
</clustering>
</event>
<event>
 9    1  0.1266593E-005  0.1183389E+03  0.7546771E-02  0.1246532E+00
          1   -1    0    0  502    0  0.00000000000E+00  0.00000000000E+00  0.12449231346E+03  0.12449231346E+03  0.00000000000E+00 0. -1.
         -1   -1    0    0    0  501 -0.00000000000E+00 -0.00000000000E+00 -0.14377743724E+03  0.14377743724E+03  0.00000000000E+00 0.  1.
         23    2    1    2    0    0  0.31734844755E+02 -0.56936198214E+02 -0.16658387240E+02  0.11336742267E+03  0.91246038922E+02 0.  0.
         23    2    1    2    0    0 -0.20344404905E+02  0.77550051631E+02  0.17115567732E+02  0.12417072132E+03  0.93260495683E+02 0.  0.
        -13    1    4    4    0    0 -0.39931535984E+02  0.88130058207E+02  0.26022932656E+02  0.10019295259E+03  0.00000000000E+00 0. -1.
         13    1    4    4    0    0  0.19587131078E+02 -0.10580006577E+02 -0.89073649246E+01  0.23977768723E+02  0.00000000000E+00 0.  1.
        -13    1    3    3    0    0  0.28356325842E+02 -0.22018531005E+02  0.35513131183E+02  0.50498310955E+02  0.00000000000E+00 0. -1.
         13    1    3    3    0    0  0.33785189131E+01 -0.34917667210E+02 -0.52171518423E+02  0.62869111716E+02  0.00000000000E+00 0.  1.
         21    1    1    2  502  501 -0.11390439850E+02 -0.20613853416E+02 -0.19742304272E+02  0.30731606704E+02  0.00000000000E+00 0.  1.
<scales pt_clust_5="13000.00000" pt_clust_6="13000.00000" pt_clust_7="13000.00000" pt_clust_8="13000.00000" pt_clust_9="23.55150"></scales>
<clustering>
<clus scale="   23.551">  2  9  1 -1</clus>
<clus scale="   91.246">  7  8 -1 -1</clus>
<clus scale="   93.260">  5  6 -1 -1</clus>
<clus scale="  116.758">  2  7  1 -1</clus>
<clus scale="  118.339">  1  5  2 -1</clus>
</clustering>
</event>
<event>
 9    1  0.1266593E-005  0.1446828E+03  0.7546771E-02  0.1207316E+00
         -2   -1    0    0    0  501 -0.00000000000E+00  0.00000000000E+00  0.10781053996E+03  0.10781053996E+03  0.00000000000E+00 0.  1.
          2   -1    0    0  502    0  0.00000000000E+00 -0.00000000000E+00 -0.23319332618E+03  0.23319332618E+03  0.00000000000E+00 0. -1.
         23    2    1    2    0    0  0.12020866684E+03  0.69700922517E+01 -0.24298619557E+02  0.15344277166E+03  0.91954094490E+02 0.  0.
         23    2    1    2    0    0 -0.98341630883E+02 -0.49281714760E+00 -0.84978127950E+02  0.15964108665E+03  0.92696683232E+02 0.  0.
        -13    1    4    4    0    0 -0.67159060902E+02 -0.41877030140E+02 -0.70110722170E+02  0.10573333664E+03  0.00000000000E+00 0.  1.
         13    1    4    4    0    0 -0.31182569981E+02  0.41384212993E+02 -0.14867405780E+02  0.53907750002E+02  0.00000000000E+00 0. -1.
        -13    1    3    3    0    0  0.25383948944E+02  0.40395637497E+02 -0.22826319743E+02  0.52888498427E+02  0.00000000000E+00 0. -1.
         13    1    3    3    0    0  0.94824717899E+02 -0.33425545246E+02 -0.14722998146E+01  0.10055427324E+03  0.00000000000E+00 0.  1.
         21    1    1    2  502  501 -0.21867035960E+02 -0.64772751041E+01 -0.16106038713E+02  0.27920007834E+02  0.00000000000E+00 0.  1.
<scales pt_clust_5="13000.00000" pt_clust_6="13000.00000" pt_clust_7="13000.00000" pt_clust_8="13000.00000" pt_clust_9="22.80619"></scales>
<clustering>
<clus scale="   22.806">  2  9  1 -1</clus>
<clus scale="   91.954">  7  8 -1 -1</clus>
<clus scale="   92.697">  5  6 -1 -1</clus>
<clus scale="  144.208">  1  7  2 -1</clus>
<clus scale="   22.806">  2  5  1 -1</clus>
</clustering>
</event>
<event>
 9    1  0.1266593E-005  0.1157583E+03  0.7546771E-02  0.1251084E+00
          2   -1    0    0  502    0  0.00000000000E+00  0.00000000000E+00  0.19875530442E+03  0.19875530442E+03  0.00000000000E+00 0. -1.
         -2   -1    0    0    0  501 -0.00000000000E+00 -0.00000000000E+00 -0.13821321682E+03  0.13821321682E+03  0.00000000000E+00 0.  1.
         23    2    1    2    0    0  0.85129403553E+02  0.75962825038E+00 -0.48541954490E+02  0.13286795298E+03  0.89721676311E+02 0.  0.
         23    2    1    2    0    0 -0.60866562894E+02 -0.30262339955E+02  0.11850261123E+03  0.16475841683E+03  0.92097336268E+02 0.  0.
        -13    1    3    3    0    0  0.71793087449E+02 -0.37954785106E+02 -0.41916853797E+02  0.91388378638E+02  0.00000000000E+00 0. -1.
         13    1    3    3    0    0  0.13336316105E+02  0.38714413356E+02 -0.66251006926E+01  0.41479574346E+02  0.00000000000E+00 0.  1.
        -13    1    4    4    0    0 -0.81966907941E+02 -0.27305017317E+02  0.68002726551E+02  0.10994775480E+03  0.00000000000E+00 0.  1.
         13    1    4    4    0    0  0.21100345047E+02 -0.29573226383E+01  0.50499884683E+02  0.54810662022E+02  0.00000000000E+00 0. -1.
         21    1    1    2  502  501 -0.24262840659E+02  0.29502711705E+02 -0.94185691461E+01  0.39342151435E+02  0.00000000000E+00 0.  1.
<scales pt_clust_5="13000.00000" pt_clust_6="13000.00000" pt_clust_7="13000.00000" pt_clust_8="13000.00000" pt_clust_9="38.19811"></scales>
<clustering>
<clus scale="   38.198">  2  9  1 -1</clus>
<clus scale="   89.722">  5  6 -1 -1</clus>
<clus scale="   92.097">  7  8 -1 -1</clus>
<clus scale="  113.877">  2  5  1 -1</clus>
<clus scale="  115.758">  1  5  2 -1</clus>
</clustering>
</event>
<event>
 9    1  0.1266593E-005  0.1144875E+03  0.7546771E-02  0.1252718E+00
          2   -1    0    0  502    0  0.00000000000E+00  0.00000000000E+00  0.32762655812E+03  0.32762655812E+03  0.00000000000E+00 0. -1.
         -2   -1    0    0    0  501 -0.00000000000E+00 -0.00000000000E+00 -0.10548450408E+03  0.10548450408E+03  0.00000000000E+00 0.  1.
         23    2    1    2    0    0 -0.29007709423E+02 -0.67564889707E+02 -0.48249959230E+02  0.12703332891E+03  0.91667587293E+02 0.  0.
         23    2    1    2    0    0  0.14430471124E+02  0.34596532416E+02  0.23828549206E+03  0.25780520318E+03  0.90985650014E+02 0.  0.
        -13    1    3    3    0    0  0.54260105135E+01 -0.68959240242E+02 -0.18004891141E+01  0.69195810320E+02  0.00000000000E+00 0. -1.
         13    1    3    3    0    0 -0.34433719936E+02  0.13943505346E+01 -0.46449470116E+02  0.57837518585E+02  0.00000000000E+00 0.  1.
        -13    1    4    4    0    0  0.59528599316E+01 -0.25663073164E+02  0.26170732327E+02  0.37134042281E+02  0.00000000000E+00 0.  1.
         13    1    4    4    0    0  0.84776111924E+01  0.60259605579E+02  0.21211475974E+03  0.22067116090E+03  0.00000000000E+00 0. -1.
         21    1    1    2  502  501  0.14577238299E+02  0.32968357292E+02  0.32106521202E+02  0.48272530104E+02  0.00000000000E+00 0. -1.
<scales pt_clust_5="13000.00000" pt_clust_6="13000.00000" pt_clust_7="13000.00000" pt_clust_8="13000.00000" pt_clust_9="36.04731"></scales>
<clustering>
<clus scale="   36.047">  1  9  2 -1</clus>
<clus scale="   90.986">  7  8 -1 -1</clus>
<clus scale="   91.668">  5  6 -1 -1</clus>
<clus scale="  113.942">  1  7  2 -1</clus>
<clus scale="   36.047">  1  5  2 -1</clus>
</clustering>
</event>
<event>
 9    1  0.1266593E-005  0.9423366E+02  0.7546771E-02  0.1297417E+00
          2   -1    0    0  502    0  0.00000000000E+00  0.00000000000E+00  0.37018691366E+03  0.37018691366E+03  0.00000000000E+00 0. -1.
         -2   -1    0    0    0  501 -0.00000000000E+00 -0.00000000000E+00 -0.45804247703E+02  0.45804247703E+02  0.00000000000E+00 0.  1.
         23    2    1    2    0    0  0.18753808161E+02 -0.34226114885E+02  0.13985182985E+03  0.16705631218E+03  0.82620486955E+02 0.  0.
         23    2    1    2    0    0 -0.32315414923E+02 -0.22747554126E+02  0.15382576655E+03  0.18280832324E+03  0.90525020452E+02 0.  0.
        -11    1    4    4    0    0 -0.53145901287E+02  0.13750535584E+02  0.69266274592E+02  0.88382016543E+02  0.00000000000E+00 0.  1.
         11    1    4    4    0    0  0.20830486364E+02 -0.36498089710E+02  0.84559491962E+02  0.94426306692E+02  0.00000000000E+00 0. -1.
        -13    1    3    3    0    0 -0.30740947405E+02 -0.36341067025E+00  0.57224475257E+02  0.64959822068E+02  0.00000000000E+00 0.  1.
         13    1    3    3    0    0  0.49494755566E+02 -0.33862704214E+02  0.82627354594E+02  0.10209649011E+03  0.00000000000E+00 0. -1.
         21    1    1    2  502  501  0.13561606762E+02  0.56973669011E+02  0.30705069557E+02  0.66126525956E+02  0.00000000000E+00 0.  1.
<scales pt_clust_5="13000.00000" pt_clust_6="13000.00000" pt_clust_7="13000.00000" pt_clust_8="13000.00000" pt_clust_9="58.56549"></scales>
<clustering>
<clus scale="   58.565">  2  9  1 -1</clus>
<clus scale="   82.620">  7  8 -1 -1</clus>
<clus scale="   86.668">  2  7  1 -1</clus>
<clus scale="   90.525">  5  6 -1 -1</clus>
<clus scale="   94.234">  1  5  2 -1</clus>
</clustering>
</event>
<event>
 9    1  0.1266593E-005  0.1049698E+03  0.7546771E-02  0.1272296E+00
          1   -1    0    0  502    0  0.00000000000E+00  0.00000000000E+00  0.45524358165E+03  0.45524358165E+03  0.00000000000E+00 0. -1.
         -1   -1    0    0    0  501 -0.00000000000E+00 -0.00000000000E+00 -0.58170706015E+02  0.58170706015E+02  0.00000000000E+00 0.  1.
         23    2    1    2    0    0 -0.45405625738E+02  0.96971300221E+01  0.45073086903E+02  0.11249700624E+03  0.92023301782E+02 0.  0.
         23    2    1    2    0    0  0.28088801163E+02 -0.30411000963E+02  0.35812737544E+03  0.37323183070E+03  0.96607311732E+02 0.  0.
        -11    1    3    3    0    0 -0.22954969334E+02 -0.40849456746E+02  0.13283293005E+02  0.48703743251E+02  0.00000000000E+00 0. -1.
         11    1    3    3    0    0 -0.22450656404E+02  0.50546586768E+02  0.31789793897E+02  0.63793262990E+02  0.00000000000E+00 0.  1.
        -13    1    4    4    0    0  0.40547517715E+02 -0.60076485085E+02  0.26334391641E+03  0.27313605321E+03  0.00000000000E+00 0. -1.
         13    1    4    4    0    0 -0.12458716551E+02  0.29665484122E+02  0.94783459032E+02  0.10009577750E+03  0.00000000000E+00 0.  1.
         21    1    1    2  502  501  0.17316824575E+02  0.20713870940E+02 -0.61275867087E+01  0.27685450720E+02  0.00000000000E+00 0. -1.
<scales pt_clust_5="13000.00000" pt_clust_6="13000.00000" pt_clust_7="13000.00000" pt_clust_8="13000.00000" pt_clust_9="26.99883"></scales>
<clustering>
<clus scale="   26.999">  2  9  1 -1</clus>
<clus scale="   92.023">  5  6 -1 -1</clus>
<clus scale="   96.607">  7  8 -1 -1</clus>
<clus scale="  100.767">  2  5  1 -1</clus>
<clus scale="  104.970">  1  5  2 -1</clus>
</clustering>
</event>
<event>
 9    1  0.1266593E-005  0.9486338E+02  0.7546771E-02  0.1292321E+00
          1   -1    0    0  502    0  0.00000000000E+00  0.00000000000E+00  0.49299855770E+02  0.49299855770E+02  0.00000000000E+00 0. -1.
         -1   -1    0    0    0  501 -0.00000000000E+00 -0.00000000000E+00 -0.42904799227E+03  0.42904799227E+03  0.00000000000E+00 0.  1.
         23    2    1    2    0    0  0.15022891074E+02  0.38396532509E+02 -0.32400585232E+03  0.33896245802E+03  0.90640910450E+02 0.  0.
         23    2    1    2    0    0 -0.13416324658E+02 -0.14286501377E+02 -0.20119030854E+02  0.96340171534E+02  0.92155039795E+02 0.  0.
        -11    1    4    4    0    0  0.35721501397E+02 -0.75220376825E+01 -0.28143431249E+02  0.46094028197E+02  0.00000000000E+00 0.  1.
         11    1    4    4    0    0 -0.49137826055E+02 -0.67644636945E+01  0.80244003943E+01  0.50246143337E+02  0.00000000000E+00 0. -1.
        -13    1    3    3    0    0  0.16849159003E+02  0.59878094927E+02 -0.30129198008E+03  0.30764612410E+03  0.00000000000E+00 0.  1.
         13    1    3    3    0    0 -0.18262679289E+01 -0.21481562418E+02 -0.22713872237E+02  0.31316333925E+02  0.00000000000E+00 0. -1.
         21    1    1    2  502  501 -0.16065664157E+01 -0.24110031132E+02 -0.35623253332E+02  0.43045218490E+02  0.00000000000E+00 0.  1.
<scales pt_clust_5="13000.00000" pt_clust_6="13000.00000" pt_clust_7="13000.00000" pt_clust_8="13000.00000" pt_clust_9="24.16350"></scales>
<clustering>
<clus scale="   24.163">  2  9  1 -1</clus>
<clus scale="   90.641">  7  8 -1 -1</clus>
<clus scale="   92.155">  5  6 -1 -1</clus>
<clus scale="   93.393">  2  7  1 -1</clus>
<clus scale="   94.863">  1  5  2 -1</clus>
</clustering>
</event>
<event>
 9    1  0.1266593E-005  0.1701664E+03  0.7546771E-02  0.1177829E+00
          1   -1    0    0  502    0  0.00000000000E+00  0.00000000000E+00  0.90481437486E+03  0.90481437486E+03  0.00000000000E+00 0. -1.
         -1   -1    0    0    0  501 -0.00000000000E+00 -0.00000000000E+00 -0.64442558672E+02  0.64442558672E+02  0.00000000000E+00 0.  1.
         23    2    1    2    0    0  0.14185926935E+02  0.16626057217E+03  0.16339058218E+03  0.25076802780E+03  0.91347156726E+02 0.  0.
         23    2    1    2    0    0 -0.10885423753E+02 -0.13687923436E+03  0.66707757579E+03  0.68730816201E+03  0.92442415527E+02 0.  0.
        -11    1    3    3    0    0  0.35771614528E+02  0.16005829415E+03  0.15786493093E+03  0.22763919335E+03  0.00000000000E+00 0.  1.
         11    1    3    3    0    0 -0.21585687592E+02  0.62022780248E+01  0.55256512509E+01  0.23128834456E+02  0.00000000000E+00 0. -1.
        -13    1    4    4    0    0 -0.18654183948E+02 -0.10506547242E+02  0.25218612889E+02  0.33080878915E+02  0.00000000000E+00 0.  1.
         13    1    4    4    0    0  0.77687601956E+01 -0.12637268712E+03  0.64185896290E+03  0.65422728309E+03  0.00000000000E+00 0. -1.
         21    1    1    2  502  501 -0.33005031828E+01 -0.29381337812E+02  0.99036582195E+01  0.31180743722E+02  0.00000000000E+00 0. -1.
<scales pt_clust_5="13000.00000" pt_clust_6="13000.00000" pt_clust_7="13000.00000" pt_clust_8="13000.00000" pt_clust_9="29.56613"></scales>
<clustering>
<clus scale="   29.566">  2  9  1 -1</clus>
<clus scale="   91.347">  5  6 -1 -1</clus>
<clus scale="   92.442">  7  8 -1 -1</clus>
<clus scale="  169.574">  2  5  1 -1</clus>
<clus scale="  170.166">  1  5  2 -1</clus>
</clustering>
</event>
<event>
 9    1  0.1266593E-005  0.1236997E+03  0.7546771E-02  0.1237372E+00
         -2   -1    0    0    0  501 -0.00000000000E+00  0.00000000000E+00  0.38669391415E+02  0.38669391415E+02  0.00000000000E+00 0.  1.
          2   -1    0    0  502    0  0.00000000000E+00 -0.00000000000E+00 -0.11040235493E+04  0.11040235493E+04  0.00000000000E+00 0. -1.
         23    2    1    2    0    0 -0.97910125097E+02  0.76812573146E+02 -0.47783194621E+03  0.50217904464E+03  0.91508797730E+02 0.  0.
         23    2    1    2    0    0  0.17912201671E+02 -0.65148874336E+02 -0.52763566438E+03  0.53990520775E+03  0.92374326745E+02 0.  0.
        -11    1    4    4    0    0 -0.34974004330E+02 -0.14217900183E+02 -0.12305660940E+03  0.12871774851E+03  0.00000000000E+00 0.  1.
         11    1    4    4    0    0  0.52886206002E+02 -0.50930974153E+02 -0.40457905498E+03  0.41118745924E+03  0.00000000000E+00 0. -1.
        -13    1    3    3    0    0 -0.10758464306E+03  0.43964627836E+02 -0.41056510867E+03  0.42669784670E+03  0.00000000000E+00 0.  1.
         13    1    3    3    0    0  0.96745179607E+01  0.32847945310E+02 -0.67266837540E+02  0.75481197934E+02  0.00000000000E+00 0. -1.
         21    1    1    2  502  501  0.79997923425E+02 -0.11663698810E+02 -0.59886547335E+02  0.10060868836E+03  0.00000000000E+00 0.  1.
<scales pt_clust_5="13000.00000" pt_clust_6="13000.00000" pt_clust_7="13000.00000" pt_clust_8="13000.00000" pt_clust_9="80.84374"></scales>
<clustering>
<clus scale="   80.844">  1  9  2 -1</clus>
<clus scale="   91.509">  7  8 -1 -1</clus>
<clus scale="   92.374">  5  6 -1 -1</clus>
<clus scale="  123.055">  1  7  2 -1</clus>
<clus scale="  123.700">  2  5  1 -1</clus>
</clustering>
</event>
<event>
 9    1  0.1266593E-005  0.1647402E+03  0.7546771E-02  0.1183462E+00
         -1   -1    0    0    0  501 -0.00000000000E+00  0.00000000000E+00  0.26446918953E+03  0.26446918953E+03  0.00000000000E+00 0.  1.
          1   -1    0    0  502    0  0.00000000000E+00 -0.00000000000E+00 -0.84393633539E+03  0.84393633539E+03  0.00000000000E+00 0. -1.
         23    2    1    2    0    0  0.13778713396E+03  0.10195583042E+03 -0.34791805010E+03  0.39855731681E+03  0.91764260781E+02 0.  0.
         23    2    1    2    0    0 -0.10930764275E+03 -0.51480896636E+02 -0.45466377411E+03  0.47932931507E+03  0.91864037085E+02 0.  0.
        -11    1    4    4    0    0 -0.90695112639E+02 -0.77498920974E+02 -0.34186287587E+03  0.36207998026E+03  0.00000000000E+00 0.  1.
         11    1    4    4    0    0 -0.18612530112E+02  0.26018024338E+02 -0.11280089825E+03  0.11724933481E+03  0.00000000000E+00 0. -1.
        -13    1    3    3    0    0  0.76677257202E+02  0.99098565509E+02 -0.28222883893E+03  0.30879288363E+03  0.00000000000E+00 0.  1.
         13    1    3    3    0    0  0.61109876753E+02  0.28572649113E+01 -0.65689211169E+02  0.89764433177E+02  0.00000000000E+00 0. -1.
         21    1    1    2  502  501 -0.28479491204E+02 -0.50474933785E+02  0.22311467835E+03  0.23051889305E+03  0.00000000000E+00 0.  1.
<scales pt_clust_5="13000.00000" pt_clust_6="13000.00000" pt_clust_7="13000.00000" pt_clust_8="13000.00000" pt_clust_9="57.95516"></scales>
<clustering>
<clus scale="   57.955">  1  9  2 -1</clus>
<clus scale="   91.764">  7  8 -1 -1</clus>
<clus scale="   91.864">  5  6 -1 -1</clus>
<clus scale="  164.685">  1  7  2 -1</clus>
<clus scale="  164.740">  2  5  1 -1</clus>
</clustering>
</event>
<event>
 9    1  0.1266593E-005  0.1110512E+03  0.7546771E-02  0.1268311E+00
          2   -1    0    0  502    0  0.00000000000E+00  0.00000000000E+00  0.34874946664E+03  0.34874946664E+03  0.00000000000E+00 0. -1.
         -2   -1    0    0    0  501 -0.00000000000E+00 -0.00000000000E+00 -0.44067614071E+02  0.44067614071E+02  0.00000000000E+00 0.  1.
         23    2    1    2    0    0  0.42751252494E+01 -0.24795584764E+02  0.94503053141E+02  0.13364351503E+03  0.91086027120E+02 0.  0.
         23    2    1    2    0    0  0.19463332941E+01  0.36288823818E+01  0.20981752446E+03  0.23710851740E+03  0.11036348333E+03 0.  0.
        -13    1    3    3    0    0  0.12103275342E+02  0.18696795698E+02  0.85748010086E+02  0.88593344429E+02  0.00000000000E+00 0.  1.
         13    1    3    3    0    0 -0.78281500921E+01 -0.43492380463E+02  0.87550430548E+01  0.45050170600E+02  0.00000000000E+00 0. -1.
        -13    1    4    4    0    0  0.15089933605E+02  0.40283645511E+02  0.28370775675E+02  0.51530370698E+02  0.00000000000E+00 0.  1.
         13    1    4    4    0    0 -0.13143600310E+02 -0.36654763129E+02  0.18144674879E+03  0.18557814670E+03  0.00000000000E+00 0. -1.
         21    1    1    2  502  501 -0.62214585435E+01  0.21166702382E+02  0.36127496963E+00  0.22065048284E+02  0.00000000000E+00 0.  1.
<scales pt_clust_5="13000.00000" pt_clust_6="13000.00000" pt_clust_7="13000.00000" pt_clust_8="13000.00000" pt_clust_9="22.06209"></scales>
<clustering>
<clus scale="   22.062">  2  9  1 -1</clus>
<clus scale="   91.086">  5  6 -1 -1</clus>
<clus scale="   91.918">  2  5  1 -1</clus>
<clus scale="  110.363">  7  8 -1 -1</clus>
<clus scale="  111.051">  1  5  2 -1</clus>
</clustering>
</event>
<event>
 9    1  0.1266593E-005  0.1276024E+03  0.7546771E-02  0.1231107E+00
         -2   -1    0    0    0  501 -0.00000000000E+00  0.00000000000E+00  0.43459595217E+02  0.43459595217E+02  0.00000000000E+00 0.  1.
          2   -1    0    0  502    0  0.00000000000E+00 -0.00000000000E+00 -0.66060137204E+03  0.66060137204E+03  0.00000000000E+00 0. -1.
         23    2    1    2    0    0 -0.82226492708E+02 -0.97084123914E+01 -0.21669889251E+03  0.24922237754E+03  0.91092996862E+02 0.  0.
         23    2    1    2    0    0  0.89542066833E+02  0.28863237115E+02 -0.41132238410E+03  0.43162677266E+03  0.90910390091E+02 0.  0.
        -11    1    3    3    0    0 -0.72564640294E+02  0.13297196910E+02 -0.21114182187E+03  0.22365891757E+03  0.00000000000E+00 0. -1.
         11    1    3    3    0    0 -0.96618524140E+01 -0.23005609302E+02 -0.55570706392E+01  0.25563459967E+02  0.00000000000E+00 0.  1.
        -13    1    4    4    0    0  0.18079529038E+02  0.52236851404E+02 -0.15860244685E+03  0.16795920386E+03  0.00000000000E+00 0. -1.
         13    1    4    4    0    0  0.71462537795E+02 -0.23373614289E+02 -0.25271993725E+03  0.26366756880E+03  0.00000000000E+00 0.  1.
         21    1    1    2  502  501 -0.73155741251E+01 -0.19154824724E+02  0.10879499794E+02  0.23211817050E+02  0.00000000000E+00 0.  1.
<scales pt_clust_5="13000.00000" pt_clust_6="13000.00000" pt_clust_7="13000.00000" pt_clust_8="13000.00000" pt_clust_9="20.50427"></scales>
<clustering>
<clus scale="   20.504">  1  9  2 -1</clus>
<clus scale="   90.910">  7  8 -1 -1</clus>
<clus scale="   91.093">  5  6 -1 -1</clus>
<clus scale="  127.472">  2  7  1 -1</clus>
<clus scale="  127.472">  2  5  1 -1</clus>
</clustering>
</event>
<event>
 9    1  0.1266593E-005  0.1015469E+03  0.7546771E-02  0.1279142E+00
         -1   -1    0    0    0  501 -0.00000000000E+00  0.00000000000E+00  0.19624326937E+02  0.19624326937E+02  0.00000000000E+00 0.  1.
          1   -1    0    0  502    0  0.00000000000E+00 -0.00000000000E+00 -0.75782147326E+03  0.75782147326E+03  0.00000000000E+00 0. -1.
         23    2    1    2    0    0 -0.40149849203E+02 -0.43800676074E+02 -0.25961880464E+03  0.28155272399E+03  0.91320879594E+02 0.  0.
         23    2    1    2    0    0  0.73462373141E+01  0.38384924922E+02 -0.38358290165E+03  0.39524745563E+03  0.86932957384E+02 0.  0.
        -13    1    4    4    0    0 -0.16418765266E+02 -0.23189211085E+02 -0.14175890536E+03  0.14457836149E+03  0.00000000000E+00 0.  1.
         13    1    4    4    0    0  0.23765002580E+02  0.61574136008E+02 -0.24182399630E+03  0.25066909414E+03  0.00000000000E+00 0. -1.
        -13    1    3    3    0    0  0.14106060799E+02 -0.34821684691E+02 -0.38879633943E+02  0.54066224314E+02  0.00000000000E+00 0.  1.
         13    1    3    3    0    0 -0.54255910002E+02 -0.89789913820E+01 -0.22073917070E+03  0.22748649968E+03  0.00000000000E+00 0. -1.
         21    1    1    2  502  501  0.32803611889E+02  0.54157511511E+01 -0.94995440024E+02  0.10064562056E+03  0.00000000000E+00 0.  1.
<scales pt_clust_5="13000.00000" pt_clust_6="13000.00000" pt_clust_7="13000.00000" pt_clust_8="13000.00000" pt_clust_9="33.24767"></scales>
<clustering>
<clus scale="   33.248">  1  9  2 -1</clus>
<clus scale="   86.933">  5  6 -1 -1</clus>
<clus scale="   91.321">  7  8 -1 -1</clus>
<clus scale="   97.620">  2  5  1 -1</clus>
<clus scale="   97.620">  2  5  1 -1</clus>
</clustering>
</event>
<event>
 9    1  0.1266593E-005  0.1212889E+03  0.7546771E-02  0.1241198E+00
         -1   -1    0    0    0  501 -0.00000000000E+00  0.00000000000E+00  0.45831494594E+02  0.45831494594E+02  0.00000000000E+00 0.  1.
          1   -1    0    0  502    0  0.00000000000E+00 -0.00000000000E+00 -0.47980205780E+03  0.47980205780E+03  0.00000000000E+00 0. -1.
         23    2    1    2    0    0  0.91961693046E+02 -0.20074242802E+02 -0.15247175769E+03  0.20126824619E+03  0.91658833817E+02 0.  0.
         23    2    1    2    0    0 -0.70528860034E+02  0.16520066861E+02 -0.27928542526E+03  0.30252732211E+03  0.90968121630E+02 0.  0.
        -11    1    4    4    0    0  0.20573578231E+02  0.34513866074E+01 -0.27992203998E+02  0.34910566816E+02  0.00000000000E+00 0.  1.
         11    1    4    4    0    0 -0.91102438265E+02  0.13068680254E+02 -0.25129322126E+03  0.26761675529E+03  0.00000000000E+00 0. -1.
        -11    1    3    3    0    0  0.67462093639E+02 -0.54413053861E+02 -0.12004014852E+03  0.14805928463E+03  0.00000000000E+00 0. -1.
         11    1    3    3    0    0  0.24499599407E+02  0.34338811060E+02 -0.32431609170E+02  0.53208961552E+02  0.00000000000E+00 0.  1.
         21    1    1    2  502  501 -0.21432833012E+02  0.35541759404E+01 -0.22133802569E+01  0.21837984103E+02  0.00000000000E+00 0. -1.
<scales pt_clust_5="13000.00000" pt_clust_6="13000.00000" pt_clust_7="13000.00000" pt_clust_8="13000.00000" pt_clust_9="21.72553"></scales>
<clustering>
<clus scale="   21.726">  1  9  2 -1</clus>
<clus scale="   90.968">  5  6 -1 -1</clus>
<clus scale="   91.659">  7  8 -1 -1</clus>
<clus scale="  120.768">  2  5  1 -1</clus>
<clus scale="  120.768">  2  5  1 -1</clus>
</clustering>
</event>
<event>
 9    1  0.1266593E-005  0.9728591E+02  0.7546771E-02  0.1287782E+00
          2   -1    0    0  502    0  0.00000000000E+00  0.00000000000E+00  0.41559856839E+03  0.41559856839E+03  0.00000000000E+00 0. -1.
         -2   -1    0    0    0  501 -0.00000000000E+00 -0.00000000000E+00 -0.60112862725E+02  0.60112862725E+02  0.00000000000E+00 0.  1.
         23    2    1    2    0    0 -0.53516683039E+01 -0.42550859060E+02  0.12395202052E+03  0.16055754974E+03  0.92603495759E+02 0.  0.
         23    2    1    2    0    0 -0.99901242962E+01  0.44871274916E+01  0.25165334411E+03  0.26944809467E+03  0.95670963343E+02 0.  0.
        -11    1    4    4    0    0  0.21385749961E+02 -0.37795258749E+02  0.12280596108E+03  0.13025795930E+03  0.00000000000E+00 0.  1.
         11    1    4    4    0    0 -0.31375874257E+02  0.42282386240E+02  0.12884738303E+03  0.13919013537E+03  0.00000000000E+00 0. -1.
        -13    1    3    3    0    0 -0.96954248598E+00 -0.71778044144E+02  0.78815813685E+02  0.10660656697E+03  0.00000000000E+00 0.  1.
         13    1    3    3    0    0 -0.43821258179E+01  0.29227185083E+02  0.45136206833E+02  0.53950982770E+02  0.00000000000E+00 0. -1.
         21    1    1    2  502  501  0.15341792600E+02  0.38063731569E+02 -0.20119658962E+02  0.45705786700E+02  0.00000000000E+00 0.  1.
<scales pt_clust_5="13000.00000" pt_clust_6="13000.00000" pt_clust_7="13000.00000" pt_clust_8="13000.00000" pt_clust_9="41.03923"></scales>
<clustering>
<clus scale="   41.039">  2  9  1 -1</clus>
<clus scale="   92.603">  7  8 -1 -1</clus>
<clus scale="   94.271">  2  7  1 -1</clus>
<clus scale="   95.671">  5  6 -1 -1</clus>
<clus scale="   97.286">  1  5  2 -1</clus>
</clustering>
</event>
<event>
 9    1  0.1266593E-005  0.1707841E+03  0.7546771E-02  0.1177420E+00
         -2   -1    0    0    0  501 -0.00000000000E+00  0.00000000000E+00  0.48425773904E+03  0.48425773904E+03  0.00000000000E+00 0.  1.
          2   -1    0    0  502    0  0.00000000000E+00 -0.00000000000E+00 -0.28733584003E+03  0.28733584003E+03  0.00000000000E+00 0. -1.
         23    2    1    2    0    0  0.15181998433E+03 -0.47753032312E+02  0.21022948931E+03  0.27880740800E+03  0.90595103851E+02 0.  0.
         23    2    1    2    0    0 -0.12504068134E+03  0.66028399603E+02 -0.22329985634E+03  0.28030588513E+03  0.93346889887E+02 0.  0.
        -11    1    3    3    0    0  0.32792249758E+02  0.74957034567E+01  0.10604774289E+03  0.11125484703E+03  0.00000000000E+00 0. -1.
         11    1    3    3    0    0  0.11902773457E+03 -0.55248735768E+02  0.10418174642E+03  0.16755256097E+03  0.00000000000E+00 0.  1.
        -13    1    4    4    0    0 -0.29171045297E+02 -0.19154694110E+02 -0.83999941345E+02  0.90960663674E+02  0.00000000000E+00 0.  1.
         13    1    4    4    0    0 -0.95869636039E+02  0.85183093714E+02 -0.13929991500E+03  0.18934522145E+03  0.00000000000E+00 0. -1.
         21    1    1    2  502  501 -0.26779302990E+02 -0.18275367292E+02  0.20999226604E+03  0.21248028595E+03  0.00000000000E+00 0.  1.
<scales pt_clust_5="13000.00000" pt_clust_6="13000.00000" pt_clust_7="13000.00000" pt_clust_8="13000.00000" pt_clust_9="32.42098"></scales>
<clustering>
<clus scale="   32.421">  1  9  2 -1</clus>
<clus scale="   90.595">  5  6 -1 -1</clus>
<clus scale="   93.347">  7  8 -1 -1</clus>
<clus scale="  169.296">  1  5  2 -1</clus>
<clus scale="  170.784">  2  5  1 -1</clus>
</clustering>
</event>
<event>
 9    1  0.1266593E-005  0.1664964E+03  0.7546771E-02  0.1181576E+00
         -1   -1    0    0    0  501 -0.00000000000E+00  0.00000000000E+00  0.63314416981E+02  0.63314416981E+02  0.00000000000E+00 0.  1.
          1   -1    0    0  502    0  0.00000000000E+00 -0.00000000000E+00 -0.61439851575E+03  0.61439851575E+03  0.00000000000E+00 0. -1.
         23    2    1    2    0    0  0.79409894678E+02  0.13373978635E+03 -0.20592877894E+03  0.27356172681E+03  0.90758440670E+02 0.  0.
         23    2    1    2    0    0 -0.51707604437E+02 -0.12094789140E+03 -0.33642822835E+03  0.37241460897E+03  0.90590393252E+02 0.  0.
        -11    1    4    4    0    0 -0.30550743751E+02 -0.12741248818E+03 -0.31685353455E+03  0.34287527243E+03  0.00000000000E+00 0.  1.
         11    1    4    4    0    0 -0.21156860686E+02  0.64645967805E+01 -0.19574693808E+02  0.29539336541E+02  0.00000000000E+00 0. -1.
        -13    1    3    3    0    0  0.19513477431E+02  0.81846475062E+02 -0.48012145157E+02  0.96875112202E+02  0.00000000000E+00 0.  1.
         13    1    3    3    0    0  0.59896417247E+02  0.51893311284E+02 -0.15791663378E+03  0.17668661460E+03  0.00000000000E+00 0. -1.
         21    1    1    2  502  501 -0.27702290241E+02 -0.12791894944E+02 -0.87270914788E+01  0.31736596959E+02  0.00000000000E+00 0.  1.
<scales pt_clust_5="13000.00000" pt_clust_6="13000.00000" pt_clust_7="13000.00000" pt_clust_8="13000.00000" pt_clust_9="30.51310"></scales>
<clustering>
<clus scale="   30.513">  1  9  2 -1</clus>
<clus scale="   90.590">  5  6 -1 -1</clus>
<clus scale="   90.758">  7  8 -1 -1</clus>
<clus scale="  166.405">  2  5  1 -1</clus>
<clus scale="  166.405">  2  5  1 -1</clus>
</clustering>
</event>
<event>
 9    1  0.1266593E-005  0.1103955E+03  0.7546771E-02  0.1259945E+00
         -4   -1    0    0    0  501 -0.00000000000E+00  0.00000000000E+00  0.12280857909E+03  0.12280857909E+03  0.00000000000E+00 0.  1.
          4   -1    0    0  502    0  0.00000000000E+00 -0.00000000000E+00 -0.32918811972E+03  0.32918811972E+03  0.00000000000E+00 0. -1.
         23    2    1    2    0    0  0.12481381710E+02 -0.42301504176E+02 -0.19396937591E+02  0.10276815390E+03  0.90773620190E+02 0.  0.
         23    2    1    2    0    0 -0.60646244619E+01  0.68217326738E+02 -0.25339592261E+03  0.27764968177E+03  0.90495684200E+02 0.  0.
        -11    1    4    4    0    0  0.23469839016E+02  0.84150480350E+00 -0.14308235889E+02  0.27500310690E+02  0.00000000000E+00 0.  1.
         11    1    4    4    0    0 -0.29534463478E+02  0.67375821935E+02 -0.23908768672E+03  0.25014937108E+03  0.00000000000E+00 0. -1.
        -11    1    3    3    0    0  0.35272622959E+02 -0.57356821206E+02  0.30639847151E+01  0.67404383178E+02  0.00000000000E+00 0.  1.
         11    1    3    3    0    0 -0.22791241249E+02  0.15055317030E+02 -0.22460922306E+02  0.35363770718E+02  0.00000000000E+00 0. -1.
         21    1    1    2  502  501 -0.64167572482E+01 -0.25915822562E+02  0.66413319563E+02  0.71578863137E+02  0.00000000000E+00 0. -1.
<scales pt_clust_5="13000.00000" pt_clust_6="13000.00000" pt_clust_7="13000.00000" pt_clust_8="13000.00000" pt_clust_9="26.69840"></scales>
<clustering>
<clus scale="   26.698">  1  9  2 -1</clus>
<clus scale="   90.496">  5  6 -1 -1</clus>
<clus scale="   90.774">  7  8 -1 -1</clus>
<clus scale="  110.167">  2  5  1 -1</clus>
<clus scale="  110.167">  2  5  1 -1</clus>
</clustering>
</event>
<event>
 9    1  0.1266593E-005  0.9994821E+02  0.7546771E-02  0.1281160E+00
          3   -1    0    0  502    0  0.00000000000E+00  0.00000000000E+00  0.14962944927E+03  0.14962944927E+03  0.00000000000E+00 0. -1.
         -3   -1    0    0    0  501 -0.00000000000E+00 -0.00000000000E+00 -0.20062832121E+03  0.20062832121E+03  0.00000000000E+00 0.  1.
         23    2    1    2    0    0 -0.30972906302E+02  0.37929003805E+02 -0.99172503146E+01  0.10454222696E+03  0.91830251606E+02 0.  0.
         23    2    1    2    0    0  0.35180001851E+02  0.53256196876E+00  0.74057901446E+02  0.12424908120E+03  0.93356013520E+02 0.  0.
        -11    1    3    3    0    0  0.26366656608E+01 -0.24204270425E+02 -0.22072308234E+02  0.32863132890E+02  0.00000000000E+00 0.  1.
         11    1    3    3    0    0 -0.33609571963E+02  0.62133274229E+02  0.12155057919E+02  0.71679094072E+02  0.00000000000E+00 0. -1.
        -11    1    4    4    0    0 -0.89690787151E+00 -0.42852146820E+02  0.25991640836E+02  0.50126602959E+02  0.00000000000E+00 0.  1.
         11    1    4    4    0    0  0.36076909723E+02  0.43384708789E+02  0.48066260609E+02  0.74122478243E+02  0.00000000000E+00 0. -1.
         21    1    1    2  502  501 -0.42070955491E+01 -0.38461565774E+02 -0.11513952307E+03  0.12146646231E+03  0.00000000000E+00 0.  1.
<scales pt_clust_5="13000.00000" pt_clust_6="13000.00000" pt_clust_7="13000.00000" pt_clust_8="13000.00000" pt_clust_9="38.69098"></scales>
<clustering>
<clus scale="   38.691">  2  9  1 -1</clus>
<clus scale="   91.830">  5  6 -1 -1</clus>
<clus scale="   93.356">  7  8 -1 -1</clus>
<clus scale="   98.525">  2  5  1 -1</clus>
<clus scale="   99.948">  1  5  2 -1</clus>
</clustering>
</event>
<event>
 9    1  0.1266593E-005  0.1031480E+03  0.7546771E-02  0.1274599E+00
          1   -1    0    0  502    0  0.00000000000E+00  0.00000000000E+00  0.25562987433E+03  0.25562987433E+03  0.00000000000E+00 0. -1.
         -1   -1    0    0    0  501 -0.00000000000E+00 -0.00000000000E+00 -0.25704633902E+03  0.25704633902E+03  0.00000000000E+00 0.  1.
         23    2    1    2    0    0  0.60693045931E+02 -0.26519905504E+01 -0.38244095853E+02  0.11579892631E+03  0.90863092559E+02 0.  0.
         23    2    1    2    0    0 -0.20650251314E+02 -0.48337956342E+02  0.19786601519E+03  0.22327785957E+03  0.89101356367E+02 0.  0.
        -11    1    4    4    0    0  0.22329251147E+02  0.98411196423E+01  0.91136647449E+02  0.94346868527E+02  0.00000000000E+00 0. -1.
         11    1    4    4    0    0 -0.42979502460E+02 -0.58179075984E+02  0.10672936774E+03  0.12893099104E+03  0.00000000000E+00 0.  1.
        -11    1    3    3    0    0  0.62265334495E+02 -0.37411908142E+02 -0.35622654228E+02  0.80904859217E+02  0.00000000000E+00 0. -1.
         11    1    3    3    0    0 -0.15722885646E+01  0.34759917592E+02 -0.26214416253E+01  0.34894067096E+02  0.00000000000E+00 0.  1.
         21    1    1    2  502  501 -0.40042794617E+02  0.50989946892E+02 -0.16103838403E+03  0.17359942746E+03  0.00000000000E+00 0.  1.
<scales pt_clust_5="13000.00000" pt_clust_6="13000.00000" pt_clust_7="13000.00000" pt_clust_8="13000.00000" pt_clust_9="64.83363"></scales>
<clustering>
<clus scale="   64.834">  2  9  1 -1</clus>
<clus scale="   89.101">  5  6 -1 -1</clus>
<clus scale="   90.863">  7  8 -1 -1</clus>
<clus scale="  101.600">  1  5  2 -1</clus>
<clus scale="  101.600">  1  5  2 -1</clus>
</clustering>
</event>
<event>
 9    1  0.1266593E-005  0.3315582E+03  0.7546771E-02  0.1070451E+00
         -2   -1    0    0    0  501 -0.00000000000E+00  0.00000000000E+00  0.16039001786E+04  0.16039001786E+04  0.00000000000E+00 0.  1.
          2   -1    0    0  502    0  0.00000000000E+00 -0.00000000000E+00 -0.10465933495E+03  0.10465933495E+03  0.00000000000E+00 0. -1.
         23    2    1    2    0    0 -0.35529919026E+03  0.16051439956E+03  0.85747710195E+03  0.94622795876E+03  0.89877597404E+02 0.  0.
         23    2    1    2    0    0  0.26779200360E+03 -0.90914501871E+02  0.42366481953E+03  0.51724219694E+03  0.89830992144E+02 0.  0.
        -11    1    4    4    0    0  0.25168451748E+03 -0.59496232260E+02  0.34640907819E+03  0.43230099172E+03  0.00000000000E+00 0. -1.
         11    1    4    4    0    0  0.16107486120E+02 -0.31418269611E+02  0.77255741339E+02  0.84941205221E+02  0.00000000000E+00 0.  1.
        -13    1    3    3    0    0 -0.18326902811E+03  0.50634208104E+02  0.49443950269E+03  0.52973746471E+03  0.00000000000E+00 0. -1.
         13    1    3    3    0    0 -0.17203016216E+03  0.10988019145E+03  0.36303759926E+03  0.41649049406E+03  0.00000000000E+00 0.  1.
         21    1    1    2  502  501  0.87507186665E+02 -0.69599897685E+02  0.21809892218E+03  0.24508935785E+03  0.00000000000E+00 0.  1.
<scales pt_clust_5="13000.00000" pt_clust_6="13000.00000" pt_clust_7="13000.00000" pt_clust_8="13000.00000" pt_clust_9="111.81079"></scales>
<clustering>
<clus scale="   89.831">  5  6 -1 -1</clus>
<clus scale="   89.878">  7  8 -1 -1</clus>
<clus scale="  111.811">  1  9  2 -1</clus>
<clus scale="  331.546">  2  5  1 -1</clus>
<clus scale="  331.546">  2  5  1 -1</clus>
</clustering>
</event>
<event>
 9    1  0.1266593E-005  0.9548368E+02  0.7546771E-02  0.1291302E+00
         -1   -1    0    0    0  501 -0.00000000000E+00  0.00000000000E+00  0.65587896318E+02  0.65587896318E+02  0.00000000000E+00 0.  1.
          1   -1    0    0  502    0  0.00000000000E+00 -0.00000000000E+00 -0.25354927285E+03  0.25354927285E+03  0.00000000000E+00 0. -1.
         23    2    1    2    0    0  0.25907910185E+02 -0.20822773069E+02 -0.59026264463E+02  0.11264881648E+03  0.90004712490E+02 0.  0.
         23    2    1    2    0    0 -0.55631136010E+01  0.21653705663E+02 -0.14980478505E+03  0.17733111605E+03  0.92222664752E+02 0.  0.
        -11    1    3    3    0    0 -0.27932998994E+02 -0.19461942458E+02 -0.18410874651E+01  0.34094123248E+02  0.00000000000E+00 0.  1.
         11    1    3    3    0    0  0.53840909179E+02 -0.13608306117E+01 -0.57185176997E+02  0.78554693236E+02  0.00000000000E+00 0. -1.
        -13    1    4    4    0    0 -0.26845203974E+02  0.94035347622E+01 -0.15010201259E+03  0.15277337996E+03  0.00000000000E+00 0. -1.
         13    1    4    4    0    0  0.21282090373E+02  0.12250170901E+02  0.29722753313E+00  0.24557736091E+02  0.00000000000E+00 0.  1.
         21    1    1    2  502  501 -0.20344796584E+02 -0.83093259379E+00  0.20869672989E+02  0.29157236626E+02  0.00000000000E+00 0.  1.
<scales pt_clust_5="13000.00000" pt_clust_6="13000.00000" pt_clust_7="13000.00000" pt_clust_8="13000.00000" pt_clust_9="20.36176"></scales>
<clustering>
<clus scale="   20.362">  1  9  2 -1</clus>
<clus scale="   90.005">  5  6 -1 -1</clus>
<clus scale="   92.223">  7  8 -1 -1</clus>
<clus scale="   93.343">  1  5  2 -1</clus>
<clus scale="   95.484">  2  5  1 -1</clus>
</clustering>
</event>
<event>
 9    1  0.1266593E-005  0.4895653E+03  0.7546771E-02  0.1016607E+00
         -2   -1    0    0    0  501 -0.00000000000E+00  0.00000000000E+00  0.28241915523E+03  0.28241915523E+03  0.00000000000E+00 0.  1.
          2   -1    0    0  502    0  0.00000000000E+00 -0.00000000000E+00 -0.10760965773E+04  0.10760965773E+04  0.00000000000E+00 0. -1.
         23    2    1    2    0    0  0.40615812178E+03  0.16051147020E+03 -0.17677562815E+03  0.48094851347E+03  0.96610030296E+02 0.  0.
         23    2    1    2    0    0 -0.48982230668E+03 -0.13601596061E+03 -0.59456718570E+03  0.78757521638E+03  0.91314563382E+02 0.  0.
        -11    1    3    3    0    0  0.18191220361E+03  0.63648007872E+02 -0.12936753838E+03  0.23211867378E+03  0.00000000000E+00 0. -1.
         11    1    3    3    0    0  0.22424591817E+03  0.96863462327E+02 -0.47408089767E+02  0.24882983970E+03  0.00000000000E+00 0.  1.
        -11    1    4    4    0    0 -0.43958621379E+03 -0.99699516812E+02 -0.48822157966E+03  0.66448201168E+03  0.00000000000E+00 0. -1.
         11    1    4    4    0    0 -0.50236092893E+02 -0.36316443798E+02 -0.10634560603E+03  0.12309320469E+03  0.00000000000E+00 0.  1.
         21    1    1    2  502  501  0.83664184901E+02 -0.24495509589E+02 -0.22334608248E+02  0.89992002704E+02  0.00000000000E+00 0.  1.
<scales pt_clust_5="13000.00000" pt_clust_6="13000.00000" pt_clust_7="13000.00000" pt_clust_8="13000.00000" pt_clust_9="87.17641"></scales>
<clustering>
<clus scale="   87.176">  1  9  2 -1</clus>
<clus scale="   91.315">  7  8 -1 -1</clus>
<clus scale="   96.610">  5  6 -1 -1</clus>
<clus scale="  488.548">  2  7  1 -1</clus>
<clus scale="  488.548">  2  5  1 -1</clus>
</clustering>
</event>
<event>
 9    1  0.1266593E-005  0.9525863E+02  0.7546771E-02  0.1292882E+00
          2   -1    0    0  502    0  0.00000000000E+00  0.00000000000E+00  0.11313297872E+03  0.11313297872E+03  0.00000000000E+00 0. -1.
         -2   -1    0    0    0  501 -0.00000000000E+00 -0.00000000000E+00 -0.21559481602E+03  0.21559481602E+03  0.00000000000E+00 0.  1.
         23    2    1    2    0    0  0.36543854716E+02 -0.76432004538E+01 -0.12549595045E+03  0.15691568941E+03  0.86483687313E+02 0.  0.
         23    2    1    2    0    0  0.12504181924E+00  0.32577844724E+02  0.60489276514E+02  0.11376700460E+03  0.90678813179E+02 0.  0.
        -11    1    4    4    0    0  0.32690858583E+02  0.49348252773E+02  0.31501411015E+02  0.67054315167E+02  0.00000000000E+00 0.  1.
         11    1    4    4    0    0 -0.32565816763E+02 -0.16770408049E+02  0.28987865499E+02  0.46712689430E+02  0.00000000000E+00 0. -1.
        -13    1    3    3    0    0  0.57378850402E+02  0.65615497544E+01 -0.11670094262E+03  0.13020943290E+03  0.00000000000E+00 0.  1.
         13    1    3    3    0    0 -0.20834995687E+02 -0.14204750208E+02 -0.87950078363E+01  0.26706256506E+02  0.00000000000E+00 0. -1.
         21    1    1    2  502  501 -0.36668896535E+02 -0.24934644270E+02 -0.37455163359E+02  0.58045100743E+02  0.00000000000E+00 0. -1.
<scales pt_clust_5="13000.00000" pt_clust_6="13000.00000" pt_clust_7="13000.00000" pt_clust_8="13000.00000" pt_clust_9="44.34348"></scales>
<clustering>
<clus scale="   44.343">  2  9  1 -1</clus>
<clus scale="   86.484">  7  8 -1 -1</clus>
<clus scale="   90.679">  5  6 -1 -1</clus>
<clus scale="   91.274">  2  7  1 -1</clus>
<clus scale="   95.259">  1  5  2 -1</clus>
</clustering>
</event>
<event>
 9    1  0.1266593E-005  0.9768547E+02  0.7546771E-02  0.1286332E+00
          1   -1    0    0  502    0  0.00000000000E+00  0.00000000000E+00  0.10040147341E+03  0.10040147341E+03  0.00000000000E+00 0. -1.
         -1   -1    0    0    0  501 -0.00000000000E+00 -0.00000000000E+00 -0.33341165191E+03  0.33341165191E+03  0.00000000000E+00 0.  1.
         23    2    1    2    0    0  0.16793785491E+02 -0.36328545208E+01 -0.15518547026E+03  0.18143485385E+03  0.92416703852E+02 0.  0.
         23    2    1    2    0    0 -0.22942216763E+02  0.25722439828E+02  0.59265073021E+02  0.11338416687E+03  0.90308533354E+02 0.  0.
        -11    1    3    3    0    0  0.38049142070E+02 -0.16727229489E+01 -0.15549068435E+03  0.16008712670E+03  0.00000000000E+00 0.  1.
         11    1    3    3    0    0 -0.21255356578E+02 -0.19601315720E+01  0.30521409506E+00  0.21347727155E+02  0.00000000000E+00 0. -1.
        -13    1    4    4    0    0 -0.46255805417E+02 -0.15930233391E+02  0.30679018932E+02  0.57745771042E+02  0.00000000000E+00 0. -1.
         13    1    4    4    0    0  0.23313588654E+02  0.41652673219E+02  0.28586054089E+02  0.55638395831E+02  0.00000000000E+00 0.  1.
         21    1    1    2  502  501  0.61484312716E+01 -0.22089585307E+02 -0.13708978126E+03  0.13899410459E+03  0.00000000000E+00 0. -1.
<scales pt_clust_5="13000.00000" pt_clust_6="13000.00000" pt_clust_7="13000.00000" pt_clust_8="13000.00000" pt_clust_9="22.92930"></scales>
<clustering>
<clus scale="   22.929">  2  9  1 -1</clus>
<clus scale="   90.309">  7  8 -1 -1</clus>
<clus scale="   92.417">  5  6 -1 -1</clus>
<clus scale="   95.693">  1  7  2 -1</clus>
<clus scale="   95.693">  1  5  2 -1</clus>
</clustering>
</event>
<event>
 9    1  0.1266593E-005  0.1055463E+03  0.7546771E-02  0.1270799E+00
         -1   -1    0    0    0  501 -0.00000000000E+00  0.00000000000E+00  0.70627269151E+02  0.70627269151E+02  0.00000000000E+00 0.  1.
          1   -1    0    0  502    0  0.00000000000E+00 -0.00000000000E+00 -0.37143592970E+03  0.37143592970E+03  0.00000000000E+00 0. -1.
         23    2    1    2    0    0 -0.49604494704E+02 -0.24622815385E+02 -0.11484512835E+03  0.15812777767E+03  0.93531286919E+02 0.  0.
         23    2    1    2    0    0  0.21172473263E+02  0.44791939981E+02 -0.21529414720E+03  0.23837822190E+03  0.89543371312E+02 0.  0.
        -11    1    3    3    0    0 -0.62989338821E+02  0.78454572853E+01 -0.38878327429E+02  0.74436095739E+02  0.00000000000E+00 0.  1.
         11    1    3    3    0    0  0.13384844118E+02 -0.32468272670E+02 -0.75966800922E+02  0.83691681932E+02  0.00000000000E+00 0. -1.
        -13    1    4    4    0    0 -0.82973691260E+01  0.47224905143E+02 -0.45743844530E+02  0.66268675199E+02  0.00000000000E+00 0.  1.
         13    1    4    4    0    0  0.29469842389E+02 -0.24329651626E+01 -0.16955030267E+03  0.17210954670E+03  0.00000000000E+00 0. -1.
         21    1    1    2  502  501  0.28432021440E+02 -0.20169124596E+02  0.29330615001E+02  0.45557199282E+02  0.00000000000E+00 0. -1.
<scales pt_clust_5="13000.00000" pt_clust_6="13000.00000" pt_clust_7="13000.00000" pt_clust_8="13000.00000" pt_clust_9="34.85934"></scales>
<clustering>
<clus scale="   34.859">  1  9  2 -1</clus>
<clus scale="   89.543">  7  8 -1 -1</clus>
<clus scale="   93.531">  5  6 -1 -1</clus>
<clus scale="  102.029">  2  7  1 -1</clus>
<clus scale="  102.029">  2  5  1 -1</clus>
</clustering>
</event>
<event>
 9    1  0.1266593E-005  0.1283302E+03  0.7546771E-02  0.1231332E+00
         -1   -1    0    0    0  501 -0.00000000000E+00  0.00000000000E+00  0.55428010298E+03  0.55428010298E+03  0.00000000000E+00 0.  1.
          1   -1    0    0  502    0  0.00000000000E+00 -0.00000000000E+00 -0.41575302334E+02  0.41575302334E+02  0.00000000000E+00 0. -1.
         23    2    1    2    0    0 -0.93357677218E+01 -0.78636511524E+02  0.33055023363E+03  0.35187340499E+03  0.90997685040E+02 0.  0.
         23    2    1    2    0    0  0.66230879790E+01  0.10093254725E+03  0.14985207553E+03  0.20463835030E+03  0.95864307677E+02 0.  0.
        -13    1    4    4    0    0  0.31363804484E+02  0.28391990414E+02  0.11083574164E+03  0.11863538670E+03  0.00000000000E+00 0.  1.
         13    1    4    4    0    0 -0.24740716505E+02  0.72540556836E+02  0.39016333886E+02  0.86002963607E+02  0.00000000000E+00 0. -1.
        -13    1    3    3    0    0 -0.48288074045E+02 -0.27644835427E+02  0.17410905184E+03  0.18278385310E+03  0.00000000000E+00 0.  1.
         13    1    3    3    0    0  0.38952306323E+02 -0.50991676097E+02  0.15644118179E+03  0.16908955189E+03  0.00000000000E+00 0. -1.
         21    1    1    2  502  501  0.27126797429E+01 -0.22296035726E+02  0.32302491483E+02  0.39343650015E+02  0.00000000000E+00 0.  1.
<scales pt_clust_5="13000.00000" pt_clust_6="13000.00000" pt_clust_7="13000.00000" pt_clust_8="13000.00000" pt_clust_9="22.46045"></scales>
<clustering>
<clus scale="   22.460">  2  9  1 -1</clus>
<clus scale="   90.998">  7  8 -1 -1</clus>
<clus scale="   95.864">  5  6 -1 -1</clus>
<clus scale="  124.737">  1  7  2 -1</clus>
<clus scale="   22.460">  2  5  1 -1</clus>
</clustering>
</event>
<event>
 9    1  0.1266593E-005  0.9802046E+02  0.7546771E-02  0.1284972E+00
         -1   -1    0    0    0  501 -0.00000000000E+00  0.00000000000E+00  0.35909585118E+02  0.35909585118E+02  0.00000000000E+00 0.  1.
          1   -1    0    0  502    0  0.00000000000E+00 -0.00000000000E+00 -0.36206698586E+03  0.36206698586E+03  0.00000000000E+00 0. -1.
         23    2    1    2    0    0  0.28728715091E+02  0.16808367148E+02 -0.14512106766E+03  0.17454259880E+03  0.91088606532E+02 0.  0.
         23    2    1    2    0    0 -0.13981733723E+02 -0.35432359386E+02 -0.17051174195E+03  0.19745140947E+03  0.91988390519E+02 0.  0.
        -13    1    3    3    0    0  0.59278865589E+02  0.68997882140E+01 -0.65091630390E+02  0.88309180326E+02  0.00000000000E+00 0.  1.
         13    1    3    3    0    0 -0.30550150498E+02  0.99085789342E+01 -0.80029437273E+02  0.86233418476E+02  0.00000000000E+00 0. -1.
        -13    1    4    4    0    0  0.22133398902E+02  0.20879181398E+02 -0.74096602452E+02  0.80100774389E+02  0.00000000000E+00 0.  1.
         13    1    4    4    0    0 -0.36115132626E+02 -0.56311540783E+02 -0.96415139495E+02  0.11735063508E+03  0.00000000000E+00 0. -1.
         21    1    1    2  502  501 -0.14746981368E+02  0.18623992238E+02 -0.10524591133E+02  0.25982562708E+02  0.00000000000E+00 0.  1.
<scales pt_clust_5="13000.00000" pt_clust_6="13000.00000" pt_clust_7="13000.00000" pt_clust_8="13000.00000" pt_clust_9="23.75556"></scales>
<clustering>
<clus scale="   23.756">  1  9  2 -1</clus>
<clus scale="   91.089">  5  6 -1 -1</clus>
<clus scale="   91.988">  7  8 -1 -1</clus>
<clus scale="   97.177">  1  5  2 -1</clus>
<clus scale="   98.020">  2  5  1 -1</clus>
</clustering>
</event>
<event>
 9    1  0.1266593E-005  0.9718912E+02  0.7546771E-02  0.1286968E+00
         -1   -1    0    0    0  501 -0.00000000000E+00  0.00000000000E+00  0.15904070742E+03  0.15904070742E+03  0.00000000000E+00 0.  1.
          1   -1    0    0  502    0  0.00000000000E+00 -0.00000000000E+00 -0.86536925283E+02  0.86536925283E+02  0.00000000000E+00 0. -1.
         23    2    1    2    0    0  0.59028797398E+01  0.24398873048E+02  0.20766731890E+02  0.97875745037E+02  0.92294394835E+02 0.  0.
         23    2    1    2    0    0  0.20865389956E+02 -0.34362567065E+02  0.14210218749E+02  0.10054175044E+03  0.91052527429E+02 0.  0.
        -11    1    4    4    0    0 -0.23782037139E+02 -0.47386220617E+02  0.80769956581E+01  0.53630933739E+02  0.00000000000E+00 0. -1.
         11    1    4    4    0    0  0.44647427094E+02  0.13023653552E+02  0.61332230905E+01  0.46910816700E+02  0.00000000000E+00 0.  1.
        -13    1    3    3    0    0  0.28871622399E+02 -0.12450967959E+02  0.39583882636E+02  0.50551765030E+02  0.00000000000E+00 0.  1.
         13    1    3    3    0    0 -0.22968742659E+02  0.36849841006E+02 -0.18817150746E+02  0.47323980007E+02  0.00000000000E+00 0. -1.
         21    1    1    2  502  501 -0.26768269696E+02  0.99636940176E+01  0.37526831500E+02  0.47160137228E+02  0.00000000000E+00 0.  1.
<scales pt_clust_5="13000.00000" pt_clust_6="13000.00000" pt_clust_7="13000.00000" pt_clust_8="13000.00000" pt_clust_9="28.56248"></scales>
<clustering>
<clus scale="   28.562">  1  9  2 -1</clus>
<clus scale="   91.053">  5  6 -1 -1</clus>
<clus scale="   92.294">  7  8 -1 -1</clus>
<clus scale="   96.011">  2  5  1 -1</clus>
<clus scale="   96.011">  2  5  1 -1</clus>
</clustering>
</event>
<event>
 9    1  0.1266593E-005  0.9569253E+02  0.7546771E-02  0.1290670E+00
         -3   -1    0    0    0  501 -0.00000000000E+00  0.00000000000E+00  0.76752798853E+03  0.76752798853E+03  0.00000000000E+00 0.  1.
          3   -1    0    0  502    0  0.00000000000E+00 -0.00000000000E+00 -0.24350526628E+02  0.24350526628E+02  0.00000000000E+00 0. -1.
         23    2    1    2    0    0  0.28284639579E+01  0.39270321151E+02  0.30078164215E+03  0.31668656185E+03  0.90942970408E+02 0.  0.
         23    2    1    2    0    0  0.21820775186E+02 -0.84903232864E+01  0.13636743570E+03  0.16663342547E+03  0.92856820675E+02 0.  0.
        -13    1    3    3    0    0  0.27004602954E+01  0.68497130132E+02  0.23293526382E+03  0.24281265711E+03  0.00000000000E+00 0.  1.
         13    1    3    3    0    0  0.12800366248E+00 -0.29226808981E+02  0.67846378332E+02  0.73873904736E+02  0.00000000000E+00 0. -1.
        -13    1    4    4    0    0  0.39400602086E+02 -0.30936144556E+02  0.12716189338E+03  0.13667333175E+03  0.00000000000E+00 0. -1.
         13    1    4    4    0    0 -0.17579826900E+02  0.22445821269E+02  0.92055423224E+01  0.29960093720E+02  0.00000000000E+00 0.  1.
         21    1    1    2  502  501 -0.24649239144E+02 -0.30779997864E+02  0.30602838405E+03  0.30855852784E+03  0.00000000000E+00 0.  1.
<scales pt_clust_5="13000.00000" pt_clust_6="13000.00000" pt_clust_7="13000.00000" pt_clust_8="13000.00000" pt_clust_9="39.43340"></scales>
<clustering>
<clus scale="   39.433">  1  9  2 -1</clus>
<clus scale="   90.943">  5  6 -1 -1</clus>
<clus scale="   92.857">  7  8 -1 -1</clus>
<clus scale="   93.837">  1  5  2 -1</clus>
<clus scale="   95.693">  2  5  1 -1</clus>
</clustering>
</event>
<event>
 9    1  0.1266593E-005  0.1079434E+03  0.7546771E-02  0.1266203E+00
         -2   -1    0    0    0  501 -0.00000000000E+00  0.00000000000E+00  0.54744869755E+02  0.54744869755E+02  0.00000000000E+00 0.  1.
          2   -1    0    0  502    0  0.00000000000E+00 -0.00000000000E+00 -0.32383173502E+03  0.32383173502E+03  0.00000000000E+00 0. -1.
         23    2    1    2    0    0  0.17081978919E+02 -0.25639258744E+02 -0.44190427203E+02  0.11196385588E+03  0.98152664634E+02 0.  0.
         23    2    1    2    0    0 -0.88745002406E+01  0.50239485316E+02 -0.21235384947E+03  0.23780562508E+03  0.94098859179E+02 0.  0.
        -13    1    3    3    0    0  0.46397948095E+02 -0.46030711876E+02 -0.18349426700E+02  0.67884442132E+02  0.00000000000E+00 0. -1.
         13    1    3    3    0    0 -0.29315969176E+02  0.20391453132E+02 -0.25841000503E+02  0.44079413750E+02  0.00000000000E+00 0.  1.
        -13    1    4    4    0    0 -0.37096215617E+01 -0.27586983691E+02 -0.41255543691E+02  0.49767688780E+02  0.00000000000E+00 0.  1.
         13    1    4    4    0    0 -0.51648786788E+01  0.77826469007E+02 -0.17109830578E+03  0.18803793630E+03  0.00000000000E+00 0. -1.
         21    1    1    2  502  501 -0.82074786787E+01 -0.24600226572E+02 -0.12542588600E+02  0.28807123814E+02  0.00000000000E+00 0.  1.
<scales pt_clust_5="13000.00000" pt_clust_6="13000.00000" pt_clust_7="13000.00000" pt_clust_8="13000.00000" pt_clust_9="25.93326"></scales>
<clustering>
<clus scale="   25.933">  1  9  2 -1</clus>
<clus scale="   94.099">  7  8 -1 -1</clus>
<clus scale="   98.153">  5  6 -1 -1</clus>
<clus scale="  104.271">  2  7  1 -1</clus>
<clus scale="  104.271">  2  5  1 -1</clus>
</clustering>
</event>
<event>
 9    1  0.1266593E-005  0.1001210E+03  0.7546771E-02  0.1280137E+00
          1   -1    0    0  502    0  0.00000000000E+00  0.00000000000E+00  0.42935927180E+03  0.42935927180E+03  0.00000000000E+00 0. -1.
         -1   -1    0    0    0  501 -0.00000000000E+00 -0.00000000000E+00 -0.47295779279E+02  0.47295779279E+02  0.00000000000E+00 0.  1.
         23    2    1    2    0    0 -0.17181332143E+02 -0.22727684914E+02  0.14150982014E+03  0.17082005174E+03  0.91338464224E+02 0.  0.
         23    2    1    2    0    0  0.49546030976E+02  0.15951951343E+02  0.25014522484E+03  0.27140561981E+03  0.91537440521E+02 0.  0.
        -11    1    3    3    0    0  0.28563728953E+02  0.38843800792E+01  0.98478183072E+02  0.10261056262E+03  0.00000000000E+00 0. -1.
         11    1    3    3    0    0 -0.45745061095E+02 -0.26612064993E+02  0.43031637064E+02  0.68209489122E+02  0.00000000000E+00 0.  1.
        -11    1    4    4    0    0 -0.99404966905E+01  0.36493533191E+02  0.58235137546E+02  0.69440065410E+02  0.00000000000E+00 0.  1.
         11    1    4    4    0    0  0.59486527667E+02 -0.20541581848E+02  0.19191008730E+03  0.20196555440E+03  0.00000000000E+00 0. -1.
         21    1    1    2  502  501 -0.32364698834E+02  0.67757335717E+01 -0.95915524558E+01  0.34429379526E+02  0.00000000000E+00 0.  1.
<scales pt_clust_5="13000.00000" pt_clust_6="13000.00000" pt_clust_7="13000.00000" pt_clust_8="13000.00000" pt_clust_9="33.06636"></scales>
<clustering>
<clus scale="   33.066">  2  9  1 -1</clus>
<clus scale="   91.338">  5  6 -1 -1</clus>
<clus scale="   91.537">  7  8 -1 -1</clus>
<clus scale="   99.939">  2  5  1 -1</clus>
<clus scale="  100.121">  1  5  2 -1</clus>
</clustering>
</event>
<event>
 9    1  0.1266593E-005  0.9942228E+02  0.7546771E-02  0.1281916E+00
         -4   -1    0    0    0  501 -0.00000000000E+00  0.00000000000E+00  0.73045092118E+02  0.73045092118E+02  0.00000000000E+00 0.  1.
          4   -1    0    0  502    0  0.00000000000E+00 -0.00000000000E+00 -0.25521708517E+03  0.25521708517E+03  0.00000000000E+00 0. -1.
         23    2    1    2    0    0  0.33878218807E+02  0.50794006147E+02 -0.88762281649E+02  0.14147916642E+03  0.91705218589E+02 0.  0.
         23    2    1    2    0    0 -0.19583615079E+02 -0.87725568696E+01 -0.10432070015E+03  0.14107537945E+03  0.92514747319E+02 0.  0.
        -13    1    4    4    0    0  0.27022996737E+02  0.16603723736E+01 -0.81961801371E+00  0.27086361195E+02  0.00000000000E+00 0. -1.
         13    1    4    4    0    0 -0.46606611816E+02 -0.10432929243E+02 -0.10350108214E+03  0.11398901825E+03  0.00000000000E+00 0.  1.
        -13    1    3    3    0    0 -0.53062483757E+01  0.63937167469E+02 -0.73150104911E+02  0.97298794979E+02  0.00000000000E+00 0. -1.
         13    1    3    3    0    0  0.39184467182E+02 -0.13143161322E+02 -0.15612176738E+02  0.44180371438E+02  0.00000000000E+00 0.  1.
         21    1    1    2  502  501 -0.14294603728E+02 -0.42021449277E+02  0.10910988751E+02  0.45707631426E+02  0.00000000000E+00 0. -1.
<scales pt_clust_5="13000.00000" pt_clust_6="13000.00000" pt_clust_7="13000.00000" pt_clust_8="13000.00000" pt_clust_9="44.38624"></scales>
<clustering>
<clus scale="   44.386">  1  9  2 -1</clus>
<clus scale="   91.705">  7  8 -1 -1</clus>
<clus scale="   92.515">  5  6 -1 -1</clus>
<clus scale="   98.669">  1  7  2 -1</clus>
<clus scale="   99.422">  2  5  1 -1</clus>
</clustering>
</event>
<event>
 9    1  0.1266593E-005  0.1273116E+03  0.7546771E-02  0.1244350E+00
          1   -1    0    0  502    0  0.00000000000E+00  0.00000000000E+00  0.22723166596E+03  0.22723166596E+03  0.00000000000E+00 0. -1.
         -1   -1    0    0    0  501 -0.00000000000E+00 -0.00000000000E+00 -0.45203434760E+03  0.45203434760E+03  0.00000000000E+00 0.  1.
         23    2    1    2    0    0 -0.12149412195E+02  0.53690397670E+02  0.70595899367E+02  0.15317657959E+03  0.12429407271E+03 0.  0.
         23    2    1    2    0    0 -0.15783553778E+02 -0.13480337242E+02  0.93443783769E+02  0.13417683632E+03  0.94025755078E+02 0.  0.
        -11    1    3    3    0    0  0.41602144792E+02 -0.16699417115E+02  0.38116366747E+02  0.58842725950E+02  0.00000000000E+00 0.  1.
         11    1    3    3    0    0 -0.53751556987E+02  0.70389814785E+02  0.32479532620E+02  0.94333853643E+02  0.00000000000E+00 0. -1.
        -13    1    4    4    0    0  0.13289208743E+02  0.34627224000E+02  0.53990309340E+02  0.65502680965E+02  0.00000000000E+00 0.  1.
         13    1    4    4    0    0 -0.29072762521E+02 -0.48107561243E+02  0.39453474429E+02  0.68674155356E+02  0.00000000000E+00 0. -1.
         21    1    1    2  502  501  0.27932965973E+02 -0.40210060428E+02 -0.38884236477E+03  0.39191259764E+03  0.00000000000E+00 0.  1.
<scales pt_clust_5="13000.00000" pt_clust_6="13000.00000" pt_clust_7="13000.00000" pt_clust_8="13000.00000" pt_clust_9="48.96018"></scales>
<clustering>
<clus scale="   48.960">  2  9  1 -1</clus>
<clus scale="   94.026">  7  8 -1 -1</clus>
<clus scale="   97.980">  1  7  2 -1</clus>
<clus scale="  124.294">  5  6 -1 -1</clus>
<clus scale="   97.980">  1  5  2 -1</clus>
</clustering>
</event>
<event>
 9    1  0.1266593E-005  0.1495223E+03  0.7546771E-02  0.1201885E+00
          2   -1    0    0  502    0  0.00000000000E+00  0.00000000000E+00  0.59800016938E+03  0.59800016938E+03  0.00000000000E+00 0. -1.
         -2   -1    0    0    0  501 -0.00000000000E+00 -0.00000000000E+00 -0.68284527401E+02  0.68284527401E+02  0.00000000000E+00 0.  1.
         23    2    1    2    0    0 -0.88637957085E+02  0.28690370748E+02  0.14453952327E+03  0.19439469694E+03  0.90652079967E+02 0.  0.
         23    2    1    2    0    0  0.12450705749E+03 -0.35545260231E+02  0.40111673379E+03  0.43204423367E+03  0.94879464765E+02 0.  0.
        -11    1    3    3    0    0 -0.63853345676E+02 -0.24736248567E+02  0.96846040404E+02  0.11860981110E+03  0.00000000000E+00 0.  1.
         11    1    3    3    0    0 -0.24784611409E+02  0.53426619316E+02  0.47693482862E+02  0.75784885839E+02  0.00000000000E+00 0. -1.
        -11    1    4    4    0    0  0.11684342581E+03  0.68477596660E+01  0.30624552108E+03  0.32784996134E+03  0.00000000000E+00 0. -1.
         11    1    4    4    0    0  0.76636316806E+01 -0.42393019897E+02  0.94871212703E+02  0.10419427233E+03  0.00000000000E+00 0.  1.
         21    1    1    2  502  501 -0.35869100401E+02  0.68548894830E+01 -0.15940615070E+02  0.39845766177E+02  0.00000000000E+00 0.  1.
<scales pt_clust_5="13000.00000" pt_clust_6="13000.00000" pt_clust_7="13000.00000" pt_clust_8="13000.00000" pt_clust_9="36.51824"></scales>
<clustering>
<clus scale="   36.518">  2  9  1 -1</clus>
<clus scale="   90.652">  5  6 -1 -1</clus>
<clus scale="   94.879">  7  8 -1 -1</clus>
<clus scale="  146.876">  2  5  1 -1</clus>
<clus scale="  149.522">  1  5  2 -1</clus>
</clustering>
</event>
<event>
 9    1  0.1266593E-005  0.1270296E+03  0.7546771E-02  0.1232497E+00
         -1   -1    0    0    0  501 -0.00000000000E+00  0.00000000000E+00  0.18423131798E+03  0.18423131798E+03  0.00000000000E+00 0.  1.
          1   -1    0    0  502    0  0.00000000000E+00 -0.00000000000E+00 -0.31690953156E+03  0.31690953156E+03  0.00000000000E+00 0. -1.
         23    2    1    2    0    0  0.27254378527E+02 -0.74414750061E+02  0.79855278925E+02  0.14562042308E+03  0.92455859044E+02 0.  0.
         23    2    1    2    0    0 -0.61602369067E+02  0.60848046501E+02 -0.26325418337E+03  0.29277946391E+03  0.94444231092E+02 0.  0.
        -11    1    4    4    0    0  0.20463537463E+02  0.36638827051E+02 -0.10036350330E+03  0.10878415697E+03  0.00000000000E+00 0.  1.
         11    1    4    4    0    0 -0.82065906531E+02  0.24209219450E+02 -0.16289068007E+03  0.18399530693E+03  0.00000000000E+00 0. -1.
        -11    1    3    3    0    0 -0.34168409653E+02 -0.22326397004E+02  0.32664974642E+02  0.52277612701E+02  0.00000000000E+00 0. -1.
         11    1    3    3    0    0  0.61422788179E+02 -0.52088353057E+02  0.47190304283E+02  0.93342810383E+02  0.00000000000E+00 0.  1.
         21    1    1    2  502  501  0.34347990541E+02  0.13566703559E+02  0.50720690860E+02  0.62740962544E+02  0.00000000000E+00 0.  1.
<scales pt_clust_5="13000.00000" pt_clust_6="13000.00000" pt_clust_7="13000.00000" pt_clust_8="13000.00000" pt_clust_9="36.93020"></scales>
<clustering>
<clus scale="   36.930">  1  9  2 -1</clus>
<clus scale="   92.456">  7  8 -1 -1</clus>
<clus scale="   94.444">  5  6 -1 -1</clus>
<clus scale="  125.558">  1  7  2 -1</clus>
<clus scale="  127.030">  2  5  1 -1</clus>
</clustering>
</event>
<event>
 9    1  0.1266593E-005  0.9902374E+02  0.7546771E-02  0.1283775E+00
         -3   -1    0    0    0  501 -0.00000000000E+00  0.00000000000E+00  0.86142966468E+02  0.86142966468E+02  0.00000000000E+00 0.  1.
          3   -1    0    0  502    0  0.00000000000E+00 -0.00000000000E+00 -0.28862211851E+03  0.28862211851E+03  0.00000000000E+00 0. -1.
         23    2    1    2    0    0 -0.26075413642E+02  0.49392285298E+02  0.29272894854E+02  0.10895977119E+03  0.88858338494E+02 0.  0.
         23    2    1    2    0    0  0.19040576275E+02 -0.28964676094E+02 -0.22080712589E+03  0.24158615918E+03  0.91687455278E+02 0.  0.
        -11    1    4    4    0    0 -0.23826681321E+02 -0.26796867199E+02 -0.17569712709E+03  0.17931888718E+03  0.00000000000E+00 0. -1.
         11    1    4    4    0    0  0.42867257596E+02 -0.21678088949E+01 -0.45109998803E+02  0.62267271991E+02  0.00000000000E+00 0.  1.
        -13    1    3    3    0    0 -0.60130057678E+01  0.56032055372E+02  0.52877680250E+02  0.77277399905E+02  0.00000000000E+00 0.  1.
         13    1    3    3    0    0 -0.20062407874E+02 -0.66397700735E+01 -0.23604785395E+02  0.31682371280E+02  0.00000000000E+00 0. -1.
         21    1    1    2  502  501  0.70348373667E+01 -0.20427609204E+02 -0.10944921007E+02  0.24219154618E+02  0.00000000000E+00 0. -1.
<scales pt_clust_5="13000.00000" pt_clust_6="13000.00000" pt_clust_7="13000.00000" pt_clust_8="13000.00000" pt_clust_9="21.60500"></scales>
<clustering>
<clus scale="   21.605">  1  9  2 -1</clus>
<clus scale="   88.858">  7  8 -1 -1</clus>
<clus scale="   91.687">  5  6 -1 -1</clus>
<clus scale="   96.410">  1  7  2 -1</clus>
<clus scale="   99.024">  2  5  1 -1</clus>
</clustering>
</event>
<event>
 9    1  0.1266593E-005  0.1375937E+03  0.7546771E-02  0.1218067E+00
          1   -1    0    0  502    0  0.00000000000E+00  0.00000000000E+00  0.48661463520E+03  0.48661463520E+03  0.00000000000E+00 0. -1.
         -1   -1    0    0    0  501 -0.00000000000E+00 -0.00000000000E+00 -0.10487578973E+03  0.10487578973E+03  0.00000000000E+00 0.  1.
         23    2    1    2    0    0 -0.78269238477E+02  0.60849678823E+02  0.66060987575E+02  0.14966129061E+03  0.90585267700E+02 0.  0.
         23    2    1    2    0    0  0.42922515303E+02 -0.90476154706E+02  0.35494800636E+03  0.38125468862E+03  0.96637329662E+02 0.  0.
        -11    1    4    4    0    0  0.70670112349E+02 -0.79476598342E+02  0.24026314896E+03  0.26274926300E+03  0.00000000000E+00 0. -1.
         11    1    4    4    0    0 -0.27747597046E+02 -0.10999556364E+02  0.11468485740E+03  0.11850542561E+03  0.00000000000E+00 0.  1.
        -11    1    3    3    0    0 -0.42502914115E+02 -0.19063654283E+02  0.19510834490E+02  0.50503398751E+02  0.00000000000E+00 0. -1.
         11    1    3    3    0    0 -0.35766324363E+02  0.79913333106E+02  0.46550153084E+02  0.99157891863E+02  0.00000000000E+00 0.  1.
         21    1    1    2  502  501  0.35346723174E+02  0.29626475883E+02 -0.39270148464E+02  0.60574445707E+02  0.00000000000E+00 0.  1.
<scales pt_clust_5="13000.00000" pt_clust_6="13000.00000" pt_clust_7="13000.00000" pt_clust_8="13000.00000" pt_clust_9="46.12070"></scales>
<clustering>
<clus scale="   46.121">  2  9  1 -1</clus>
<clus scale="   90.585">  7  8 -1 -1</clus>
<clus scale="   96.637">  5  6 -1 -1</clus>
<clus scale="  133.413">  2  7  1 -1</clus>
<clus scale="  137.594">  1  5  2 -1</clus>
</clustering>
</event>
<event>
 9    1  0.1266593E-005  0.1246860E+03  0.7546771E-02  0.1244227E+00
         -1   -1    0    0    0  501 -0.00000000000E+00  0.00000000000E+00  0.99781491852E+02  0.99781491852E+02  0.00000000000E+00 0.  1.
          1   -1    0    0  502    0  0.00000000000E+00 -0.00000000000E+00 -0.27772524160E+03  0.27772524160E+03  0.00000000000E+00 0. -1.
         23    2    1    2    0    0  0.24541307429E+02 -0.66229672328E+02 -0.36533039635E+02  0.12139281088E+03  0.91721896409E+02 0.  0.
         23    2    1    2    0    0  0.57099478012E+02 -0.57865387742E+01 -0.65156350039E+02  0.12319936378E+03  0.87400794421E+02 0.  0.
        -13    1    4    4    0    0  0.59724327493E+00 -0.34206142924E+02 -0.45582421599E+02  0.56992754557E+02  0.00000000000E+00 0.  1.
         13    1    4    4    0    0  0.56502234737E+02  0.28419604149E+02 -0.19573928440E+02  0.66206609223E+02  0.00000000000E+00 0. -1.
        -13    1    3    3    0    0 -0.15515959925E+02 -0.17039922725E+02 -0.51318704811E+02  0.56255785857E+02  0.00000000000E+00 0. -1.
         13    1    3    3    0    0  0.40057267354E+02 -0.49189749604E+02  0.14785665176E+02  0.65137025021E+02  0.00000000000E+00 0.  1.
         21    1    1    2  502  501 -0.81640785441E+02  0.72016211102E+02 -0.76254360075E+02  0.13291455879E+03  0.00000000000E+00 0. -1.
<scales pt_clust_5="13000.00000" pt_clust_6="13000.00000" pt_clust_7="13000.00000" pt_clust_8="13000.00000" pt_clust_9="84.46115"></scales>
<clustering>
<clus scale="   87.401">  5  6 -1 -1</clus>
<clus scale="   91.722">  7  8 -1 -1</clus>
<clus scale="  104.560">  2  5  1 -1</clus>
<clus scale="   84.461">  2  9  1 -1</clus>
<clus scale="  104.560">  2  5  1 -1</clus>
</clustering>
</event>
<event>
 9    1  0.1266593E-005  0.1099704E+03  0.7546771E-02  0.1263060E+00
         -1   -1    0    0    0  501 -0.00000000000E+00  0.00000000000E+00  0.13339074026E+03  0.13339074026E+03  0.00000000000E+00 0.  1.
          1   -1    0    0  502    0  0.00000000000E+00 -0.00000000000E+00 -0.44904277174E+03  0.44904277174E+03  0.00000000000E+00 0. -1.
         23    2    1    2    0    0 -0.44066857707E+02 -0.73250882240E+01  0.21830790889E+02  0.10457419644E+03  0.91998012281E+02 0.  0.
         23    2    1    2    0    0  0.49466760655E+02 -0.14045961199E+02 -0.39821007324E+03  0.41325529322E+03  0.97797880899E+02 0.  0.
        -11    1    3    3    0    0 -0.41142539397E+02  0.38502840411E+02  0.12150371912E+02  0.57643809775E+02  0.00000000000E+00 0.  1.
         11    1    3    3    0    0 -0.29243183093E+01 -0.45827928635E+02  0.96804189774E+01  0.46930386661E+02  0.00000000000E+00 0. -1.
        -13    1    4    4    0    0  0.61327810991E+02 -0.41078116072E+02 -0.34078035122E+03  0.34868289290E+03  0.00000000000E+00 0. -1.
         13    1    4    4    0    0 -0.11861050336E+02  0.27032154873E+02 -0.57429722019E+02  0.64572400322E+02  0.00000000000E+00 0.  1.
         21    1    1    2  502  501 -0.53999029480E+01  0.21371049423E+02  0.60727250870E+02  0.64604022348E+02  0.00000000000E+00 0.  1.
<scales pt_clust_5="13000.00000" pt_clust_6="13000.00000" pt_clust_7="13000.00000" pt_clust_8="13000.00000" pt_clust_9="22.04270"></scales>
<clustering>
<clus scale="   22.043">  1  9  2 -1</clus>
<clus scale="   91.998">  5  6 -1 -1</clus>
<clus scale="   97.798">  7  8 -1 -1</clus>
<clus scale="  104.846">  1  5  2 -1</clus>
<clus scale="  109.970">  2  5  1 -1</clus>
</clustering>
</event>
<event>
 9    1  0.1266593E-005  0.9648184E+02  0.7546771E-02  0.1289762E+00
         -1   -1    0    0    0  501 -0.00000000000E+00  0.00000000000E+00  0.17195669514E+03  0.17195669514E+03  0.00000000000E+00 0.  1.
          1   -1    0    0  502    0  0.00000000000E+00 -0.00000000000E+00 -0.22563280561E+03  0.22563280561E+03  0.00000000000E+00 0. -1.
         23    2    1    2    0    0 -0.32167962404E+02 -0.11530009963E+02  0.56696633191E+02  0.11007331090E+03  0.87942632568E+02 0.  0.
         23    2    1    2    0    0  0.16857038561E+02  0.26003973733E+02 -0.18568685277E+03  0.20931046724E+03  0.91492611745E+02 0.  0.
        -11    1    4    4    0    0  0.50917517420E+01  0.55147034596E+02 -0.15800392266E+03  0.16742867418E+03  0.00000000000E+00 0. -1.
         11    1    4    4    0    0  0.11765286819E+02 -0.29143060863E+02 -0.27682930111E+02  0.41881793060E+02  0.00000000000E+00 0.  1.
        -13    1    3    3    0    0 -0.49883866975E+02  0.99593254840E+01  0.46965124818E+01  0.51084690250E+02  0.00000000000E+00 0.  1.
         13    1    3    3    0    0  0.17715904572E+02 -0.21489335447E+02  0.52000120709E+02  0.58988620653E+02  0.00000000000E+00 0. -1.
         21    1    1    2  502  501  0.15310923842E+02 -0.14473963770E+02  0.75314109113E+02  0.78205722601E+02  0.00000000000E+00 0.  1.
<scales pt_clust_5="13000.00000" pt_clust_6="13000.00000" pt_clust_7="13000.00000" pt_clust_8="13000.00000" pt_clust_9="21.06941"></scales>
<clustering>
<clus scale="   21.069">  1  9  2 -1</clus>
<clus scale="   87.943">  7  8 -1 -1</clus>
<clus scale="   91.493">  5  6 -1 -1</clus>
<clus scale="   93.122">  1  7  2 -1</clus>
<clus scale="   96.482">  2  5  1 -1</clus>
</clustering>
</event>
<event>
 9    1  0.1266593E-005  0.1035061E+03  0.7546771E-02  0.1273820E+00
          1   -1    0    0  502    0  0.00000000000E+00  0.00000000000E+00  0.45721641167E+02  0.45721641167E+02  0.00000000000E+00 0. -1.
         -1   -1    0    0    0  501 -0.00000000000E+00 -0.00000000000E+00 -0.34755506234E+03  0.34755506234E+03  0.00000000000E+00 0.  1.
         23    2    1    2    0    0  0.15139759868E+02 -0.24721904434E+02 -0.12997203884E+03  0.16132416886E+03  0.91062460378E+02 0.  0.
         23    2    1    2    0    0 -0.15734160886E+02  0.57955126756E+02 -0.86270617159E+02  0.14013434766E+03  0.92674999184E+02 0.  0.
        -11    1    4    4    0    0 -0.47976724489E+02  0.58734693312E+02 -0.72983238978E+02  0.10525247485E+03  0.00000000000E+00 0. -1.
         11    1    4    4    0    0  0.32242563603E+02 -0.77956655617E+00 -0.13287378181E+02  0.34881872808E+02  0.00000000000E+00 0.  1.
        -13    1    3    3    0    0  0.37277035517E+02  0.82915568571E+01 -0.11079459323E+03  0.11719116511E+03  0.00000000000E+00 0. -1.
         13    1    3    3    0    0 -0.22137275649E+02 -0.33013461291E+02 -0.19177445615E+02  0.44133003748E+02  0.00000000000E+00 0.  1.
         21    1    1    2  502  501  0.59440101811E+00 -0.33233222322E+02 -0.85590765177E+02  0.91818186990E+02  0.00000000000E+00 0.  1.
<scales pt_clust_5="13000.00000" pt_clust_6="13000.00000" pt_clust_7="13000.00000" pt_clust_8="13000.00000" pt_clust_9="33.23854"></scales>
<clustering>
<clus scale="   33.239">  2  9  1 -1</clus>
<clus scale="   91.062">  7  8 -1 -1</clus>
<clus scale="   92.675">  5  6 -1 -1</clus>
<clus scale="  102.065">  2  7  1 -1</clus>
<clus scale="  103.506">  1  5  2 -1</clus>
</clustering>
</event>
<event>
 9    1  0.1266593E-005  0.2730979E+03  0.7546771E-02  0.1099560E+00
          1   -1    0    0  502    0  0.00000000000E+00  0.00000000000E+00  0.72455446062E+03  0.72455446062E+03  0.00000000000E+00 0. -1.
         -1   -1    0    0    0  501 -0.00000000000E+00 -0.00000000000E+00 -0.13730413231E+03  0.13730413231E+03  0.00000000000E+00 0.  1.
         23    2    1    2    0    0 -0.22442221669E+03 -0.10008844210E+02  0.11343365854E+03  0.26816352922E+03  0.92622757502E+02 0.  0.
         23    2    1    2    0    0  0.27567746187E+03 -0.26197441448E+02  0.41784025955E+03  0.50960372183E+03  0.91766561891E+02 0.  0.
        -11    1    4    4    0    0  0.16119792970E+03 -0.95109598926E+01  0.16156632279E+03  0.22842702896E+03  0.00000000000E+00 0.  1.
         11    1    4    4    0    0  0.11447953216E+03 -0.16686481555E+02  0.25627393676E+03  0.28117669287E+03  0.00000000000E+00 0. -1.
        -13    1    3    3    0    0 -0.20088506992E+03  0.19179897403E+02  0.11164684340E+03  0.23062458113E+03  0.00000000000E+00 0. -1.
         13    1    3    3    0    0 -0.23537146763E+02 -0.29188741614E+02  0.17868151403E+01  0.37538948082E+02  0.00000000000E+00 0.  1.
         21    1    1    2  502  501 -0.51255245179E+02  0.36206285658E+02  0.55976410218E+02  0.84091341887E+02  0.00000000000E+00 0.  1.
<scales pt_clust_5="13000.00000" pt_clust_6="13000.00000" pt_clust_7="13000.00000" pt_clust_8="13000.00000" pt_clust_9="62.75345"></scales>
<clustering>
<clus scale="   62.753">  2  9  1 -1</clus>
<clus scale="   91.767">  5  6 -1 -1</clus>
<clus scale="   92.623">  7  8 -1 -1</clus>
<clus scale="  272.809">  1  5  2 -1</clus>
<clus scale="  272.809">  1  5  2 -1</clus>
</clustering>
</event>
<event>
 9    1  0.1266593E-005  0.9369054E+02  0.7546771E-02  0.1294769E+00
          2   -1    0    0  502    0  0.00000000000E+00  0.00000000000E+00  0.27404911119E+03  0.27404911119E+03  0.00000000000E+00 0. -1.
         -2   -1    0    0    0  501 -0.00000000000E+00 -0.00000000000E+00 -0.97676380901E+02  0.97676380901E+02  0.00000000000E+00 0.  1.
         23    2    1    2    0    0 -0.35346131111E+02 -0.19210840874E+01  0.86328561712E+01  0.97332975036E+02  0.90255981935E+02 0.  0.
         23    2    1    2    0    0  0.14680564203E+02 -0.12141074013E+02  0.20744914710E+03  0.22747091961E+03  0.91350675914E+02 0.  0.
        -11    1    3    3    0    0 -0.26729000090E+02  0.34791593164E+02  0.30785688433E+02  0.53597136239E+02  0.00000000000E+00 0. -1.
         11    1    3    3    0    0 -0.86171310206E+01 -0.36712677252E+02 -0.22152832262E+02  0.43735838797E+02  0.00000000000E+00 0.  1.
        -11    1    4    4    0    0  0.53217300377E+02 -0.12278555204E+02  0.11493450267E+03  0.12725086987E+03  0.00000000000E+00 0.  1.
         11    1    4    4    0    0 -0.38536736174E+02  0.13748119134E+00  0.92514644427E+02  0.10022004974E+03  0.00000000000E+00 0. -1.
         21    1    1    2  502  501  0.20665566908E+02  0.14062158100E+02 -0.39709272985E+02  0.46921597448E+02  0.00000000000E+00 0.  1.
<scales pt_clust_5="13000.00000" pt_clust_6="13000.00000" pt_clust_7="13000.00000" pt_clust_8="13000.00000" pt_clust_9="24.99620"></scales>
<clustering>
<clus scale="   24.996">  2  9  1 -1</clus>
<clus scale="   90.256">  5  6 -1 -1</clus>
<clus scale="   91.351">  7  8 -1 -1</clus>
<clus scale="   92.624">  2  5  1 -1</clus>
<clus scale="   93.691">  1  5  2 -1</clus>
</clustering>
</event>
<event>
 9    1  0.1266593E-005  0.1449232E+03  0.7546771E-02  0.1207410E+00
          2   -1    0    0  502    0  0.00000000000E+00  0.00000000000E+00  0.11083129263E+03  0.11083129263E+03  0.00000000000E+00 0. -1.
         -2   -1    0    0    0  501 -0.00000000000E+00 -0.00000000000E+00 -0.42669095404E+03  0.42669095404E+03  0.00000000000E+00 0.  1.
         23    2    1    2    0    0  0.95727966799E+02 -0.96873343259E+02 -0.21768990689E+03  0.27275741364E+03  0.91975120945E+02 0.  0.
         23    2    1    2    0    0 -0.83742342780E+02  0.60827056687E+02  0.19062672959E+02  0.14153159072E+03  0.94631363041E+02 0.  0.
        -11    1    3    3    0    0  0.11697600597E+02 -0.18620337922E+02  0.46884294688E+01  0.22484043563E+02  0.00000000000E+00 0. -1.
         11    1    3    3    0    0  0.84030366202E+02 -0.78253005337E+02 -0.22237833636E+03  0.25027337008E+03  0.00000000000E+00 0.  1.
        -11    1    4    4    0    0 -0.24243051605E+02 -0.25191432646E+02  0.10902695124E+02  0.36622432891E+02  0.00000000000E+00 0. -1.
         11    1    4    4    0    0 -0.59499291175E+02  0.86018489333E+02  0.81599778353E+01  0.10490915783E+03  0.00000000000E+00 0.  1.
         21    1    1    2  502  501 -0.11985624019E+02  0.36046286572E+02 -0.11723242747E+03  0.12323324231E+03  0.00000000000E+00 0.  1.
<scales pt_clust_5="13000.00000" pt_clust_6="13000.00000" pt_clust_7="13000.00000" pt_clust_8="13000.00000" pt_clust_9="37.98671"></scales>
<clustering>
<clus scale="   37.987">  2  9  1 -1</clus>
<clus scale="   91.975">  5  6 -1 -1</clus>
<clus scale="   94.631">  7  8 -1 -1</clus>
<clus scale="  143.203">  2  5  1 -1</clus>
<clus scale="  144.923">  1  5  2 -1</clus>
</clustering>
</event>
<event>
 9    1  0.1266593E-005  0.1061274E+03  0.7546771E-02  0.1268186E+00
         -1   -1    0    0    0  501 -0.00000000000E+00  0.00000000000E+00  0.41060420971E+02  0.41060420971E+02  0.00000000000E+00 0.  1.
          1   -1    0    0  502    0  0.00000000000E+00 -0.00000000000E+00 -0.53593912799E+03  0.53593912799E+03  0.00000000000E+00 0. -1.
         23    2    1    2    0    0  0.16057481223E+02  0.21499076763E+02 -0.89283475770E+02  0.13023159680E+03  0.90932264658E+02 0.  0.
         23    2    1    2    0    0 -0.73567202154E+02  0.25391285330E+01 -0.32250188330E+03  0.34289443393E+03  0.90280383700E+02 0.  0.
        -13    1    3    3    0    0  0.28609164584E+02  0.52881448606E+02 -0.48392979553E+02  0.77180388538E+02  0.00000000000E+00 0. -1.
         13    1    3    3    0    0 -0.12551683362E+02 -0.31382371842E+02 -0.40890496217E+02  0.53051208266E+02  0.00000000000E+00 0.  1.
        -13    1    4    4    0    0 -0.20092156476E+02 -0.21764296669E+02 -0.22502385310E+02  0.37198611614E+02  0.00000000000E+00 0.  1.
         13    1    4    4    0    0 -0.53475045678E+02  0.24303425202E+02 -0.29999949799E+03  0.30569582232E+03  0.00000000000E+00 0. -1.
         21    1    1    2  502  501  0.57509720931E+02 -0.24038205296E+02 -0.83093347942E+02  0.10387351822E+03  0.00000000000E+00 0.  1.
<scales pt_clust_5="13000.00000" pt_clust_6="13000.00000" pt_clust_7="13000.00000" pt_clust_8="13000.00000" pt_clust_9="62.33140"></scales>
<clustering>
<clus scale="   62.331">  1  9  2 -1</clus>
<clus scale="   90.280">  7  8 -1 -1</clus>
<clus scale="   90.932">  5  6 -1 -1</clus>
<clus scale="  105.569">  2  7  1 -1</clus>
<clus scale="  105.569">  2  5  1 -1</clus>
</clustering>
</event>
<event>
 9    1  0.1266593E-005  0.1138337E+03  0.7546771E-02  0.1255625E+00
         -2   -1    0    0    0  501 -0.00000000000E+00  0.00000000000E+00  0.54864194211E+02  0.54864194211E+02  0.00000000000E+00 0.  1.
          2   -1    0    0  502    0  0.00000000000E+00 -0.00000000000E+00 -0.28279144032E+03  0.28279144032E+03  0.00000000000E+00 0. -1.
         23    2    1    2    0    0  0.46655432426E+02 -0.28645068331E+02 -0.81824612838E+02  0.13132854162E+03  0.86917485376E+02 0.  0.
         23    2    1    2    0    0 -0.64106911383E+02  0.43359199807E+02 -0.13487162255E+03  0.18088705783E+03  0.92412427881E+02 0.  0.
        -13    1    4    4    0    0 -0.37021141011E+02  0.57284649166E+02 -0.13406816514E+03  0.15042063959E+03  0.00000000000E+00 0. -1.
         13    1    4    4    0    0 -0.27085770373E+02 -0.13925449358E+02 -0.80345741010E+00  0.30466418239E+02  0.00000000000E+00 0.  1.
        -13    1    3    3    0    0  0.51078818677E+02 -0.52721507667E+02 -0.76988690253E+02  0.10637603826E+03  0.00000000000E+00 0.  1.
         13    1    3    3    0    0 -0.44233862507E+01  0.24076439336E+02 -0.48359225846E+01  0.24952503367E+02  0.00000000000E+00 0. -1.
         21    1    1    2  502  501  0.17451478957E+02 -0.14714131476E+02 -0.11231010723E+02  0.25440035077E+02  0.00000000000E+00 0.  1.
<scales pt_clust_5="13000.00000" pt_clust_6="13000.00000" pt_clust_7="13000.00000" pt_clust_8="13000.00000" pt_clust_9="22.82673"></scales>
<clustering>
<clus scale="   22.827">  1  9  2 -1</clus>
<clus scale="   86.917">  7  8 -1 -1</clus>
<clus scale="   92.412">  5  6 -1 -1</clus>
<clus scale="  109.420">  1  7  2 -1</clus>
<clus scale="  113.834">  2  5  1 -1</clus>
</clustering>
</event>
<event>
 9    1  0.1266593E-005  0.1619641E+03  0.7546771E-02  0.1186617E+00
          2   -1    0    0  502    0  0.00000000000E+00  0.00000000000E+00  0.81800416471E+03  0.81800416471E+03  0.00000000000E+00 0. -1.
         -2   -1    0    0    0  501 -0.00000000000E+00 -0.00000000000E+00 -0.76272451460E+02  0.76272451460E+02  0.00000000000E+00 0.  1.
         23    2    1    2    0    0  0.78122381152E+02  0.41552286731E+02  0.46856472031E+02  0.13400032174E+03  0.89055366410E+02 0.  0.
         23    2    1    2    0    0 -0.15159807909E+03  0.14534636468E+02  0.60962991667E+03  0.63453375390E+03  0.88267866733E+02 0.  0.
        -11    1    3    3    0    0  0.17136744439E+02 -0.11742257725E+02 -0.20107442165E+02  0.28911206424E+02  0.00000000000E+00 0.  1.
         11    1    3    3    0    0  0.60985636713E+02  0.53294544456E+02  0.66963914196E+02  0.10508911532E+03  0.00000000000E+00 0. -1.
        -13    1    4    4    0    0 -0.55860889198E+02 -0.33936480059E+02  0.17369546504E+03  0.18558620153E+03  0.00000000000E+00 0.  1.
         13    1    4    4    0    0 -0.95737189891E+02  0.48471116527E+02  0.43593445162E+03  0.44894755237E+03  0.00000000000E+00 0. -1.
         21    1    1    2  502  501  0.73475697936E+02 -0.56086923200E+02  0.85245324552E+02  0.12574254053E+03  0.00000000000E+00 0.  1.
<scales pt_clust_5="13000.00000" pt_clust_6="13000.00000" pt_clust_7="13000.00000" pt_clust_8="13000.00000" pt_clust_9="92.43604"></scales>
<clustering>
<clus scale="   88.268">  7  8 -1 -1</clus>
<clus scale="   89.055">  5  6 -1 -1</clus>
<clus scale="   92.436">  2  9  1 -1</clus>
<clus scale="  161.532">  1  7  2 -1</clus>
<clus scale="  161.532">  1  5  2 -1</clus>
</clustering>
</event>
<event>
 9    1  0.1266593E-005  0.1009353E+03  0.7546771E-02  0.1278832E+00
         -1   -1    0    0    0  501 -0.00000000000E+00  0.00000000000E+00  0.37142853075E+02  0.37142853075E+02  0.00000000000E+00 0.  1.
          1   -1    0    0  502    0  0.00000000000E+00 -0.00000000000E+00 -0.40259606713E+03  0.40259606713E+03  0.00000000000E+00 0. -1.
         23    2    1    2    0    0 -0.22899738038E+02  0.84747574395E+01 -0.93488603534E+02  0.13343184845E+03  0.92020213400E+02 0.  0.
         23    2    1    2    0    0  0.29372804149E+02 -0.39348206447E+02 -0.23649699216E+03  0.25884105875E+03  0.93042051888E+02 0.  0.
        -13    1    3    3    0    0 -0.32576998791E+01  0.20846891957E+02 -0.10529496143E+03  0.10738824151E+03  0.00000000000E+00 0.  1.
         13    1    3    3    0    0 -0.19642038159E+02 -0.12372134518E+02  0.11806357895E+02  0.26043606938E+02  0.00000000000E+00 0. -1.
        -13    1    4    4    0    0  0.45546391863E+02 -0.18445486569E+02 -0.22450221299E+03  0.22981721743E+03  0.00000000000E+00 0. -1.
         13    1    4    4    0    0 -0.16173587713E+02 -0.20902719878E+02 -0.11994779164E+02  0.29023841321E+02  0.00000000000E+00 0.  1.
         21    1    1    2  502  501 -0.64730661115E+01  0.30873449007E+02 -0.35467618367E+02  0.47466013011E+02  0.00000000000E+00 0.  1.
<scales pt_clust_5="13000.00000" pt_clust_6="13000.00000" pt_clust_7="13000.00000" pt_clust_8="13000.00000" pt_clust_9="31.54474"></scales>
<clustering>
<clus scale="   31.545">  1  9  2 -1</clus>
<clus scale="   92.020">  5  6 -1 -1</clus>
<clus scale="   93.042">  7  8 -1 -1</clus>
<clus scale="   99.994">  1  5  2 -1</clus>
<clus scale="  100.935">  2  5  1 -1</clus>
</clustering>
</event>
<event>
 9    1  0.1266593E-005  0.1245800E+03  0.7546771E-02  0.1242238E+00
         -1   -1    0    0    0  501 -0.00000000000E+00  0.00000000000E+00  0.29292552564E+02  0.29292552564E+02  0.00000000000E+00 0.  1.
          1   -1    0    0  502    0  0.00000000000E+00 -0.00000000000E+00 -0.72627352782E+03  0.72627352782E+03  0.00000000000E+00 0. -1.
         23    2    1    2    0    0 -0.70903348302E+02  0.22298462029E+02 -0.25775016863E+03  0.28977863547E+03  0.10959927890E+03 0.  0.
         23    2    1    2    0    0  0.52814803586E+02 -0.75671023220E+01 -0.42592987578E+03  0.43893370830E+03  0.91650841171E+02 0.  0.
        -11    1    3    3    0    0  0.22589379090E+02 -0.18686137598E+02 -0.43558766730E+02  0.52505408722E+02  0.00000000000E+00 0.  1.
         11    1    3    3    0    0 -0.93492727392E+02  0.40984599627E+02 -0.21419140190E+03  0.23727322674E+03  0.00000000000E+00 0. -1.
        -13    1    4    4    0    0  0.36466399628E+02  0.37643617550E+02 -0.15111993534E+03  0.15995022695E+03  0.00000000000E+00 0.  1.
         13    1    4    4    0    0  0.16348403958E+02 -0.45210719872E+02 -0.27480994044E+03  0.27898348135E+03  0.00000000000E+00 0. -1.
         21    1    1    2  502  501  0.18088544716E+02 -0.14731359707E+02 -0.13300930845E+02  0.26853736614E+02  0.00000000000E+00 0.  1.
<scales pt_clust_5="13000.00000" pt_clust_6="13000.00000" pt_clust_7="13000.00000" pt_clust_8="13000.00000" pt_clust_9="23.32827"></scales>
<clustering>
<clus scale="   23.328">  1  9  2 -1</clus>
<clus scale="   91.651">  7  8 -1 -1</clus>
<clus scale="  109.124">  2  7  1 -1</clus>
<clus scale="  109.599">  5  6 -1 -1</clus>
<clus scale="  109.124">  2  5  1 -1</clus>
</clustering>
</event>
<event>
 9    1  0.1266593E-005  0.1780952E+03  0.7546771E-02  0.1169732E+00
         -1   -1    0    0    0  501 -0.00000000000E+00  0.00000000000E+00  0.14169471816E+03  0.14169471816E+03  0.00000000000E+00 0.  1.
          1   -1    0    0  502    0  0.00000000000E+00 -0.00000000000E+00 -0.32641296389E+03  0.32641296389E+03  0.00000000000E+00 0. -1.
         23    2    1    2    0    0  0.13100790334E+03  0.48806521344E+01 -0.78127040191E+00  0.15977333276E+03  0.91323687911E+02 0.  0.
         23    2    1    2    0    0 -0.16162979666E+03 -0.24598600489E+02 -0.19510381669E+03  0.27023978035E+03  0.90745563431E+02 0.  0.
        -11    1    4    4    0    0 -0.24516301922E+02  0.30270185071E+02 -0.34215806384E+02  0.51846451862E+02  0.00000000000E+00 0. -1.
         11    1    4    4    0    0 -0.13711349474E+03 -0.54868785560E+02 -0.16088801031E+03  0.21839332849E+03  0.00000000000E+00 0.  1.
        -11    1    3    3    0    0  0.75266947098E-01  0.20698685409E+02  0.16882977572E+02  0.26710974795E+02  0.00000000000E+00 0.  1.
         11    1    3    3    0    0  0.13093263640E+03 -0.15818033275E+02 -0.17664247974E+02  0.13306235797E+03  0.00000000000E+00 0. -1.
         21    1    1    2  502  501  0.30621893313E+02  0.19717948355E+02  0.11166841360E+02  0.38094568948E+02  0.00000000000E+00 0. -1.
<scales pt_clust_5="13000.00000" pt_clust_6="13000.00000" pt_clust_7="13000.00000" pt_clust_8="13000.00000" pt_clust_9="36.42112"></scales>
<clustering>
<clus scale="   36.421">  1  9  2 -1</clus>
<clus scale="   90.746">  5  6 -1 -1</clus>
<clus scale="   91.324">  7  8 -1 -1</clus>
<clus scale="  177.799">  2  5  1 -1</clus>
<clus scale="  177.799">  2  5  1 -1</clus>
</clustering>
</event>
<event>
 9    1  0.1266593E-005  0.1008208E+03  0.7546771E-02  0.1279571E+00
         -1   -1    0    0    0  501 -0.00000000000E+00  0.00000000000E+00  0.23855801817E+03  0.23855801817E+03  0.00000000000E+00 0.  1.
          1   -1    0    0  502    0  0.00000000000E+00 -0.00000000000E+00 -0.11002451880E+03  0.11002451880E+03  0.00000000000E+00 0. -1.
         23    2    1    2    0    0 -0.33463697590E+02 -0.53406443747E+00  0.16268294446E+02  0.95097986948E+02  0.87514944073E+02 0.  0.
         23    2    1    2    0    0  0.54068372815E+02  0.13230707134E+02 -0.29581566954E+02  0.10958783682E+03  0.89643651901E+02 0.  0.
        -13    1    3    3    0    0 -0.49650278671E+02  0.19527997129E+02 -0.14178518271E+02  0.55204376858E+02  0.00000000000E+00 0.  1.
         13    1    3    3    0    0  0.16186581080E+02 -0.20062061566E+02  0.30446812717E+02  0.39893610090E+02  0.00000000000E+00 0. -1.
        -13    1    4    4    0    0 -0.17409715419E+02 -0.18482835675E+02  0.15095695049E+01  0.25436041470E+02  0.00000000000E+00 0.  1.
         13    1    4    4    0    0  0.71478088234E+02  0.31713542809E+02 -0.31091136459E+02  0.84151795354E+02  0.00000000000E+00 0. -1.
         21    1    1    2  502  501 -0.20604675225E+02 -0.12696642696E+02  0.14184677188E+03  0.14389671320E+03  0.00000000000E+00 0.  1.
<scales pt_clust_5="13000.00000" pt_clust_6="13000.00000" pt_clust_7="13000.00000" pt_clust_8="13000.00000" pt_clust_9="24.20243"></scales>
<clustering>
<clus scale="   24.202">  1  9  2 -1</clus>
<clus scale="   87.515">  5  6 -1 -1</clus>
<clus scale="   89.644">  7  8 -1 -1</clus>
<clus scale="   98.933">  1  5  2 -1</clus>
<clus scale="  100.821">  2  5  1 -1</clus>
</clustering>
</event>
<event>
 9    1  0.1266593E-005  0.1081854E+03  0.7546771E-02  0.1264061E+00
          1   -1    0    0  502    0  0.00000000000E+00  0.00000000000E+00  0.33113355337E+03  0.33113355337E+03  0.00000000000E+00 0. -1.
         -1   -1    0    0    0  501 -0.00000000000E+00 -0.00000000000E+00 -0.49201475166E+02  0.49201475166E+02  0.00000000000E+00 0.  1.
         23    2    1    2    0    0 -0.45013610985E+02  0.23872882969E+02  0.11997985182E+03  0.15905247962E+03  0.91139380714E+02 0.  0.
         23    2    1    2    0    0  0.67722385718E+02 -0.22449199161E+01  0.14873797594E+03  0.18725206771E+03  0.91372808776E+02 0.  0.
        -11    1    3    3    0    0  0.15136106228E+02  0.36702494512E+02  0.28709341009E+02  0.48993888153E+02  0.00000000000E+00 0.  1.
         11    1    3    3    0    0 -0.60149717213E+02 -0.12829611543E+02  0.91270510809E+02  0.11005859147E+03  0.00000000000E+00 0. -1.
        -13    1    4    4    0    0  0.15941636871E+02 -0.36454119199E+02  0.10222750838E+03  0.10969732022E+03  0.00000000000E+00 0. -1.
         13    1    4    4    0    0  0.51780748848E+02  0.34209199283E+02  0.46510467556E+02  0.77554747496E+02  0.00000000000E+00 0.  1.
         21    1    1    2  502  501 -0.22708774734E+02 -0.21627963053E+02  0.13214250445E+02  0.34030481198E+02  0.00000000000E+00 0.  1.
<scales pt_clust_5="13000.00000" pt_clust_6="13000.00000" pt_clust_7="13000.00000" pt_clust_8="13000.00000" pt_clust_9="31.36012"></scales>
<clustering>
<clus scale="   31.360">  2  9  1 -1</clus>
<clus scale="   91.139">  5  6 -1 -1</clus>
<clus scale="   91.373">  7  8 -1 -1</clus>
<clus scale="  107.988">  2  5  1 -1</clus>
<clus scale="  108.185">  1  5  2 -1</clus>
</clustering>
</event>
<event>
 9    1  0.1266593E-005  0.1005022E+03  0.7546771E-02  0.1284689E+00
          1   -1    0    0  502    0  0.00000000000E+00  0.00000000000E+00  0.14919624245E+03  0.14919624245E+03  0.00000000000E+00 0. -1.
         -1   -1    0    0    0  501 -0.00000000000E+00 -0.00000000000E+00 -0.13122275945E+03  0.13122275945E+03  0.00000000000E+00 0.  1.
         23    2    1    2    0    0  0.67050016661E+00 -0.11890533740E+02 -0.24177884532E+02  0.10395542674E+03  0.10040082812E+03 0.  0.
         23    2    1    2    0    0  0.39066177572E+01 -0.81436180521E+01  0.87781177476E+02  0.12641962644E+03  0.90525171380E+02 0.  0.
        -11    1    4    4    0    0  0.31189510372E+00  0.36171623866E+02  0.69494211213E+02  0.78344936300E+02  0.00000000000E+00 0.  1.
         11    1    4    4    0    0  0.35947226535E+01 -0.44315241918E+02  0.18286966262E+02  0.48074690142E+02  0.00000000000E+00 0. -1.
        -13    1    3    3    0    0  0.41971474931E+02 -0.18472301916E+02 -0.38368809948E+02  0.59791272129E+02  0.00000000000E+00 0.  1.
         13    1    3    3    0    0 -0.41300974764E+02  0.65817681758E+01  0.14190925417E+02  0.44164154616E+02  0.00000000000E+00 0. -1.
         21    1    1    2  502  501 -0.45771179238E+01  0.20034151792E+02 -0.45629809947E+02  0.50043948708E+02  0.00000000000E+00 0.  1.
<scales pt_clust_5="13000.00000" pt_clust_6="13000.00000" pt_clust_7="13000.00000" pt_clust_8="13000.00000" pt_clust_9="20.55036"></scales>
<clustering>
<clus scale="   20.550">  2  9  1 -1</clus>
<clus scale="   90.525">  5  6 -1 -1</clus>
<clus scale="   90.638">  1  5  2 -1</clus>
<clus scale="  100.401">  7  8 -1 -1</clus>
<clus scale="   90.638">  1  5  2 -1</clus>
</clustering>
</event>
<event>
 9    1  0.1266593E-005  0.9607208E+02  0.7546771E-02  0.1290256E+00
          1   -1    0    0  502    0  0.00000000000E+00  0.00000000000E+00  0.71233602864E+02  0.71233602864E+02  0.00000000000E+00 0. -1.
         -1   -1    0    0    0  501 -0.00000000000E+00 -0.00000000000E+00 -0.18315093094E+03  0.18315093094E+03  0.00000000000E+00 0.  1.
         23    2    1    2    0    0 -0.14947498419E+02  0.47885207972E+01 -0.53403109808E+02  0.10505577732E+03  0.89098072764E+02 0.  0.
         23    2    1    2    0    0  0.37835615875E+02  0.11230648887E+02 -0.20322859385E+02  0.10201005393E+03  0.91844276832E+02 0.  0.
        -11    1    3    3    0    0 -0.85561404083E+01 -0.29416028848E+02  0.10423853106E+02  0.32359959911E+02  0.00000000000E+00 0. -1.
         11    1    3    3    0    0 -0.63913580102E+01  0.34204549645E+02 -0.63826962914E+02  0.72695817407E+02  0.00000000000E+00 0.  1.
        -13    1    4    4    0    0 -0.21247494064E+02  0.29392724093E+02  0.19177852031E+01  0.36318950063E+02  0.00000000000E+00 0.  1.
         13    1    4    4    0    0  0.59083109939E+02 -0.18162075206E+02 -0.22240644588E+02  0.65691103869E+02  0.00000000000E+00 0. -1.
         21    1    1    2  502  501 -0.22888117457E+02 -0.16019169685E+02 -0.38191358883E+02  0.47318702554E+02  0.00000000000E+00 0. -1.
<scales pt_clust_5="13000.00000" pt_clust_6="13000.00000" pt_clust_7="13000.00000" pt_clust_8="13000.00000" pt_clust_9="27.93707"></scales>
<clustering>
<clus scale="   27.937">  2  9  1 -1</clus>
<clus scale="   89.098">  5  6 -1 -1</clus>
<clus scale="   91.844">  7  8 -1 -1</clus>
<clus scale="   93.450">  2  5  1 -1</clus>
<clus scale="   96.072">  1  5  2 -1</clus>
</clustering>
</event>
<event>
 9    1  0.3213028E-005  0.1031787E+03  0.7546771E-02  0.1280036E+00
          1   -1    0    0  502    0  0.00000000000E+00  0.00000000000E+00  0.27122194935E+03  0.27122194935E+03  0.00000000000E+00 0. -1.
         -1   -1    0    0    0  501 -0.00000000000E+00 -0.00000000000E+00 -0.12168829375E+03  0.12168829375E+03  0.00000000000E+00 0.  1.
         23    2    1    2    0    0 -0.35967292081E+02 -0.96186272707E+01 -0.58115936926E+02  0.11459411118E+03  0.91477779281E+02 0.  0.
         23    2    1    2    0    0 -0.33325373227E+01 -0.20647896187E+01  0.21325844071E+03  0.23693451766E+03  0.10316701974E+03 0.  0.
        -11    1    4    4    0    0 -0.17007636649E+02 -0.48509152736E+02  0.79380500100E+02  0.94570933165E+02  0.00000000000E+00 0.  1.
         11    1    4    4    0    0  0.13675099327E+02  0.46444363117E+02  0.13387794061E+03  0.14236358449E+03  0.00000000000E+00 0. -1.
        -13    1    3    3    0    0  0.17109373904E+02 -0.26084321370E+02 -0.49280600150E+02  0.58324094917E+02  0.00000000000E+00 0. -1.
         13    1    3    3    0    0 -0.53076665985E+02  0.16465694099E+02 -0.88353367753E+01  0.56270016263E+02  0.00000000000E+00 0.  1.
         21    1    1    2  502  501  0.39299829404E+02  0.11683416889E+02 -0.56088481836E+01  0.41381614267E+02  0.00000000000E+00 0. -1.
<scales pt_clust_5="13000.00000" pt_clust_6="13000.00000" pt_clust_7="13000.00000" pt_clust_8="13000.00000" pt_clust_9="40.99974"></scales>
<clustering>
<clus scale="   41.000">  2  9  1 -1</clus>
<clus scale="   91.478">  7  8 -1 -1</clus>
<clus scale="   91.491">  2  7  1 -1</clus>
<clus scale="  103.167">  5  6 -1 -1</clus>
<clus scale="  103.179">  1  5  2 -1</clus>
</clustering>
</event>
<event>
 9    1  0.1266593E-005  0.9648858E+02  0.7546771E-02  0.1290644E+00
         -1   -1    0    0    0  501 -0.00000000000E+00  0.00000000000E+00  0.98773065850E+02  0.98773065850E+02  0.00000000000E+00 0.  1.
          1   -1    0    0  502    0  0.00000000000E+00 -0.00000000000E+00 -0.25042433649E+03  0.25042433649E+03  0.00000000000E+00 0. -1.
         23    2    1    2    0    0  0.32499859095E+02 -0.50201114087E+01 -0.51044453179E+02  0.10874862526E+03  0.90217985656E+02 0.  0.
         23    2    1    2    0    0  0.49744692764E+02 -0.17017529529E+02 -0.11012497933E+03  0.15477252988E+03  0.95199234056E+02 0.  0.
        -11    1    4    4    0    0  0.20517074152E+02  0.39812133694E+02 -0.47899721491E+02  0.65576974923E+02  0.00000000000E+00 0.  1.
         11    1    4    4    0    0  0.29227618611E+02 -0.56829663223E+02 -0.62225257834E+02  0.89195554958E+02  0.00000000000E+00 0. -1.
        -13    1    3    3    0    0 -0.30705280210E+02  0.80421616712E+00 -0.70352978799E+01  0.31511210904E+02  0.00000000000E+00 0.  1.
         13    1    3    3    0    0  0.63205139304E+02 -0.58243275758E+01 -0.44009155299E+02  0.77237414356E+02  0.00000000000E+00 0. -1.
         21    1    1    2  502  501 -0.82244551858E+02  0.22037640937E+02  0.95181618666E+01  0.85676247197E+02  0.00000000000E+00 0.  1.
<scales pt_clust_5="13000.00000" pt_clust_6="13000.00000" pt_clust_7="13000.00000" pt_clust_8="13000.00000" pt_clust_9="85.14590"></scales>
<clustering>
<clus scale="   85.146">  1  9  2 -1</clus>
<clus scale="   90.218">  7  8 -1 -1</clus>
<clus scale="   91.577">  1  7  2 -1</clus>
<clus scale="   95.199">  5  6 -1 -1</clus>
<clus scale="   96.489">  2  5  1 -1</clus>
</clustering>
</event>
<event>
 9    1  0.1513005E-005  0.1155969E+03  0.7546771E-02  0.1250999E+00
         -1   -1    0    0    0  501 -0.00000000000E+00  0.00000000000E+00  0.68838335343E+02  0.68838335343E+02  0.00000000000E+00 0.  1.
          1   -1    0    0  502    0  0.00000000000E+00 -0.00000000000E+00 -0.38512543300E+03  0.38512543300E+03  0.00000000000E+00 0. -1.
         23    2    1    2    0    0 -0.15360010963E+02  0.78223033395E+02 -0.24673907118E+02  0.12292238683E+03  0.90257069539E+02 0.  0.
         23    2    1    2    0    0 -0.12179557197E+02 -0.68302002844E+02 -0.27341166048E+03  0.29657182453E+03  0.91582781213E+02 0.  0.
        -11    1    3    3    0    0 -0.38139763796E+02  0.86684315425E+02 -0.11839829990E+02  0.95441048283E+02  0.00000000000E+00 0.  1.
         11    1    3    3    0    0  0.22779752833E+02 -0.84612820307E+01 -0.12834077127E+02  0.27481338549E+02  0.00000000000E+00 0. -1.
        -13    1    4    4    0    0 -0.31824898169E+02  0.19593234373E+01 -0.35460560364E+02  0.47687675904E+02  0.00000000000E+00 0.  1.
         13    1    4    4    0    0  0.19645340971E+02 -0.70261326281E+02 -0.23795110012E+03  0.24888414863E+03  0.00000000000E+00 0. -1.
         21    1    1    2  502  501  0.27539568160E+02 -0.99210305507E+01 -0.18201530056E+02  0.34469556975E+02  0.00000000000E+00 0.  1.
<scales pt_clust_5="13000.00000" pt_clust_6="13000.00000" pt_clust_7="13000.00000" pt_clust_8="13000.00000" pt_clust_9="29.27208"></scales>
<clustering>
<clus scale="   29.272">  1  9  2 -1</clus>
<clus scale="   90.257">  5  6 -1 -1</clus>
<clus scale="   91.583">  7  8 -1 -1</clus>
<clus scale="  114.549">  1  5  2 -1</clus>
<clus scale="  115.597">  2  5  1 -1</clus>
</clustering>
</event>
<event>
 9    1  0.1266593E-005  0.2331238E+03  0.7546771E-02  0.1153742E+00
         -1   -1    0    0    0  501 -0.00000000000E+00  0.00000000000E+00  0.12453922220E+03  0.12453922220E+03  0.00000000000E+00 0.  1.
          1   -1    0    0  502    0  0.00000000000E+00 -0.00000000000E+00 -0.71661147093E+03  0.71661147093E+03  0.00000000000E+00 0. -1.
         23    2    1    2    0    0  0.10438205197E+02  0.69450525891E+02 -0.30323257166E+02  0.11882866667E+03  0.90930855176E+02 0.  0.
         23    2    1    2    0    0  0.26742129491E+02 -0.24513241974E+03 -0.40975834906E+03  0.48706119138E+03  0.92312809663E+02 0.  0.
        -11    1    3    3    0    0  0.38661930030E+02  0.48604171024E+02  0.12618616395E+02  0.63374598652E+02  0.00000000000E+00 0.  1.
         11    1    3    3    0    0 -0.28223724833E+02  0.20846354867E+02 -0.42941873562E+02  0.55454068018E+02  0.00000000000E+00 0. -1.
        -13    1    4    4    0    0  0.19094350995E+02 -0.35920794005E+02 -0.13885880682E+03  0.14469507909E+03  0.00000000000E+00 0.  1.
         13    1    4    4    0    0  0.76477784959E+01 -0.20921162573E+03 -0.27089954224E+03  0.34236611229E+03  0.00000000000E+00 0. -1.
         21    1    1    2  502  501 -0.37180334688E+02  0.17568189384E+03 -0.15199064250E+03  0.23526083508E+03  0.00000000000E+00 0.  1.
<scales pt_clust_5="13000.00000" pt_clust_6="13000.00000" pt_clust_7="13000.00000" pt_clust_8="13000.00000" pt_clust_9="214.06787"></scales>
<clustering>
<clus scale="   90.931">  5  6 -1 -1</clus>
<clus scale="   92.313">  7  8 -1 -1</clus>
<clus scale="  114.895">  1  5  2 -1</clus>
<clus scale="  214.068">  1  9  2 -1</clus>
<clus scale="  233.124">  2  5  1 -1</clus>
</clustering>
</event>
<event>
 9    1  0.1266593E-005  0.1694884E+03  0.7546771E-02  0.1178818E+00
          3   -1    0    0  502    0  0.00000000000E+00  0.00000000000E+00  0.15312997340E+03  0.15312997340E+03  0.00000000000E+00 0. -1.
         -3   -1    0    0    0  501 -0.00000000000E+00 -0.00000000000E+00 -0.28367849736E+03  0.28367849736E+03  0.00000000000E+00 0.  1.
         23    2    1    2    0    0 -0.12131333334E+03  0.10812124804E+03 -0.23051756444E+02  0.18660454055E+03  0.88784807011E+02 0.  0.
         23    2    1    2    0    0  0.78856781680E+02 -0.97899156284E+02 -0.26161194855E+02  0.15788640576E+03  0.91875307841E+02 0.  0.
        -13    1    3    3    0    0 -0.77628175619E+02  0.11261165753E+03 -0.34823321008E+02  0.14113887752E+03  0.00000000000E+00 0.  1.
         13    1    3    3    0    0 -0.43685157724E+02 -0.44904094921E+01  0.11771564564E+02  0.45465663034E+02  0.00000000000E+00 0. -1.
        -13    1    4    4    0    0  0.23450556871E+02 -0.22696428990E+02 -0.51618835470E+02  0.61070129210E+02  0.00000000000E+00 0.  1.
         13    1    4    4    0    0  0.55406224809E+02 -0.75202727295E+02  0.25457640615E+02  0.96816276554E+02  0.00000000000E+00 0. -1.
         21    1    1    2  502  501  0.42456551663E+02 -0.10222091754E+02 -0.81335572661E+02  0.92317524442E+02  0.00000000000E+00 0.  1.
<scales pt_clust_5="13000.00000" pt_clust_6="13000.00000" pt_clust_7="13000.00000" pt_clust_8="13000.00000" pt_clust_9="43.66978"></scales>
<clustering>
<clus scale="   43.670">  2  9  1 -1</clus>
<clus scale="   88.785">  5  6 -1 -1</clus>
<clus scale="   91.875">  7  8 -1 -1</clus>
<clus scale="  167.833">  2  5  1 -1</clus>
<clus scale="  169.488">  1  5  2 -1</clus>
</clustering>
</event>
<event>
 9    1  0.1266593E-005  0.9638353E+02  0.7546771E-02  0.1288840E+00
          1   -1    0    0  502    0  0.00000000000E+00  0.00000000000E+00  0.10923553861E+03  0.10923553861E+03  0.00000000000E+00 0. -1.
         -1   -1    0    0    0  501 -0.00000000000E+00 -0.00000000000E+00 -0.36796991864E+03  0.36796991864E+03  0.00000000000E+00 0.  1.
         23    2    1    2    0    0  0.16341917609E+02 -0.23501021139E+02 -0.23278594400E+03  0.25144172119E+03  0.90632704719E+02 0.  0.
         23    2    1    2    0    0  0.16803074771E+02  0.25196355584E+02  0.73050278251E+02  0.12135008701E+03  0.92045102028E+02 0.  0.
        -11    1    4    4    0    0 -0.22715709577E+02 -0.84898852114E+01 -0.76131696348E+01  0.25417355574E+02  0.00000000000E+00 0.  1.
         11    1    4    4    0    0  0.39518784348E+02  0.33686240796E+02  0.80663447886E+02  0.95932731433E+02  0.00000000000E+00 0. -1.
        -11    1    3    3    0    0 -0.10222034815E+02 -0.36565821854E+02 -0.21174720791E+03  0.21512421849E+03  0.00000000000E+00 0.  1.
         11    1    3    3    0    0  0.26563952424E+02  0.13064800715E+02 -0.21038736096E+02  0.36317502703E+02  0.00000000000E+00 0. -1.
         21    1    1    2  502  501 -0.33144992380E+02 -0.16953344450E+01 -0.98998714285E+02  0.10441364905E+03  0.00000000000E+00 0.  1.
<scales pt_clust_5="13000.00000" pt_clust_6="13000.00000" pt_clust_7="13000.00000" pt_clust_8="13000.00000" pt_clust_9="33.18832"></scales>
<clustering>
<clus scale="   33.188">  2  9  1 -1</clus>
<clus scale="   90.633">  7  8 -1 -1</clus>
<clus scale="   92.045">  5  6 -1 -1</clus>
<clus scale="   95.036">  2  7  1 -1</clus>
<clus scale="   96.384">  1  5  2 -1</clus>
</clustering>
</event>
<event>
 9    1  0.1266593E-005  0.1040096E+03  0.7546771E-02  0.1275340E+00
         -2   -1    0    0    0  501 -0.00000000000E+00  0.00000000000E+00  0.12252757698E+03  0.12252757698E+03  0.00000000000E+00 0.  1.
          2   -1    0    0  502    0  0.00000000000E+00 -0.00000000000E+00 -0.22712326050E+03  0.22712326050E+03  0.00000000000E+00 0. -1.
         23    2    1    2    0    0 -0.30669412684E+02 -0.33089171635E+02 -0.51711792739E+02  0.11494198774E+03  0.92206533844E+02 0.  0.
         23    2    1    2    0    0  0.12867247009E+02  0.21620073007E+02 -0.12396098714E+03  0.16054409427E+03  0.98869035939E+02 0.  0.
        -11    1    3    3    0    0  0.29388045307E+02  0.33661345939E+01 -0.36160268585E+01  0.29800397972E+02  0.00000000000E+00 0.  1.
         11    1    3    3    0    0 -0.60057457991E+02 -0.36455306229E+02 -0.48095765880E+02  0.85141589768E+02  0.00000000000E+00 0. -1.
        -13    1    4    4    0    0 -0.38426646589E+02  0.13255154301E+02 -0.89182971279E+02  0.98009737525E+02  0.00000000000E+00 0. -1.
         13    1    4    4    0    0  0.51293893598E+02  0.83649187067E+01 -0.34778015864E+02  0.62534356740E+02  0.00000000000E+00 0.  1.
         21    1    1    2  502  501  0.17802165674E+02  0.11469098628E+02  0.71077096367E+02  0.74164755471E+02  0.00000000000E+00 0.  1.
<scales pt_clust_5="13000.00000" pt_clust_6="13000.00000" pt_clust_7="13000.00000" pt_clust_8="13000.00000" pt_clust_9="21.17681"></scales>
<clustering>
<clus scale="   21.177">  1  9  2 -1</clus>
<clus scale="   92.207">  5  6 -1 -1</clus>
<clus scale="   97.698">  1  5  2 -1</clus>
<clus scale="   98.869">  7  8 -1 -1</clus>
<clus scale="  104.010">  2  5  1 -1</clus>
</clustering>
</event>
<event>
 9    1  0.1266593E-005  0.1125848E+03  0.7546771E-02  0.1257442E+00
          4   -1    0    0  502    0  0.00000000000E+00  0.00000000000E+00  0.47694803854E+03  0.47694803854E+03  0.00000000000E+00 0. -1.
         -4   -1    0    0    0  501 -0.00000000000E+00 -0.00000000000E+00 -0.34105050244E+02  0.34105050244E+02  0.00000000000E+00 0.  1.
         23    2    1    2    0    0 -0.55818061663E+02 -0.37938670444E+01  0.15214089659E+03  0.18728939197E+03  0.93810524422E+02 0.  0.
         23    2    1    2    0    0  0.67645995172E+02  0.27243053229E+02  0.22315213167E+03  0.25128775981E+03  0.89613055699E+02 0.  0.
        -11    1    3    3    0    0 -0.19813321062E+02  0.18271919894E+02  0.14108677265E+03  0.14363811530E+03  0.00000000000E+00 0. -1.
         11    1    3    3    0    0 -0.36004740600E+02 -0.22065786939E+02  0.11054123940E+02  0.43651276671E+02  0.00000000000E+00 0.  1.
        -11    1    4    4    0    0 -0.16444597397E+02  0.23745202650E+02  0.82121535331E+02  0.87052891954E+02  0.00000000000E+00 0. -1.
         11    1    4    4    0    0  0.84090592569E+02  0.34978505782E+01  0.14103059633E+03  0.16423486786E+03  0.00000000000E+00 0.  1.
         21    1    1    2  502  501 -0.11827933510E+02 -0.23449186184E+02  0.67549960042E+02  0.72475937010E+02  0.00000000000E+00 0. -1.
<scales pt_clust_5="13000.00000" pt_clust_6="13000.00000" pt_clust_7="13000.00000" pt_clust_8="13000.00000" pt_clust_9="26.26337"></scales>
<clustering>
<clus scale="   26.263">  1  9  2 -1</clus>
<clus scale="   89.613">  7  8 -1 -1</clus>
<clus scale="   93.811">  5  6 -1 -1</clus>
<clus scale="  109.112">  1  7  2 -1</clus>
<clus scale="   26.263">  1  5  2 -1</clus>
</clustering>
</event>
<event>
 9    1  0.1266593E-005  0.2200945E+03  0.7546771E-02  0.1134041E+00
          2   -1    0    0  502    0  0.00000000000E+00  0.00000000000E+00  0.60019014812E+03  0.60019014812E+03  0.00000000000E+00 0. -1.
         -2   -1    0    0    0  501 -0.00000000000E+00 -0.00000000000E+00 -0.14960258534E+03  0.14960258534E+03  0.00000000000E+00 0.  1.
         23    2    1    2    0    0 -0.19296981026E+03  0.11769237167E+03  0.21628856065E+03  0.32659257727E+03  0.93771680393E+02 0.  0.
         23    2    1    2    0    0  0.73306561363E+02 -0.17986744284E+03  0.17079930167E+03  0.27414565418E+03  0.90869628154E+02 0.  0.
        -11    1    4    4    0    0 -0.21610631498E+02 -0.32050055355E+02  0.27421708244E+02  0.47393834251E+02  0.00000000000E+00 0. -1.
         11    1    4    4    0    0  0.94917192861E+02 -0.14781738749E+03  0.14337759343E+03  0.22675181993E+03  0.00000000000E+00 0.  1.
        -13    1    3    3    0    0 -0.95877648324E+02  0.31996384824E+02  0.41990419943E+02  0.10945084493E+03  0.00000000000E+00 0.  1.
         13    1    3    3    0    0 -0.97092161934E+02  0.85695986846E+02  0.17429814070E+03  0.21714173234E+03  0.00000000000E+00 0. -1.
         21    1    1    2  502  501  0.11966324889E+03  0.62175071171E+02  0.63499700458E+02  0.14905450201E+03  0.00000000000E+00 0.  1.
<scales pt_clust_5="13000.00000" pt_clust_6="13000.00000" pt_clust_7="13000.00000" pt_clust_8="13000.00000" pt_clust_9="134.85189"></scales>
<clustering>
<clus scale="   90.870">  5  6 -1 -1</clus>
<clus scale="   93.772">  7  8 -1 -1</clus>
<clus scale="  134.852">  2  9  1 -1</clus>
<clus scale="  218.874">  1  5  2 -1</clus>
<clus scale="  218.874">  1  5  2 -1</clus>
</clustering>
</event>
<event>
 9    1  0.1266593E-005  0.1106200E+03  0.7546771E-02  0.1259921E+00
          2   -1    0    0  502    0  0.00000000000E+00  0.00000000000E+00  0.97597720814E+03  0.97597720814E+03  0.00000000000E+00 0. -1.
         -2   -1    0    0    0  501 -0.00000000000E+00 -0.00000000000E+00 -0.17687489250E+02  0.17687489250E+02  0.00000000000E+00 0.  1.
         23    2    1    2    0    0 -0.16691879053E+02 -0.55861573307E+02  0.30595998388E+03  0.32485424161E+03  0.92301854573E+02 0.  0.
         23    2    1    2    0    0  0.48842579595E+02  0.49941020250E+02  0.49547818940E+03  0.50858833541E+03  0.91015139747E+02 0.  0.
        -11    1    3    3    0    0 -0.54154847570E+02 -0.32718596786E+02  0.15003219552E+03  0.16282786550E+03  0.00000000000E+00 0. -1.
         11    1    3    3    0    0  0.37462968517E+02 -0.23142976521E+02  0.15592778836E+03  0.16202637611E+03  0.00000000000E+00 0.  1.
        -11    1    4    4    0    0 -0.19989955627E+02  0.36749196078E+02  0.24247096214E+03  0.24605338693E+03  0.00000000000E+00 0. -1.
         11    1    4    4    0    0  0.68832535222E+02  0.13191824172E+02  0.25300722726E+03  0.26253494848E+03  0.00000000000E+00 0.  1.
         21    1    1    2  502  501 -0.32150700543E+02  0.59205530570E+01  0.15685154561E+03  0.16022212037E+03  0.00000000000E+00 0.  1.
<scales pt_clust_5="13000.00000" pt_clust_6="13000.00000" pt_clust_7="13000.00000" pt_clust_8="13000.00000" pt_clust_9="32.69129"></scales>
<clustering>
<clus scale="   32.691">  1  9  2 -1</clus>
<clus scale="   91.015">  7  8 -1 -1</clus>
<clus scale="   92.302">  5  6 -1 -1</clus>
<clus scale="  109.549">  1  7  2 -1</clus>
<clus scale="   32.691">  1  5  2 -1</clus>
</clustering>
</event>
<event>
 9    1  0.1266593E-005  0.1018550E+03  0.7546771E-02  0.1276615E+00
          1   -1    0    0  502    0  0.00000000000E+00  0.00000000000E+00  0.48980605680E+03  0.48980605680E+03  0.00000000000E+00 0. -1.
         -1   -1    0    0    0  501 -0.00000000000E+00 -0.00000000000E+00 -0.47831242634E+02  0.47831242634E+02  0.00000000000E+00 0.  1.
         23    2    1    2    0    0  0.30410290344E+02  0.54426040480E+02  0.10391986186E+03  0.15112565817E+03  0.90292010869E+02 0.  0.
         23    2    1    2    0    0  0.11561401499E+01 -0.43363765936E+02  0.33845139446E+03  0.35306062307E+03  0.90668099639E+02 0.  0.
        -13    1    3    3    0    0 -0.20563997352E+02 -0.23996056287E+01 -0.17372543996E+01  0.20776288097E+02  0.00000000000E+00 0. -1.
         13    1    3    3    0    0  0.50974287696E+02  0.56825646109E+02  0.10565711626E+03  0.13034937007E+03  0.00000000000E+00 0.  1.
        -13    1    4    4    0    0  0.25567209359E+02  0.18062806129E+02  0.15331692410E+03  0.15648011495E+03  0.00000000000E+00 0.  1.
         13    1    4    4    0    0 -0.24411069209E+02 -0.61426572064E+02  0.18513447036E+03  0.19658050812E+03  0.00000000000E+00 0. -1.
         21    1    1    2  502  501 -0.31566430494E+02 -0.11062274545E+02 -0.39644215186E+00  0.33451018200E+02  0.00000000000E+00 0. -1.
<scales pt_clust_5="13000.00000" pt_clust_6="13000.00000" pt_clust_7="13000.00000" pt_clust_8="13000.00000" pt_clust_9="33.44867"></scales>
<clustering>
<clus scale="   33.449">  2  9  1 -1</clus>
<clus scale="   90.292">  5  6 -1 -1</clus>
<clus scale="   90.668">  7  8 -1 -1</clus>
<clus scale="  101.520">  2  5  1 -1</clus>
<clus scale="  101.855">  1  5  2 -1</clus>
</clustering>
</event>
<event>
 9    1  0.1266593E-005  0.9478802E+02  0.7546771E-02  0.1291861E+00
          1   -1    0    0  502    0  0.00000000000E+00  0.00000000000E+00  0.27604092557E+03  0.27604092557E+03  0.00000000000E+00 0. -1.
         -1   -1    0    0    0  501 -0.00000000000E+00 -0.00000000000E+00 -0.29031744444E+03  0.29031744444E+03  0.00000000000E+00 0.  1.
         23    2    1    2    0    0  0.12322231652E+01 -0.60167562001E+01  0.60637308765E+02  0.11013218078E+03  0.91730552710E+02 0.  0.
         23    2    1    2    0    0 -0.32530432797E+02  0.33606458663E+01  0.17709000710E+03  0.20227232418E+03  0.92107000349E+02 0.  0.
        -13    1    3    3    0    0 -0.10518232974E+02 -0.43831514748E+02  0.53394180390E+02  0.69876844587E+02  0.00000000000E+00 0. -1.
         13    1    3    3    0    0  0.11750456139E+02  0.37814758548E+02  0.72431283749E+01  0.40255336195E+02  0.00000000000E+00 0.  1.
        -13    1    4    4    0    0  0.15319625873E+02  0.33524169841E+02  0.42363848663E+02  0.56153865174E+02  0.00000000000E+00 0.  1.
         13    1    4    4    0    0 -0.47850058670E+02 -0.30163523975E+02  0.13472615844E+03  0.14611845900E+03  0.00000000000E+00 0. -1.
         21    1    1    2  502  501  0.31298209632E+02  0.26561103337E+01 -0.25200383475E+03  0.25395386505E+03  0.00000000000E+00 0.  1.
<scales pt_clust_5="13000.00000" pt_clust_6="13000.00000" pt_clust_7="13000.00000" pt_clust_8="13000.00000" pt_clust_9="31.41071"></scales>
<clustering>
<clus scale="   31.411">  2  9  1 -1</clus>
<clus scale="   91.731">  5  6 -1 -1</clus>
<clus scale="   92.107">  7  8 -1 -1</clus>
<clus scale="   94.422">  2  5  1 -1</clus>
<clus scale="   94.788">  1  5  2 -1</clus>
</clustering>
</event>
<event>
 9    1  0.1266593E-005  0.1157567E+03  0.7546771E-02  0.1251997E+00
         -2   -1    0    0    0  501 -0.00000000000E+00  0.00000000000E+00  0.11611112554E+03  0.11611112554E+03  0.00000000000E+00 0.  1.
          2   -1    0    0  502    0  0.00000000000E+00 -0.00000000000E+00 -0.72176643133E+03  0.72176643133E+03  0.00000000000E+00 0. -1.
         23    2    1    2    0    0 -0.86538766562E+01  0.71034086513E+02 -0.16714746488E+02  0.11566780674E+03  0.89324843903E+02 0.  0.
         23    2    1    2    0    0  0.28704230319E+02 -0.60735872759E+02 -0.64838957674E+03  0.65863101498E+03  0.94196558289E+02 0.  0.
        -11    1    3    3    0    0 -0.40354784969E+02  0.67269423943E+02  0.23574953962E+01  0.78480837483E+02  0.00000000000E+00 0.  1.
         11    1    3    3    0    0  0.31700908313E+02  0.37646625709E+01 -0.19072241885E+02  0.37186969259E+02  0.00000000000E+00 0. -1.
        -11    1    4    4    0    0  0.75709530498E+00 -0.81099827569E+02 -0.45926068132E+03  0.46636694634E+03  0.00000000000E+00 0. -1.
         11    1    4    4    0    0  0.27947135014E+02  0.20363954810E+02 -0.18912889542E+03  0.19226406865E+03  0.00000000000E+00 0.  1.
         21    1    1    2  502  501 -0.20050353663E+02 -0.10298213755E+02  0.59449017435E+02  0.63578735144E+02  0.00000000000E+00 0.  1.
<scales pt_clust_5="13000.00000" pt_clust_6="13000.00000" pt_clust_7="13000.00000" pt_clust_8="13000.00000" pt_clust_9="22.54041"></scales>
<clustering>
<clus scale="   22.540">  1  9  2 -1</clus>
<clus scale="   89.325">  5  6 -1 -1</clus>
<clus scale="   94.197">  7  8 -1 -1</clus>
<clus scale="  111.828">  1  5  2 -1</clus>
<clus scale="  115.757">  2  5  1 -1</clus>
</clustering>
</event>
<event>
 9    1  0.1266593E-005  0.1351862E+03  0.7546771E-02  0.1230843E+00
          1   -1    0    0  502    0  0.00000000000E+00  0.00000000000E+00  0.47433614269E+03  0.47433614269E+03  0.00000000000E+00 0. -1.
         -1   -1    0    0    0  501 -0.00000000000E+00 -0.00000000000E+00 -0.31618575309E+03  0.31618575309E+03  0.00000000000E+00 0.  1.
         23    2    1    2    0    0 -0.64592076577E+02 -0.68340694444E+01  0.18010648148E+03  0.21252395775E+03  0.92245580302E+02 0.  0.
         23    2    1    2    0    0  0.29393888238E+02  0.52893082690E+02  0.25793721607E+03  0.29216475417E+03  0.12315420123E+03 0.  0.
        -13    1    3    3    0    0 -0.94599287605E+01 -0.40358663148E+02  0.10842439163E+03  0.11607825224E+03  0.00000000000E+00 0. -1.
         13    1    3    3    0    0 -0.55132147816E+02  0.33524593704E+02  0.71682089849E+02  0.96445705508E+02  0.00000000000E+00 0.  1.
        -13    1    4    4    0    0 -0.25310955368E+02  0.71213557925E+02  0.11080127996E+03  0.13412285016E+03  0.00000000000E+00 0.  1.
         13    1    4    4    0    0  0.54704843605E+02 -0.18320475234E+02  0.14713593612E+03  0.15804190401E+03  0.00000000000E+00 0. -1.
         21    1    1    2  502  501  0.35198188339E+02 -0.46059013246E+02 -0.27989330795E+03  0.28583318387E+03  0.00000000000E+00 0.  1.
<scales pt_clust_5="13000.00000" pt_clust_6="13000.00000" pt_clust_7="13000.00000" pt_clust_8="13000.00000" pt_clust_9="57.96848"></scales>
<clustering>
<clus scale="   57.968">  2  9  1 -1</clus>
<clus scale="   92.246">  5  6 -1 -1</clus>
<clus scale="  107.785">  2  5  1 -1</clus>
<clus scale="  123.154">  7  8 -1 -1</clus>
<clus scale="  135.186">  1  5  2 -1</clus>
</clustering>
</event>
<event>
 9    1  0.1266593E-005  0.9949822E+02  0.7546771E-02  0.1282467E+00
         -2   -1    0    0    0  501 -0.00000000000E+00  0.00000000000E+00  0.50493068625E+03  0.50493068625E+03  0.00000000000E+00 0.  1.
          2   -1    0    0  502    0  0.00000000000E+00 -0.00000000000E+00 -0.14514884714E+03  0.14514884714E+03  0.00000000000E+00 0. -1.
         23    2    1    2    0    0  0.84197469831E+01  0.58501984807E+02  0.19899224324E+03  0.22673368311E+03  0.91196906876E+02 0.  0.
         23    2    1    2    0    0  0.29014935459E+02 -0.27628954764E+02 -0.11070937068E+03  0.14754485630E+03  0.88925217147E+02 0.  0.
        -13    1    3    3    0    0  0.42609757584E+02  0.56238853749E+02  0.15974515793E+03  0.17463366111E+03  0.00000000000E+00 0.  1.
         13    1    3    3    0    0 -0.34190010601E+02  0.22631310579E+01  0.39247085309E+02  0.52100021999E+02  0.00000000000E+00 0. -1.
        -13    1    4    4    0    0  0.69460597214E+01  0.29044719279E+02 -0.13262860982E+02  0.32676397369E+02  0.00000000000E+00 0.  1.
         13    1    4    4    0    0  0.22068875737E+02 -0.56673674043E+02 -0.97446509698E+02  0.11486845894E+03  0.00000000000E+00 0. -1.
         21    1    1    2  502  501 -0.37434682442E+02 -0.30873030043E+02  0.27149896655E+03  0.27580099397E+03  0.00000000000E+00 0. -1.
<scales pt_clust_5="13000.00000" pt_clust_6="13000.00000" pt_clust_7="13000.00000" pt_clust_8="13000.00000" pt_clust_9="48.52318"></scales>
<clustering>
<clus scale="   48.523">  1  9  2 -1</clus>
<clus scale="   88.925">  7  8 -1 -1</clus>
<clus scale="   91.197">  5  6 -1 -1</clus>
<clus scale="   97.420">  2  7  1 -1</clus>
<clus scale="   97.420">  2  5  1 -1</clus>
</clustering>
</event>
<event>
 9    1  0.1266593E-005  0.9954860E+02  0.7546771E-02  0.1282058E+00
          2   -1    0    0  502    0  0.00000000000E+00  0.00000000000E+00  0.27943195365E+02  0.27943195365E+02  0.00000000000E+00 0. -1.
         -2   -1    0    0    0  501 -0.00000000000E+00 -0.00000000000E+00 -0.55426849935E+03  0.55426849935E+03  0.00000000000E+00 0.  1.
         23    2    1    2    0    0  0.30420286498E+02  0.43841726570E+02 -0.33493918314E+03  0.35136047187E+03  0.91773819643E+02 0.  0.
         23    2    1    2    0    0 -0.13648461951E+02 -0.30445624108E+02 -0.10719575314E+03  0.14396757839E+03  0.90125010925E+02 0.  0.
        -13    1    4    4    0    0  0.13413838463E+02 -0.25291885525E+02 -0.11235058510E+03  0.11594078018E+03  0.00000000000E+00 0.  1.
         13    1    4    4    0    0 -0.27062300414E+02 -0.51537385829E+01  0.51548319648E+01  0.28026798205E+02  0.00000000000E+00 0. -1.
        -13    1    3    3    0    0 -0.25297330561E+02  0.15034682387E+02 -0.39054116232E+02  0.48900108411E+02  0.00000000000E+00 0.  1.
         13    1    3    3    0    0  0.55717617059E+02  0.28807044184E+02 -0.29588506691E+03  0.30246036346E+03  0.00000000000E+00 0. -1.
         21    1    1    2  502  501 -0.16771824547E+02 -0.13396102463E+02 -0.84190367707E+02  0.86883644459E+02  0.00000000000E+00 0.  1.
<scales pt_clust_5="13000.00000" pt_clust_6="13000.00000" pt_clust_7="13000.00000" pt_clust_8="13000.00000" pt_clust_9="21.46508"></scales>
<clustering>
<clus scale="   21.465">  2  9  1 -1</clus>
<clus scale="   90.125">  5  6 -1 -1</clus>
<clus scale="   91.774">  7  8 -1 -1</clus>
<clus scale="   98.031">  1  5  2 -1</clus>
<clus scale="   98.031">  1  5  2 -1</clus>
</clustering>
</event>
<event>
 9    1  0.1266593E-005  0.2007356E+03  0.7546771E-02  0.1149408E+00
          1   -1    0    0  502    0  0.00000000000E+00  0.00000000000E+00  0.58052266415E+03  0.58052266415E+03  0.00000000000E+00 0. -1.
         -1   -1    0    0    0  501 -0.00000000000E+00 -0.00000000000E+00 -0.13818393415E+03  0.13818393415E+03  0.00000000000E+00 0.  1.
         23    2    1    2    0    0 -0.17914848593E+02 -0.14301606097E+03  0.40873911171E+02  0.17367214039E+03  0.87845319964E+02 0.  0.
         23    2    1    2    0    0  0.52109327576E+02  0.18523167621E+03  0.43281802090E+03  0.48230931268E+03  0.90910274374E+02 0.  0.
        -11    1    3    3    0    0 -0.52506630253E+02 -0.96671639969E+02  0.35479053260E+02  0.11559029118E+03  0.00000000000E+00 0. -1.
         11    1    3    3    0    0  0.34591781660E+02 -0.46344420997E+02  0.53948579116E+01  0.58081849212E+02  0.00000000000E+00 0.  1.
        -11    1    4    4    0    0  0.59239420760E+02  0.82041343078E+02  0.14797563859E+03  0.17926762274E+03  0.00000000000E+00 0.  1.
         11    1    4    4    0    0 -0.71300931847E+01  0.10319033313E+03  0.28484238231E+03  0.30304168994E+03  0.00000000000E+00 0. -1.
         21    1    1    2  502  501 -0.34194478983E+02 -0.42215615243E+02 -0.31353202072E+02  0.62725145225E+02  0.00000000000E+00 0.  1.
<scales pt_clust_5="13000.00000" pt_clust_6="13000.00000" pt_clust_7="13000.00000" pt_clust_8="13000.00000" pt_clust_9="54.32698"></scales>
<clustering>
<clus scale="   54.327">  2  9  1 -1</clus>
<clus scale="   87.845">  5  6 -1 -1</clus>
<clus scale="   90.910">  7  8 -1 -1</clus>
<clus scale="  199.366">  2  5  1 -1</clus>
<clus scale="  200.736">  1  5  2 -1</clus>
</clustering>
</event>
<event>
 9    1  0.1266593E-005  0.1133425E+03  0.7546771E-02  0.1263216E+00
          3   -1    0    0  502    0  0.00000000000E+00  0.00000000000E+00  0.30410499869E+03  0.30410499869E+03  0.00000000000E+00 0. -1.
         -3   -1    0    0    0  501 -0.00000000000E+00 -0.00000000000E+00 -0.22292508265E+03  0.22292508265E+03  0.00000000000E+00 0.  1.
         23    2    1    2    0    0  0.33252501165E+02  0.34569180208E+02 -0.15590753326E+03  0.18682878983E+03  0.91088312804E+02 0.  0.
         23    2    1    2    0    0 -0.22752335182E+02 -0.15264898039E+02  0.27446977251E+03  0.29683832476E+03  0.10967519846E+03 0.  0.
        -11    1    4    4    0    0 -0.68296024658E+00 -0.55423403819E+02  0.81909393679E+02  0.98900803326E+02  0.00000000000E+00 0. -1.
         11    1    4    4    0    0 -0.22069374936E+02  0.40158505779E+02  0.19256037883E+03  0.19793752144E+03  0.00000000000E+00 0.  1.
        -13    1    3    3    0    0 -0.16407541986E+02  0.20870828404E+02 -0.45374838609E+01  0.26933021963E+02  0.00000000000E+00 0. -1.
         13    1    3    3    0    0  0.49660043151E+02  0.13698351804E+02 -0.15137004940E+03  0.15989576787E+03  0.00000000000E+00 0.  1.
         21    1    1    2  502  501 -0.10500165983E+02 -0.19304282169E+02 -0.37382323221E+02  0.43362966747E+02  0.00000000000E+00 0. -1.
<scales pt_clust_5="13000.00000" pt_clust_6="13000.00000" pt_clust_7="13000.00000" pt_clust_8="13000.00000" pt_clust_9="21.97519"></scales>
<clustering>
<clus scale="   21.975">  2  9  1 -1</clus>
<clus scale="   91.088">  7  8 -1 -1</clus>
<clus scale="   95.472">  2  7  1 -1</clus>
<clus scale="  109.675">  5  6 -1 -1</clus>
<clus scale="  113.343">  1  5  2 -1</clus>
</clustering>
</event>
<event>
 9    1  0.1266593E-005  0.1474887E+03  0.7546771E-02  0.1228116E+00
          1   -1    0    0  502    0  0.00000000000E+00  0.00000000000E+00  0.21735712672E+03  0.21735712672E+03  0.00000000000E+00 0. -1.
         -1   -1    0    0    0  501 -0.00000000000E+00 -0.00000000000E+00 -0.28046759514E+03  0.28046759514E+03  0.00000000000E+00 0.  1.
         23    2    1    2    0    0  0.99281066881E+01 -0.15130529832E+02 -0.92631350663E+02  0.12763808031E+03  0.85926783857E+02 0.  0.
         23    2    1    2    0    0 -0.95095993675E+02  0.72541546056E+02  0.14984103290E+03  0.21198887794E+03  0.90451231668E+02 0.  0.
        -11    1    4    4    0    0 -0.75171598504E+02  0.37464926201E+02  0.36308544319E+02  0.91502460663E+02  0.00000000000E+00 0. -1.
         11    1    4    4    0    0 -0.19924395171E+02  0.35076619855E+02  0.11353248858E+03  0.12048641727E+03  0.00000000000E+00 0.  1.
        -13    1    3    3    0    0  0.38890980487E+02  0.18747092894E+02 -0.43077093663E+02  0.60988505914E+02  0.00000000000E+00 0.  1.
         13    1    3    3    0    0 -0.28962873799E+02 -0.33877622726E+02 -0.49554257001E+02  0.66649574395E+02  0.00000000000E+00 0. -1.
         21    1    1    2  502  501  0.85167886987E+02 -0.57411016224E+02 -0.12032015066E+03  0.15819776361E+03  0.00000000000E+00 0.  1.
<scales pt_clust_5="13000.00000" pt_clust_6="13000.00000" pt_clust_7="13000.00000" pt_clust_8="13000.00000" pt_clust_9="116.49670"></scales>
<clustering>
<clus scale="   85.927">  7  8 -1 -1</clus>
<clus scale="   87.812">  2  7  1 -1</clus>
<clus scale="   90.451">  5  6 -1 -1</clus>
<clus scale="  116.497">  2  9  1 -1</clus>
<clus scale="  147.489">  1  5  2 -1</clus>
</clustering>
</event>
<event>
 9    1  0.1266593E-005  0.1154815E+03  0.7546771E-02  0.1255964E+00
         -2   -1    0    0    0  501 -0.00000000000E+00  0.00000000000E+00  0.90909993882E+02  0.90909993882E+02  0.00000000000E+00 0.  1.
          2   -1    0    0  502    0  0.00000000000E+00 -0.00000000000E+00 -0.40053090730E+03  0.40053090730E+03  0.00000000000E+00 0. -1.
         23    2    1    2    0    0 -0.20701557214E+02  0.20461452007E+02  0.21443664247E+02  0.10912913452E+03  0.10296655659E+03 0.  0.
         23    2    1    2    0    0  0.40046896219E+02 -0.37899176002E+02 -0.33902365721E+03  0.35507827063E+03  0.90019090681E+02 0.  0.
        -11    1    4    4    0    0  0.95046239210E+01 -0.60664144809E+02 -0.14694284252E+03  0.15925663348E+03  0.00000000000E+00 0.  1.
         11    1    4    4    0    0  0.30542272298E+02  0.22764968806E+02 -0.19208081469E+03  0.19582163715E+03  0.00000000000E+00 0. -1.
        -13    1    3    3    0    0 -0.17568137762E+02  0.57609608009E+02  0.34762991213E+02  0.69541152978E+02  0.00000000000E+00 0.  1.
         13    1    3    3    0    0 -0.31334194519E+01 -0.37148156002E+02 -0.13319326966E+02  0.39587981543E+02  0.00000000000E+00 0. -1.
         21    1    1    2  502  501 -0.19345339005E+02  0.17437723995E+02  0.79590795378E+01  0.27233496037E+02  0.00000000000E+00 0. -1.
<scales pt_clust_5="13000.00000" pt_clust_6="13000.00000" pt_clust_7="13000.00000" pt_clust_8="13000.00000" pt_clust_9="26.04451"></scales>
<clustering>
<clus scale="   26.045">  1  9  2 -1</clus>
<clus scale="   90.019">  5  6 -1 -1</clus>
<clus scale="  102.967">  7  8 -1 -1</clus>
<clus scale="  104.102">  2  5  1 -1</clus>
<clus scale="  104.102">  2  5  1 -1</clus>
</clustering>
</event>
<event>
 9    1  0.1266593E-005  0.1232949E+03  0.7546771E-02  0.1238763E+00
         -1   -1    0    0    0  501 -0.00000000000E+00  0.00000000000E+00  0.18470929558E+03  0.18470929558E+03  0.00000000000E+00 0.  1.
          1   -1    0    0  502    0  0.00000000000E+00 -0.00000000000E+00 -0.28982336964E+03  0.28982336964E+03  0.00000000000E+00 0. -1.
         23    2    1    2    0    0 -0.67756258582E+02  0.76267453716E+02  0.75858531498E+02  0.15755758769E+03  0.93071163971E+02 0.  0.
         23    2    1    2    0    0  0.55317409311E+02 -0.55381141503E+02 -0.23182009855E+03  0.26061524650E+03  0.89736625800E+02 0.  0.
        -11    1    4    4    0    0  0.23150156141E+02 -0.19856538706E+02 -0.77379668871E+01  0.31465663671E+02  0.00000000000E+00 0.  1.
         11    1    4    4    0    0  0.32167253170E+02 -0.35524602797E+02 -0.22408213166E+03  0.22914958283E+03  0.00000000000E+00 0. -1.
        -11    1    3    3    0    0 -0.63755503559E+02  0.39834288842E+02  0.21134446780E+01  0.75206392348E+02  0.00000000000E+00 0. -1.
         11    1    3    3    0    0 -0.40007550232E+01  0.36433164874E+02  0.73745086820E+02  0.82351195338E+02  0.00000000000E+00 0.  1.
         21    1    1    2  502  501  0.12438849271E+02 -0.20886312214E+02  0.50847492999E+02  0.56359831026E+02  0.00000000000E+00 0.  1.
<scales pt_clust_5="13000.00000" pt_clust_6="13000.00000" pt_clust_7="13000.00000" pt_clust_8="13000.00000" pt_clust_9="24.30973"></scales>
<clustering>
<clus scale="   24.310">  1  9  2 -1</clus>
<clus scale="   89.737">  5  6 -1 -1</clus>
<clus scale="   93.071">  7  8 -1 -1</clus>
<clus scale="  120.798">  2  5  1 -1</clus>
<clus scale="  120.798">  2  5  1 -1</clus>
</clustering>
</event>
<event>
 9    1  0.1266593E-005  0.9757740E+02  0.7546771E-02  0.1287705E+00
          1   -1    0    0  502    0  0.00000000000E+00  0.00000000000E+00  0.20585785883E+02  0.20585785883E+02  0.00000000000E+00 0. -1.
         -1   -1    0    0    0  501 -0.00000000000E+00 -0.00000000000E+00 -0.56112018429E+03  0.56112018429E+03  0.00000000000E+00 0.  1.
         23    2    1    2    0    0 -0.21765152957E+02 -0.11180636197E+02 -0.26664317417E+03  0.28375457672E+03  0.93911388923E+02 0.  0.
         23    2    1    2    0    0  0.31773116066E+02 -0.80970162123E+01 -0.22005752824E+03  0.23990094959E+03  0.89733256391E+02 0.  0.
        -11    1    3    3    0    0 -0.18207197000E+02  0.39673727813E+02 -0.15487771622E+03  0.16091181958E+03  0.00000000000E+00 0.  1.
         11    1    3    3    0    0 -0.35579559570E+01 -0.50854364010E+02 -0.11176545795E+03  0.12284275714E+03  0.00000000000E+00 0. -1.
        -13    1    4    4    0    0 -0.13830067025E+02 -0.33032737165E+02 -0.13956443897E+03  0.14408561727E+03  0.00000000000E+00 0. -1.
         13    1    4    4    0    0  0.45603183091E+02  0.24935720952E+02 -0.80493089266E+02  0.95815332318E+02  0.00000000000E+00 0.  1.
         21    1    1    2  502  501 -0.10007963109E+02  0.19277652409E+02 -0.53833695999E+02  0.58050443865E+02  0.00000000000E+00 0.  1.
<scales pt_clust_5="13000.00000" pt_clust_6="13000.00000" pt_clust_7="13000.00000" pt_clust_8="13000.00000" pt_clust_9="21.72066"></scales>
<clustering>
<clus scale="   21.721">  1  9  2 -1</clus>
<clus scale="   89.733">  7  8 -1 -1</clus>
<clus scale="   93.563">  1  7  2 -1</clus>
<clus scale="   93.911">  5  6 -1 -1</clus>
<clus scale="   21.721">  1  5  2 -1</clus>
</clustering>
</event>
<event>
 9    1  0.1266593E-005  0.3721826E+03  0.7546771E-02  0.1053873E+00
         -1   -1    0    0    0  501 -0.00000000000E+00  0.00000000000E+00  0.13773806288E+03  0.13773806288E+03  0.00000000000E+00 0.  1.
          1   -1    0    0  502    0  0.00000000000E+00 -0.00000000000E+00 -0.17434576959E+04  0.17434576959E+04  0.00000000000E+00 0. -1.
         23    2    1    2    0    0 -0.32668968053E+03  0.17935416348E+03 -0.26898562176E+03  0.46822567136E+03  0.89375339364E+02 0.  0.
         23    2    1    2    0    0  0.30613229329E+03 -0.18628835549E+03 -0.13409107418E+04  0.13908763266E+04  0.89861037348E+02 0.  0.
        -13    1    4    4    0    0  0.57613656731E+02 -0.72933376386E+02 -0.42808040914E+03  0.43805416049E+03  0.00000000000E+00 0.  1.
         13    1    4    4    0    0  0.24851863656E+03 -0.11335497910E+03 -0.91283033266E+03  0.95282216611E+03  0.00000000000E+00 0. -1.
        -13    1    3    3    0    0 -0.24315092165E+03  0.92399157591E+02 -0.15799625223E+03  0.30433992630E+03  0.00000000000E+00 0.  1.
         13    1    3    3    0    0 -0.83538758875E+02  0.86955005891E+02 -0.11098936954E+03  0.16388574506E+03  0.00000000000E+00 0. -1.
         21    1    1    2  502  501  0.20557387235E+02  0.69341920090E+01  0.41767305418E+01  0.22093760811E+02  0.00000000000E+00 0.  1.
<scales pt_clust_5="13000.00000" pt_clust_6="13000.00000" pt_clust_7="13000.00000" pt_clust_8="13000.00000" pt_clust_9="21.69537"></scales>
<clustering>
<clus scale="   21.695">  1  9  2 -1</clus>
<clus scale="   89.375">  7  8 -1 -1</clus>
<clus scale="   89.861">  5  6 -1 -1</clus>
<clus scale="  372.066">  1  7  2 -1</clus>
<clus scale="  372.183">  2  5  1 -1</clus>
</clustering>
</event>
<event>
 9    1  0.1266593E-005  0.1126490E+03  0.7546771E-02  0.1256355E+00
          1   -1    0    0  502    0  0.00000000000E+00  0.00000000000E+00  0.20320056900E+03  0.20320056900E+03  0.00000000000E+00 0. -1.
         -1   -1    0    0    0  501 -0.00000000000E+00 -0.00000000000E+00 -0.96729693447E+02  0.96729693447E+02  0.00000000000E+00 0.  1.
         23    2    1    2    0    0  0.44892768778E+02 -0.34008416281E+02  0.14936190283E+02  0.10607448545E+03  0.88638443226E+02 0.  0.
         23    2    1    2    0    0 -0.82136786945E+02  0.24619865032E+02  0.42578041049E+02  0.13163026135E+03  0.90338511165E+02 0.  0.
        -13    1    3    3    0    0  0.12280962317E+02 -0.61136083167E+02  0.53608431707E+01  0.62587389624E+02  0.00000000000E+00 0.  1.
         13    1    3    3    0    0  0.32611806461E+02  0.27127666886E+02  0.95753471122E+01  0.43487095829E+02  0.00000000000E+00 0. -1.
        -13    1    4    4    0    0 -0.37191680529E+02 -0.33277113156E+02  0.26837841895E+02  0.56664425508E+02  0.00000000000E+00 0.  1.
         13    1    4    4    0    0 -0.44945106416E+02  0.57896978188E+02  0.15740199154E+02  0.74965835842E+02  0.00000000000E+00 0. -1.
         21    1    1    2  502  501  0.37244018166E+02  0.93885512489E+01  0.48956644216E+02  0.62225515639E+02  0.00000000000E+00 0. -1.
<scales pt_clust_5="13000.00000" pt_clust_6="13000.00000" pt_clust_7="13000.00000" pt_clust_8="13000.00000" pt_clust_9="38.40914"></scales>
<clustering>
<clus scale="   38.409">  1  9  2 -1</clus>
<clus scale="   88.638">  5  6 -1 -1</clus>
<clus scale="   90.339">  7  8 -1 -1</clus>
<clus scale="  111.290">  2  5  1 -1</clus>
<clus scale="   38.409">  1  5  2 -1</clus>
</clustering>
</event>
<event>
 9    1  0.1266593E-005  0.1165208E+03  0.7546771E-02  0.1257523E+00
          2   -1    0    0  502    0  0.00000000000E+00  0.00000000000E+00  0.28173297202E+03  0.28173297202E+03  0.00000000000E+00 0. -1.
         -2   -1    0    0    0  501 -0.00000000000E+00 -0.00000000000E+00 -0.55716884057E+02  0.55716884057E+02  0.00000000000E+00 0.  1.
         23    2    1    2    0    0  0.15840554854E+02  0.71900093368E+01  0.83691769576E+02  0.14111487273E+03  0.11227856250E+03 0.  0.
         23    2    1    2    0    0 -0.22749319188E+02 -0.33677062708E+02  0.13301179176E+03  0.16742100449E+03  0.93198604726E+02 0.  0.
        -11    1    3    3    0    0 -0.49403067452E+01 -0.47560273281E+02  0.62814570579E+02  0.78943375291E+02  0.00000000000E+00 0. -1.
         11    1    3    3    0    0  0.20780861600E+02  0.54750282618E+02  0.20877198997E+02  0.62171497437E+02  0.00000000000E+00 0.  1.
        -13    1    4    4    0    0  0.58535273871E+01 -0.34371429794E+02  0.13432825338E+03  0.13877946038E+03  0.00000000000E+00 0. -1.
         13    1    4    4    0    0 -0.28602846575E+02  0.69436708629E+00 -0.13164616186E+01  0.28641544111E+02  0.00000000000E+00 0.  1.
         21    1    1    2  502  501  0.69087643339E+01  0.26487053371E+02  0.93125266262E+01  0.28913978852E+02  0.00000000000E+00 0.  1.
<scales pt_clust_5="13000.00000" pt_clust_6="13000.00000" pt_clust_7="13000.00000" pt_clust_8="13000.00000" pt_clust_9="27.37325"></scales>
<clustering>
<clus scale="   27.373">  2  9  1 -1</clus>
<clus scale="   93.199">  7  8 -1 -1</clus>
<clus scale="   98.268">  1  7  2 -1</clus>
<clus scale="  112.279">  5  6 -1 -1</clus>
<clus scale="   98.268">  1  5  2 -1</clus>
</clustering>
</event>
<event>
 9    1  0.1266593E-005  0.3278326E+03  0.7546771E-02  0.1072158E+00
         -2   -1    0    0    0  501 -0.00000000000E+00  0.00000000000E+00  0.59318621472E+03  0.59318621472E+03  0.00000000000E+00 0.  1.
          2   -1    0    0  502    0  0.00000000000E+00 -0.00000000000E+00 -0.35949049265E+03  0.35949049265E+03  0.00000000000E+00 0. -1.
         23    2    1    2    0    0  0.35047188606E+03  0.48831506945E+02  0.37297933152E+03  0.52209791556E+03  0.90871297496E+02 0.  0.
         23    2    1    2    0    0 -0.30402081368E+03 -0.42002224210E+02 -0.18145335537E+03  0.36747072023E+03  0.88975098002E+02 0.  0.
        -11    1    3    3    0    0  0.36778408890E+02  0.35795879213E+02  0.55515201605E+02  0.75603795793E+02  0.00000000000E+00 0.  1.
         11    1    3    3    0    0  0.31369347717E+03  0.13035627732E+02  0.31746412992E+03  0.44649411977E+03  0.00000000000E+00 0. -1.
        -11    1    4    4    0    0 -0.60287724182E+02  0.23147530592E+02 -0.57082934642E+02  0.86190946665E+02  0.00000000000E+00 0.  1.
         11    1    4    4    0    0 -0.24373308950E+03 -0.65149754802E+02 -0.12437042073E+03  0.28127977357E+03  0.00000000000E+00 0. -1.
         21    1    1    2  502  501 -0.46451072378E+02 -0.68292827341E+01  0.42169745919E+02  0.63108071580E+02  0.00000000000E+00 0.  1.
<scales pt_clust_5="13000.00000" pt_clust_6="13000.00000" pt_clust_7="13000.00000" pt_clust_8="13000.00000" pt_clust_9="46.95041"></scales>
<clustering>
<clus scale="   46.950">  1  9  2 -1</clus>
<clus scale="   88.975">  7  8 -1 -1</clus>
<clus scale="   90.871">  5  6 -1 -1</clus>
<clus scale="  327.312">  2  7  1 -1</clus>
<clus scale="  327.312">  2  5  1 -1</clus>
</clustering>
</event>
<event>
 9    1  0.1266593E-005  0.9207318E+02  0.7546771E-02  0.1298640E+00
         -1   -1    0    0    0  501 -0.00000000000E+00  0.00000000000E+00  0.28899256398E+02  0.28899256398E+02  0.00000000000E+00 0.  1.
          1   -1    0    0  502    0  0.00000000000E+00 -0.00000000000E+00 -0.46220525956E+03  0.46220525956E+03  0.00000000000E+00 0. -1.
         23    2    1    2    0    0  0.38059591418E+02  0.16312017053E+01 -0.11202577283E+03  0.14764671980E+03  0.88309607467E+02 0.  0.
         23    2    1    2    0    0 -0.13607149536E+02  0.79334561386E+01 -0.28118600054E+03  0.29553127056E+03  0.89582759127E+02 0.  0.
        -11    1    4    4    0    0 -0.18431201419E+01  0.48580951827E+02 -0.15381371143E+03  0.16131386734E+03  0.00000000000E+00 0.  1.
         11    1    4    4    0    0 -0.11764029394E+02 -0.40647495688E+02 -0.12737228911E+03  0.13421740322E+03  0.00000000000E+00 0. -1.
        -13    1    3    3    0    0  0.34630037247E+02  0.28747448728E+02 -0.15935989417E+02  0.47745272507E+02  0.00000000000E+00 0.  1.
         13    1    3    3    0    0  0.34295541712E+01 -0.27116247023E+02 -0.96089783411E+02  0.99901447289E+02  0.00000000000E+00 0. -1.
         21    1    1    2  502  501 -0.24452441882E+02 -0.95646578439E+01 -0.40094229787E+02  0.47926525598E+02  0.00000000000E+00 0. -1.
<scales pt_clust_5="13000.00000" pt_clust_6="13000.00000" pt_clust_7="13000.00000" pt_clust_8="13000.00000" pt_clust_9="26.25652"></scales>
<clustering>
<clus scale="   26.257">  1  9  2 -1</clus>
<clus scale="   88.310">  7  8 -1 -1</clus>
<clus scale="   89.583">  5  6 -1 -1</clus>
<clus scale="   90.835">  1  7  2 -1</clus>
<clus scale="   92.073">  2  5  1 -1</clus>
</clustering>
</event>
<event>
 9    1  0.1266593E-005  0.9246176E+02  0.7546771E-02  0.1299595E+00
         -2   -1    0    0    0  501 -0.00000000000E+00  0.00000000000E+00  0.14569005254E+03  0.14569005254E+03  0.00000000000E+00 0.  1.
          2   -1    0    0  502    0  0.00000000000E+00 -0.00000000000E+00 -0.20827931840E+03  0.20827931840E+03  0.00000000000E+00 0. -1.
         23    2    1    2    0    0  0.83868816737E+01  0.98259774634E+01  0.41291567186E+02  0.94762872124E+02  0.84309660154E+02 0.  0.
         23    2    1    2    0    0  0.11031283797E+02 -0.26958739062E+02 -0.16677537593E+03  0.19118944070E+03  0.88830813263E+02 0.  0.
        -11    1    4    4    0    0  0.30825935527E+02  0.16603694357E+01 -0.12949234359E+02  0.33476526079E+02  0.00000000000E+00 0.  1.
         11    1    4    4    0    0 -0.19794651730E+02 -0.28619108498E+02 -0.15382614157E+03  0.15771291462E+03  0.00000000000E+00 0. -1.
        -11    1    3    3    0    0  0.25540927415E+02  0.38637173109E+02  0.40014524652E+02  0.61207289616E+02  0.00000000000E+00 0. -1.
         11    1    3    3    0    0 -0.17154045741E+02 -0.28811195645E+02  0.12770425338E+01  0.33555582508E+02  0.00000000000E+00 0.  1.
         21    1    1    2  502  501 -0.19418165471E+02  0.17132761599E+02  0.62894542884E+02  0.68017058117E+02  0.00000000000E+00 0.  1.
<scales pt_clust_5="13000.00000" pt_clust_6="13000.00000" pt_clust_7="13000.00000" pt_clust_8="13000.00000" pt_clust_9="25.89588"></scales>
<clustering>
<clus scale="   25.896">  1  9  2 -1</clus>
<clus scale="   84.310">  7  8 -1 -1</clus>
<clus scale="   88.127">  1  7  2 -1</clus>
<clus scale="   88.831">  5  6 -1 -1</clus>
<clus scale="   92.462">  2  5  1 -1</clus>
</clustering>
</event>
<event>
 9    1  0.1266593E-005  0.1117838E+03  0.7546771E-02  0.1257426E+00
         -2   -1    0    0    0  501 -0.00000000000E+00  0.00000000000E+00  0.91338191444E+02  0.91338191444E+02  0.00000000000E+00 0.  1.
          2   -1    0    0  502    0  0.00000000000E+00 -0.00000000000E+00 -0.25021166443E+03  0.25021166443E+03  0.00000000000E+00 0. -1.
         23    2    1    2    0    0 -0.56885442957E+02  0.43926098555E+02 -0.36282901285E+02  0.12165029039E+03  0.91196976226E+02 0.  0.
         23    2    1    2    0    0  0.59584493696E+02 -0.19610422945E+02 -0.14798639720E+03  0.18463648410E+03  0.90861306003E+02 0.  0.
        -11    1    3    3    0    0 -0.77289917430E+02  0.52911264210E+02 -0.26821777639E+02  0.97430698305E+02  0.00000000000E+00 0. -1.
         11    1    3    3    0    0  0.20404474472E+02 -0.89851656544E+01 -0.94611236458E+01  0.24219592089E+02  0.00000000000E+00 0.  1.
        -13    1    4    4    0    0 -0.12197328213E+02 -0.16268792123E+02 -0.90088018789E+02  0.92354206954E+02  0.00000000000E+00 0. -1.
         13    1    4    4    0    0  0.71781821909E+02 -0.33416308218E+01 -0.57898378409E+02  0.92282277148E+02  0.00000000000E+00 0.  1.
         21    1    1    2  502  501 -0.26990507385E+01 -0.24315675610E+02  0.25395825500E+02  0.35263081375E+02  0.00000000000E+00 0. -1.
<scales pt_clust_5="13000.00000" pt_clust_6="13000.00000" pt_clust_7="13000.00000" pt_clust_8="13000.00000" pt_clust_9="24.46501"></scales>
<clustering>
<clus scale="   24.465">  1  9  2 -1</clus>
<clus scale="   90.861">  7  8 -1 -1</clus>
<clus scale="   91.197">  5  6 -1 -1</clus>
<clus scale="  111.510">  2  7  1 -1</clus>
<clus scale="  111.510">  2  5  1 -1</clus>
</clustering>
</event>
<event>
 9    1  0.1266593E-005  0.1859475E+03  0.7546771E-02  0.1176942E+00
          1   -1    0    0  502    0  0.00000000000E+00  0.00000000000E+00  0.53775538134E+03  0.53775538134E+03  0.00000000000E+00 0. -1.
         -1   -1    0    0    0  501 -0.00000000000E+00 -0.00000000000E+00 -0.14370207956E+03  0.14370207956E+03  0.00000000000E+00 0.  1.
         23    2    1    2    0    0 -0.46452351817E+02  0.15613909188E+03  0.32690843140E+02  0.18908653654E+03  0.90265109940E+02 0.  0.
         23    2    1    2    0    0  0.94855794844E+02  0.15365655672E+02  0.24784572610E+03  0.28108244788E+03  0.91357065263E+02 0.  0.
        -13    1    4    4    0    0  0.62640370046E+02  0.34733216865E+02  0.22714503664E+03  0.23817027519E+03  0.00000000000E+00 0.  1.
         13    1    4    4    0    0  0.32215424798E+02 -0.19367561193E+02  0.20700689461E+02  0.42912172698E+02  0.00000000000E+00 0. -1.
        -13    1    3    3    0    0 -0.44204255940E+02  0.10002251716E+03 -0.21041321788E+02  0.11136093302E+03  0.00000000000E+00 0.  1.
         13    1    3    3    0    0 -0.22480958775E+01  0.56116574721E+02  0.53732164927E+02  0.77725603512E+02  0.00000000000E+00 0. -1.
         21    1    1    2  502  501 -0.48403443027E+02 -0.17150474755E+03  0.11351673254E+03  0.21128847649E+03  0.00000000000E+00 0. -1.
<scales pt_clust_5="13000.00000" pt_clust_6="13000.00000" pt_clust_7="13000.00000" pt_clust_8="13000.00000" pt_clust_9="162.56896"></scales>
<clustering>
<clus scale="   90.265">  7  8 -1 -1</clus>
<clus scale="   91.357">  5  6 -1 -1</clus>
<clus scale="  132.589">  1  5  2 -1</clus>
<clus scale="  162.569">  1  9  2 -1</clus>
<clus scale="  132.589">  1  5  2 -1</clus>
</clustering>
</event>
<event>
 9    1  0.1266593E-005  0.1225405E+03  0.7546771E-02  0.1239110E+00
          2   -1    0    0  502    0  0.00000000000E+00  0.00000000000E+00  0.20942903277E+03  0.20942903277E+03  0.00000000000E+00 0. -1.
         -2   -1    0    0    0  501 -0.00000000000E+00 -0.00000000000E+00 -0.11798736221E+03  0.11798736221E+03  0.00000000000E+00 0.  1.
         23    2    1    2    0    0  0.34337581741E+02  0.44178047200E+02  0.11660522194E+01  0.10414173193E+03  0.87825800755E+02 0.  0.
         23    2    1    2    0    0 -0.77453066819E+02 -0.70254317432E+02  0.10299787285E+03  0.17130570421E+03  0.88331397623E+02 0.  0.
        -11    1    3    3    0    0 -0.16401563293E+02 -0.17000462219E+02 -0.58962252901E+01  0.24347329767E+02  0.00000000000E+00 0. -1.
         11    1    3    3    0    0  0.50739145034E+02  0.61178509419E+02  0.70622775095E+01  0.79794402166E+02  0.00000000000E+00 0.  1.
        -13    1    4    4    0    0 -0.43565759308E+02  0.86669323242E+01  0.11651922032E+02  0.45922308164E+02  0.00000000000E+00 0.  1.
         13    1    4    4    0    0 -0.33887307511E+02 -0.78921249757E+02  0.91345950822E+02  0.12538339605E+03  0.00000000000E+00 0. -1.
         21    1    1    2  502  501  0.43115485079E+02  0.26076270232E+02 -0.12722254515E+02  0.51968958838E+02  0.00000000000E+00 0.  1.
<scales pt_clust_5="13000.00000" pt_clust_6="13000.00000" pt_clust_7="13000.00000" pt_clust_8="13000.00000" pt_clust_9="50.38767"></scales>
<clustering>
<clus scale="   50.388">  2  9  1 -1</clus>
<clus scale="   87.826">  5  6 -1 -1</clus>
<clus scale="   88.331">  7  8 -1 -1</clus>
<clus scale="  122.177">  2  5  1 -1</clus>
<clus scale="  122.540">  1  5  2 -1</clus>
</clustering>
</event>
<event>
 9    1  0.1266593E-005  0.9413074E+02  0.7546771E-02  0.1293287E+00
          1   -1    0    0  502    0  0.00000000000E+00  0.00000000000E+00  0.58725626078E+03  0.58725626078E+03  0.00000000000E+00 0. -1.
         -1   -1    0    0    0  501 -0.00000000000E+00 -0.00000000000E+00 -0.22782520028E+02  0.22782520028E+02  0.00000000000E+00 0.  1.
         23    2    1    2    0    0  0.32516966375E+01 -0.37989094543E+01  0.21440841606E+03  0.23328132162E+03  0.91783445633E+02 0.  0.
         23    2    1    2    0    0 -0.27968723852E+02 -0.25550469829E+02  0.27494683270E+03  0.29240637540E+03  0.92036142565E+02 0.  0.
        -11    1    3    3    0    0 -0.28081458555E+02  0.33139563819E+02  0.10499851151E+03  0.11362872183E+03  0.00000000000E+00 0.  1.
         11    1    3    3    0    0  0.31333155193E+02 -0.36938473273E+02  0.10940990455E+03  0.11965259979E+03  0.00000000000E+00 0. -1.
        -11    1    4    4    0    0  0.20844325120E+02 -0.41340285283E+02  0.15928182449E+03  0.16587406274E+03  0.00000000000E+00 0. -1.
         11    1    4    4    0    0 -0.48813048973E+02  0.15789815454E+02  0.11566500822E+03  0.12653231266E+03  0.00000000000E+00 0.  1.
         21    1    1    2  502  501  0.24717027215E+02  0.29349379283E+02  0.75118491981E+02  0.84351083788E+02  0.00000000000E+00 0.  1.
<scales pt_clust_5="13000.00000" pt_clust_6="13000.00000" pt_clust_7="13000.00000" pt_clust_8="13000.00000" pt_clust_9="38.37079"></scales>
<clustering>
<clus scale="   38.371">  2  9  1 -1</clus>
<clus scale="   91.783">  5  6 -1 -1</clus>
<clus scale="   92.036">  7  8 -1 -1</clus>
<clus scale="   93.884">  2  5  1 -1</clus>
<clus scale="   94.131">  1  5  2 -1</clus>
</clustering>
</event>
<event>
 9    1  0.1266593E-005  0.1230954E+03  0.7546771E-02  0.1246835E+00
         -2   -1    0    0    0  501 -0.00000000000E+00  0.00000000000E+00  0.79105601228E+02  0.79105601228E+02  0.00000000000E+00 0.  1.
          2   -1    0    0  502    0  0.00000000000E+00 -0.00000000000E+00 -0.29887705019E+03  0.29887705019E+03  0.00000000000E+00 0. -1.
         23    2    1    2    0    0  0.29004953970E+01  0.68960157190E+02 -0.85968290678E+01  0.11220363902E+03  0.88044505707E+02 0.  0.
         23    2    1    2    0    0  0.15046522051E+02 -0.47297916608E+02 -0.20292600038E+03  0.23646369514E+03  0.11078188817E+03 0.  0.
        -13    1    3    3    0    0 -0.18145730190E+02  0.61364153962E+02  0.27568147300E+02  0.69676607704E+02  0.00000000000E+00 0.  1.
         13    1    3    3    0    0  0.21046225587E+02  0.75960032278E+01 -0.36164976368E+02  0.42527031312E+02  0.00000000000E+00 0. -1.
        -13    1    4    4    0    0  0.14807436299E+02  0.21925843239E+02 -0.51914914674E+01  0.26962091076E+02  0.00000000000E+00 0.  1.
         13    1    4    4    0    0  0.23908575196E+00 -0.69223759847E+02 -0.19773450892E+03  0.20950160406E+03  0.00000000000E+00 0. -1.
         21    1    1    2  502  501 -0.17947017448E+02 -0.21662240581E+02 -0.82486195086E+01  0.29315317261E+02  0.00000000000E+00 0. -1.
<scales pt_clust_5="13000.00000" pt_clust_6="13000.00000" pt_clust_7="13000.00000" pt_clust_8="13000.00000" pt_clust_9="28.13091"></scales>
<clustering>
<clus scale="   28.131">  1  9  2 -1</clus>
<clus scale="   88.045">  5  6 -1 -1</clus>
<clus scale="  103.110">  1  5  2 -1</clus>
<clus scale="  110.782">  7  8 -1 -1</clus>
<clus scale="  123.095">  2  5  1 -1</clus>
</clustering>
</event>
<event>
 9    1  0.1266593E-005  0.9436095E+02  0.7546771E-02  0.1297729E+00
          2   -1    0    0  502    0  0.00000000000E+00  0.00000000000E+00  0.21866902719E+03  0.21866902719E+03  0.00000000000E+00 0. -1.
         -2   -1    0    0    0  501 -0.00000000000E+00 -0.00000000000E+00 -0.81137837964E+02  0.81137837964E+02  0.00000000000E+00 0.  1.
         23    2    1    2    0    0  0.28123063017E+01 -0.25514629497E+02  0.43546823008E+02  0.10567026885E+03  0.92795336845E+02 0.  0.
         23    2    1    2    0    0  0.12895887216E+02  0.10582245823E+02  0.12784698260E+03  0.15393211628E+03  0.84094932241E+02 0.  0.
        -11    1    3    3    0    0 -0.17613938640E+02 -0.44145019879E+02 -0.70145295788E+01  0.48044117640E+02  0.00000000000E+00 0.  1.
         11    1    3    3    0    0  0.20426244942E+02  0.18630390382E+02  0.50561352587E+02  0.57626151213E+02  0.00000000000E+00 0. -1.
        -11    1    4    4    0    0 -0.27387718895E+02 -0.32566610925E+01  0.11229138142E+02  0.29778961217E+02  0.00000000000E+00 0.  1.
         11    1    4    4    0    0  0.40283606111E+02  0.13838906915E+02  0.11661784446E+03  0.12415315506E+03  0.00000000000E+00 0. -1.
         21    1    1    2  502  501 -0.15708193518E+02  0.14932383674E+02 -0.33862616380E+02  0.40204480023E+02  0.00000000000E+00 0.  1.
<scales pt_clust_5="13000.00000" pt_clust_6="13000.00000" pt_clust_7="13000.00000" pt_clust_8="13000.00000" pt_clust_9="21.67310"></scales>
<clustering>
<clus scale="   21.673">  2  9  1 -1</clus>
<clus scale="   84.095">  7  8 -1 -1</clus>
<clus scale="   85.819">  1  7  2 -1</clus>
<clus scale="   92.795">  5  6 -1 -1</clus>
<clus scale="   85.819">  1  5  2 -1</clus>
</clustering>
</event>
<event>
 9    1  0.1266593E-005  0.9978447E+02  0.7546771E-02  0.1285730E+00
          1   -1    0    0  502    0  0.00000000000E+00  0.00000000000E+00  0.53617988202E+02  0.53617988202E+02  0.00000000000E+00 0. -1.
         -1   -1    0    0    0  501 -0.00000000000E+00 -0.00000000000E+00 -0.26599175420E+03  0.26599175420E+03  0.00000000000E+00 0.  1.
         23    2    1    2    0    0 -0.12655939810E+02 -0.12967418207E+02 -0.96892542032E+02  0.14010921722E+03  0.99569580201E+02 0.  0.
         23    2    1    2    0    0 -0.78202557658E+01 -0.20151054657E+02 -0.56782882994E+02  0.10906187767E+03  0.90570281860E+02 0.  0.
        -11    1    4    4    0    0 -0.43429144138E+02 -0.30629820939E+02 -0.46319490325E+02  0.70496607544E+02  0.00000000000E+00 0.  1.
         11    1    4    4    0    0  0.35608888372E+02  0.10478766283E+02 -0.10463392669E+02  0.38565270128E+02  0.00000000000E+00 0. -1.
        -13    1    3    3    0    0  0.89256377864E+01 -0.29843103330E+02  0.76181888585E+01  0.32067345193E+02  0.00000000000E+00 0.  1.
         13    1    3    3    0    0 -0.21581577596E+02  0.16875685123E+02 -0.10451073089E+03  0.10804187203E+03  0.00000000000E+00 0. -1.
         21    1    1    2  502  501  0.20476195575E+02  0.33118472864E+02 -0.58698340977E+02  0.70438647513E+02  0.00000000000E+00 0. -1.
<scales pt_clust_5="13000.00000" pt_clust_6="13000.00000" pt_clust_7="13000.00000" pt_clust_8="13000.00000" pt_clust_9="38.93723"></scales>
<clustering>
<clus scale="   38.937">  2  9  1 -1</clus>
<clus scale="   90.570">  5  6 -1 -1</clus>
<clus scale="   90.806">  1  5  2 -1</clus>
<clus scale="   99.570">  7  8 -1 -1</clus>
<clus scale="   90.806">  1  5  2 -1</clus>
</clustering>
</event>
<event>
 9    1  0.1266593E-005  0.1136805E+03  0.7546771E-02  0.1254166E+00
         -1   -1    0    0    0  501 -0.00000000000E+00  0.00000000000E+00  0.19189723594E+03  0.19189723594E+03  0.00000000000E+00 0.  1.
          1   -1    0    0  502    0  0.00000000000E+00 -0.00000000000E+00 -0.18435097204E+03  0.18435097204E+03  0.00000000000E+00 0. -1.
         23    2    1    2    0    0 -0.28923259227E+02 -0.56333608161E+02  0.91185929655E+02  0.14298664784E+03  0.90112581586E+02 0.  0.
         23    2    1    2    0    0  0.58362110399E+02  0.39528427275E+02 -0.13145207765E+03  0.17465194665E+03  0.90857147519E+02 0.  0.
        -11    1    3    3    0    0  0.30421757860E+02 -0.18127566453E+02  0.13172067852E+02  0.37783533295E+02  0.00000000000E+00 0. -1.
         11    1    3    3    0    0 -0.59345017087E+02 -0.38206041709E+02  0.78013861803E+02  0.10520311454E+03  0.00000000000E+00 0.  1.
        -13    1    4    4    0    0  0.15773841078E+02 -0.21290808902E+02 -0.80118046911E+02  0.84386101030E+02  0.00000000000E+00 0.  1.
         13    1    4    4    0    0  0.42588269320E+02  0.60819236177E+02 -0.51334030741E+02  0.90265845617E+02  0.00000000000E+00 0. -1.
         21    1    1    2  502  501 -0.29438851172E+02  0.16805180887E+02  0.47812411895E+02  0.58609613496E+02  0.00000000000E+00 0.  1.
<scales pt_clust_5="13000.00000" pt_clust_6="13000.00000" pt_clust_7="13000.00000" pt_clust_8="13000.00000" pt_clust_9="33.89779"></scales>
<clustering>
<clus scale="   33.898">  1  9  2 -1</clus>
<clus scale="   90.113">  5  6 -1 -1</clus>
<clus scale="   90.857">  7  8 -1 -1</clus>
<clus scale="  113.086">  1  5  2 -1</clus>
<clus scale="  113.681">  2  5  1 -1</clus>
</clustering>
</event>
<event>
 9    1  0.1266593E-005  0.9644944E+02  0.7546771E-02  0.1289551E+00
          2   -1    0    0  502    0  0.00000000000E+00  0.00000000000E+00  0.47829839782E+02  0.47829839782E+02  0.00000000000E+00 0. -1.
         -2   -1    0    0    0  501 -0.00000000000E+00 -0.00000000000E+00 -0.29704243528E+03  0.29704243528E+03  0.00000000000E+00 0.  1.
         23    2    1    2    0    0 -0.25155265686E+02  0.10018887121E+02 -0.10831452989E+03  0.14383127991E+03  0.90676536125E+02 0.  0.
         23    2    1    2    0    0  0.47278673532E+01 -0.45936897233E+02 -0.79369979760E+02  0.12692562967E+03  0.87624029367E+02 0.  0.
        -11    1    3    3    0    0  0.33707502040E+02 -0.67045545028E+00 -0.49863793383E+02  0.60191719488E+02  0.00000000000E+00 0.  1.
         11    1    3    3    0    0 -0.58862767727E+02  0.10689342572E+02 -0.58450736507E+02  0.83639560421E+02  0.00000000000E+00 0. -1.
        -13    1    4    4    0    0 -0.39625397167E+01  0.26092956126E+02 -0.18640376445E+02  0.32311108221E+02  0.00000000000E+00 0. -1.
         13    1    4    4    0    0  0.86904070699E+01 -0.72029853359E+02 -0.60729603315E+02  0.94614521448E+02  0.00000000000E+00 0.  1.
         21    1    1    2  502  501  0.20427398333E+02  0.35918010111E+02 -0.61528085844E+02  0.74115365483E+02  0.00000000000E+00 0. -1.
<scales pt_clust_5="13000.00000" pt_clust_6="13000.00000" pt_clust_7="13000.00000" pt_clust_8="13000.00000" pt_clust_9="41.32048"></scales>
<clustering>
<clus scale="   41.320">  2  9  1 -1</clus>
<clus scale="   87.624">  7  8 -1 -1</clus>
<clus scale="   90.677">  5  6 -1 -1</clus>
<clus scale="   93.585">  1  7  2 -1</clus>
<clus scale="   93.585">  1  5  2 -1</clus>
</clustering>
</event>
<event>
 9    1  0.1266593E-005  0.1073298E+03  0.7546771E-02  0.1265605E+00
         -1   -1    0    0    0  501 -0.00000000000E+00  0.00000000000E+00  0.84870254456E+02  0.84870254456E+02  0.00000000000E+00 0.  1.
          1   -1    0    0  502    0  0.00000000000E+00 -0.00000000000E+00 -0.38411895827E+03  0.38411895827E+03  0.00000000000E+00 0. -1.
         23    2    1    2    0    0  0.37120348785E+02 -0.36151036054E+00  0.21536807248E+02  0.10078592854E+03  0.91191657197E+02 0.  0.
         23    2    1    2    0    0 -0.59405965122E+02  0.29652597200E+00 -0.32735672798E+03  0.34496896021E+03  0.91170168027E+02 0.  0.
        -11    1    3    3    0    0  0.38935652333E+02 -0.21005314577E+02  0.49236251115E+02  0.66192270598E+02  0.00000000000E+00 0.  1.
         11    1    3    3    0    0 -0.18153035482E+01  0.20643804217E+02 -0.27699443867E+02  0.34593657946E+02  0.00000000000E+00 0. -1.
        -11    1    4    4    0    0  0.71726509201E+01  0.31835039166E+02 -0.69242049236E+02  0.76546574204E+02  0.00000000000E+00 0.  1.
         11    1    4    4    0    0 -0.66578616042E+02 -0.31538513194E+02 -0.25811467874E+03  0.26842238601E+03  0.00000000000E+00 0. -1.
         21    1    1    2  502  501  0.22285616337E+02  0.64984388539E-01  0.65712169175E+01  0.23234323968E+02  0.00000000000E+00 0.  1.
<scales pt_clust_5="13000.00000" pt_clust_6="13000.00000" pt_clust_7="13000.00000" pt_clust_8="13000.00000" pt_clust_9="22.28571"></scales>
<clustering>
<clus scale="   22.286">  1  9  2 -1</clus>
<clus scale="   91.170">  7  8 -1 -1</clus>
<clus scale="   91.192">  5  6 -1 -1</clus>
<clus scale="  107.312">  2  7  1 -1</clus>
<clus scale="  107.312">  2  5  1 -1</clus>
</clustering>
</event>
<event>
 9    1  0.1266593E-005  0.2366162E+03  0.7546771E-02  0.1122215E+00
         -2   -1    0    0    0  501 -0.00000000000E+00  0.00000000000E+00  0.18964420036E+03  0.18964420036E+03  0.00000000000E+00 0.  1.
          2   -1    0    0  502    0  0.00000000000E+00 -0.00000000000E+00 -0.50988239004E+03  0.50988239004E+03  0.00000000000E+00 0. -1.
         23    2    1    2    0    0 -0.20634325020E+03 -0.69947074929E+02  0.43020432136E+02  0.23988994668E+03  0.90698945644E+02 0.  0.
         23    2    1    2    0    0  0.19721839311E+03  0.10501142068E+03 -0.34084727993E+03  0.41703336209E+03  0.88416422744E+02 0.  0.
        -11    1    3    3    0    0 -0.10003562961E+03 -0.68512696721E+02 -0.88956864861E+01  0.12157405168E+03  0.00000000000E+00 0. -1.
         11    1    3    3    0    0 -0.10630762059E+03 -0.14343782082E+01  0.51916118622E+02  0.11831589500E+03  0.00000000000E+00 0.  1.
        -13    1    4    4    0    0  0.81126213589E+02  0.59685408012E+02 -0.82483158045E+02  0.13018172614E+03  0.00000000000E+00 0.  1.
         13    1    4    4    0    0  0.11609217952E+03  0.45326012668E+02 -0.25836412189E+03  0.28685163595E+03  0.00000000000E+00 0. -1.
         21    1    1    2  502  501  0.91248570927E+01 -0.35064345751E+02 -0.22411341887E+02  0.42603281624E+02  0.00000000000E+00 0. -1.
<scales pt_clust_5="13000.00000" pt_clust_6="13000.00000" pt_clust_7="13000.00000" pt_clust_8="13000.00000" pt_clust_9="36.23219"></scales>
<clustering>
<clus scale="   36.232">  2  9  1 -1</clus>
<clus scale="   88.416">  7  8 -1 -1</clus>
<clus scale="   90.699">  5  6 -1 -1</clus>
<clus scale="  235.751">  2  7  1 -1</clus>
<clus scale="   36.232">  2  5  1 -1</clus>
</clustering>
</event>
<event>
 9    1  0.1266593E-005  0.1042835E+03  0.7546771E-02  0.1277482E+00
         -1   -1    0    0    0  501 -0.00000000000E+00  0.00000000000E+00  0.45801760482E+02  0.45801760482E+02  0.00000000000E+00 0.  1.
          1   -1    0    0  502    0  0.00000000000E+00 -0.00000000000E+00 -0.36652420976E+03  0.36652420976E+03  0.00000000000E+00 0. -1.
         23    2    1    2    0    0 -0.15895125795E+02 -0.37839156431E+02 -0.68996289912E+02  0.12639666899E+03  0.97627727249E+02 0.  0.
         23    2    1    2    0    0  0.35761862028E+02  0.13841412148E+02 -0.22880007585E+03  0.24724876034E+03  0.85510112364E+02 0.  0.
        -11    1    4    4    0    0  0.69780919183E+00 -0.26794642621E+02 -0.25546258691E+02  0.37027707787E+02  0.00000000000E+00 0.  1.
         11    1    4    4    0    0  0.35064052836E+02  0.40636054769E+02 -0.20325381716E+03  0.21022105256E+03  0.00000000000E+00 0. -1.
        -13    1    3    3    0    0 -0.41686352948E+02  0.17161767006E+02 -0.27041308949E+02  0.52569103650E+02  0.00000000000E+00 0.  1.
         13    1    3    3    0    0  0.25791227153E+02 -0.55000923437E+02 -0.41954980962E+02  0.73827565344E+02  0.00000000000E+00 0. -1.
         21    1    1    2  502  501 -0.19866736232E+02  0.23997744283E+02 -0.22926083512E+02  0.38680540901E+02  0.00000000000E+00 0. -1.
<scales pt_clust_5="13000.00000" pt_clust_6="13000.00000" pt_clust_7="13000.00000" pt_clust_8="13000.00000" pt_clust_9="31.15412"></scales>
<clustering>
<clus scale="   31.154">  1  9  2 -1</clus>
<clus scale="   85.510">  5  6 -1 -1</clus>
<clus scale="   93.037">  2  5  1 -1</clus>
<clus scale="   97.628">  7  8 -1 -1</clus>
<clus scale="   93.037">  2  5  1 -1</clus>
</clustering>
</event>
<event>
 9    1  0.1266593E-005  0.2178365E+03  0.7546771E-02  0.1136274E+00
          1   -1    0    0  502    0  0.00000000000E+00  0.00000000000E+00  0.19284933096E+03  0.19284933096E+03  0.00000000000E+00 0. -1.
         -1   -1    0    0    0  501 -0.00000000000E+00 -0.00000000000E+00 -0.36666786614E+03  0.36666786614E+03  0.00000000000E+00 0.  1.
         23    2    1    2    0    0  0.15717877307E+03 -0.10796003802E+03 -0.14132910482E+03  0.25453930942E+03  0.91955465622E+02 0.  0.
         23    2    1    2    0    0 -0.11262280168E+03  0.16392280556E+03  0.72211709062E+01  0.22316103252E+03  0.10096593229E+03 0.  0.
        -13    1    3    3    0    0  0.15822824494E+03 -0.85758062730E+02 -0.95819871502E+02  0.20389230146E+03  0.00000000000E+00 0.  1.
         13    1    3    3    0    0 -0.10494718725E+01 -0.22201975294E+02 -0.45509233318E+02  0.50647007961E+02  0.00000000000E+00 0. -1.
        -13    1    4    4    0    0 -0.21520684423E+02  0.11587109446E+03 -0.11727229750E+02  0.11843470060E+03  0.00000000000E+00 0.  1.
         13    1    4    4    0    0 -0.91102117261E+02  0.48051711101E+02  0.18948400656E+02  0.10472633192E+03  0.00000000000E+00 0. -1.
         21    1    1    2  502  501 -0.44555971381E+02 -0.55962767536E+02 -0.39710601269E+02  0.81816855165E+02  0.00000000000E+00 0. -1.
<scales pt_clust_5="13000.00000" pt_clust_6="13000.00000" pt_clust_7="13000.00000" pt_clust_8="13000.00000" pt_clust_9="71.53367"></scales>
<clustering>
<clus scale="   71.534">  2  9  1 -1</clus>
<clus scale="   91.955">  5  6 -1 -1</clus>
<clus scale="  100.966">  7  8 -1 -1</clus>
<clus scale="  213.809">  2  5  1 -1</clus>
<clus scale="  217.836">  1  5  2 -1</clus>
</clustering>
</event>
<event>
 9    1  0.1266593E-005  0.1921266E+03  0.7546771E-02  0.1156652E+00
          4   -1    0    0  502    0  0.00000000000E+00  0.00000000000E+00  0.28896044376E+03  0.28896044376E+03  0.00000000000E+00 0. -1.
         -4   -1    0    0    0  501 -0.00000000000E+00 -0.00000000000E+00 -0.19275262010E+03  0.19275262010E+03  0.00000000000E+00 0.  1.
         23    2    1    2    0    0  0.26672760483E+02  0.18305827813E+03  0.35619297132E+01  0.20646048107E+03  0.91604986523E+02 0.  0.
         23    2    1    2    0    0 -0.55811653352E+02 -0.15151590175E+03  0.12265090885E+03  0.22286653975E+03  0.92489134303E+02 0.  0.
        -11    1    3    3    0    0  0.29436371372E+02  0.12089467659E+03  0.44309591945E+02  0.13208089463E+03  0.00000000000E+00 0.  1.
         11    1    3    3    0    0 -0.27636108892E+01  0.62163601537E+02 -0.40747662232E+02  0.74379586437E+02  0.00000000000E+00 0. -1.
        -13    1    4    4    0    0 -0.51574773932E+02 -0.71252216291E+02  0.16133282592E+02  0.89426609237E+02  0.00000000000E+00 0.  1.
         13    1    4    4    0    0 -0.42368794201E+01 -0.80263685464E+02  0.10651762626E+03  0.13343993051E+03  0.00000000000E+00 0. -1.
         21    1    1    2  502  501  0.29138892869E+02 -0.31542376377E+02 -0.30005014912E+02  0.52386043036E+02  0.00000000000E+00 0.  1.
<scales pt_clust_5="13000.00000" pt_clust_6="13000.00000" pt_clust_7="13000.00000" pt_clust_8="13000.00000" pt_clust_9="42.94178"></scales>
<clustering>
<clus scale="   42.942">  2  9  1 -1</clus>
<clus scale="   91.605">  5  6 -1 -1</clus>
<clus scale="   92.489">  7  8 -1 -1</clus>
<clus scale="  191.703">  2  5  1 -1</clus>
<clus scale="  192.127">  1  5  2 -1</clus>
</clustering>
</event>
<event>
 9    1  0.1266593E-005  0.1531707E+03  0.7546771E-02  0.1197124E+00
          2   -1    0    0  502    0  0.00000000000E+00  0.00000000000E+00  0.40864480337E+03  0.40864480337E+03  0.00000000000E+00 0. -1.
         -2   -1    0    0    0  501 -0.00000000000E+00 -0.00000000000E+00 -0.40293250766E+03  0.40293250766E+03  0.00000000000E+00 0.  1.
         23    2    1    2    0    0  0.12086182913E+03  0.11088273127E+03 -0.30971007668E+03  0.36254567335E+03  0.92824952641E+02 0.  0.
         23    2    1    2    0    0 -0.63698504087E+02 -0.10188879773E+03  0.35053028159E+03  0.38134780018E+03  0.90087956268E+02 0.  0.
        -11    1    4    4    0    0 -0.62135816120E+02 -0.62307002502E+02  0.12805900102E+03  0.15537737914E+03  0.00000000000E+00 0.  1.
         11    1    4    4    0    0 -0.15626879671E+01 -0.39581795226E+02  0.22247128057E+03  0.22597042104E+03  0.00000000000E+00 0. -1.
        -13    1    3    3    0    0 -0.64391384278E+01  0.39722283719E+02 -0.92991277201E+02  0.10132472533E+03  0.00000000000E+00 0. -1.
         13    1    3    3    0    0  0.12730096756E+03  0.71160447552E+02 -0.21671879948E+03  0.26122094802E+03  0.00000000000E+00 0.  1.
         21    1    1    2  502  501 -0.57163325045E+02 -0.89939335438E+01 -0.35107909206E+02  0.67683837507E+02  0.00000000000E+00 0. -1.
<scales pt_clust_5="13000.00000" pt_clust_6="13000.00000" pt_clust_7="13000.00000" pt_clust_8="13000.00000" pt_clust_9="57.86654"></scales>
<clustering>
<clus scale="   57.867">  2  9  1 -1</clus>
<clus scale="   90.088">  5  6 -1 -1</clus>
<clus scale="   92.825">  7  8 -1 -1</clus>
<clus scale="  151.528">  1  5  2 -1</clus>
<clus scale="  151.528">  1  5  2 -1</clus>
</clustering>
</event>
<event>
 9    1  0.1266593E-005  0.1084784E+03  0.7546771E-02  0.1263630E+00
         -2   -1    0    0    0  501 -0.00000000000E+00  0.00000000000E+00  0.51211251132E+02  0.51211251132E+02  0.00000000000E+00 0.  1.
          2   -1    0    0  502    0  0.00000000000E+00 -0.00000000000E+00 -0.55088291544E+03  0.55088291544E+03  0.00000000000E+00 0. -1.
         23    2    1    2    0    0 -0.18707750522E+02 -0.87317096674E+01 -0.40642362681E+02  0.10101373742E+03  0.90142946589E+02 0.  0.
         23    2    1    2    0    0  0.24925304029E+02  0.66852803417E+02 -0.40626693497E+03  0.42233662403E+03  0.90690867452E+02 0.  0.
        -13    1    4    4    0    0  0.47021034587E+02  0.15621106078E+02 -0.27916710130E+03  0.28353001092E+03  0.00000000000E+00 0. -1.
         13    1    4    4    0    0 -0.22095730559E+02  0.51231697339E+02 -0.12709983368E+03  0.13880661311E+03  0.00000000000E+00 0.  1.
        -13    1    3    3    0    0  0.35200504641E+02  0.53177792874E+01 -0.23768624796E+02  0.42805394849E+02  0.00000000000E+00 0. -1.
         13    1    3    3    0    0 -0.53908255162E+02 -0.14049488955E+02 -0.16873737885E+02  0.58208342570E+02  0.00000000000E+00 0.  1.
         21    1    1    2  502  501 -0.62175535072E+01 -0.58121093750E+02 -0.52762366653E+02  0.78743805122E+02  0.00000000000E+00 0.  1.
<scales pt_clust_5="13000.00000" pt_clust_6="13000.00000" pt_clust_7="13000.00000" pt_clust_8="13000.00000" pt_clust_9="58.45271"></scales>
<clustering>
<clus scale="   58.453">  1  9  2 -1</clus>
<clus scale="   90.143">  7  8 -1 -1</clus>
<clus scale="   90.691">  5  6 -1 -1</clus>
<clus scale="  108.021">  1  7  2 -1</clus>
<clus scale="  108.478">  2  5  1 -1</clus>
</clustering>
</event>
<event>
 9    1  0.1266593E-005  0.1090497E+03  0.7546771E-02  0.1262429E+00
          2   -1    0    0  502    0  0.00000000000E+00  0.00000000000E+00  0.17242750696E+03  0.17242750696E+03  0.00000000000E+00 0. -1.
         -2   -1    0    0    0  501 -0.00000000000E+00 -0.00000000000E+00 -0.10500281743E+03  0.10500281743E+03  0.00000000000E+00 0.  1.
         23    2    1    2    0    0  0.57242300590E+02  0.29587783790E+02  0.24155664887E+02  0.11384754468E+03  0.90695365684E+02 0.  0.
         23    2    1    2    0    0 -0.60884409155E+02  0.39908204624E+01  0.61096939331E+02  0.12539086748E+03  0.90924120698E+02 0.  0.
        -11    1    3    3    0    0 -0.23071625166E+02 -0.53285292956E+01  0.53301106301E+01  0.24271448073E+02  0.00000000000E+00 0. -1.
         11    1    3    3    0    0  0.80313925756E+02  0.34916313085E+02  0.18825554257E+02  0.89576096604E+02  0.00000000000E+00 0.  1.
        -13    1    4    4    0    0 -0.82661550894E+02  0.95984258709E+01  0.60518628183E+02  0.10289589949E+03  0.00000000000E+00 0. -1.
         13    1    4    4    0    0  0.21777141739E+02 -0.56076054084E+01  0.57831114798E+00  0.22494967982E+02  0.00000000000E+00 0.  1.
         21    1    1    2  502  501  0.36421085645E+01 -0.33578604252E+02 -0.17827914693E+02  0.38191912241E+02  0.00000000000E+00 0.  1.
<scales pt_clust_5="13000.00000" pt_clust_6="13000.00000" pt_clust_7="13000.00000" pt_clust_8="13000.00000" pt_clust_9="33.77555"></scales>
<clustering>
<clus scale="   33.776">  2  9  1 -1</clus>
<clus scale="   90.695">  5  6 -1 -1</clus>
<clus scale="   90.924">  7  8 -1 -1</clus>
<clus scale="  108.859">  2  5  1 -1</clus>
<clus scale="  109.050">  1  5  2 -1</clus>
</clustering>
</event>
<event>
 9    1  0.1266593E-005  0.1262766E+03  0.7546771E-02  0.1234728E+00
          2   -1    0    0  502    0  0.00000000000E+00  0.00000000000E+00  0.18486047954E+03  0.18486047954E+03  0.00000000000E+00 0. -1.
         -2   -1    0    0    0  501 -0.00000000000E+00 -0.00000000000E+00 -0.10225309057E+03  0.10225309057E+03  0.00000000000E+00 0.  1.
         23    2    1    2    0    0 -0.68740291879E+02 -0.11776661149E+02  0.23430508895E+02  0.11731821397E+03  0.91381929864E+02 0.  0.
         23    2    1    2    0    0  0.89038523301E+02  0.18574594088E+02  0.64521880021E+02  0.14773183160E+03  0.96895546276E+02 0.  0.
        -11    1    3    3    0    0 -0.80101052111E+02  0.12526497955E+02  0.34740393682E+02  0.88204232628E+02  0.00000000000E+00 0.  1.
         11    1    3    3    0    0  0.11360760232E+02 -0.24303159104E+02 -0.11309884787E+02  0.29113981338E+02  0.00000000000E+00 0. -1.
        -13    1    4    4    0    0  0.45359835400E+02  0.49112242854E+02  0.66639434799E+02  0.94394604380E+02  0.00000000000E+00 0. -1.
         13    1    4    4    0    0  0.43678687900E+02 -0.30537648765E+02 -0.21175547787E+01  0.53337227216E+02  0.00000000000E+00 0.  1.
         21    1    1    2  502  501 -0.20298231422E+02 -0.67979329397E+01 -0.53449999525E+01  0.22063524551E+02  0.00000000000E+00 0.  1.
<scales pt_clust_5="13000.00000" pt_clust_6="13000.00000" pt_clust_7="13000.00000" pt_clust_8="13000.00000" pt_clust_9="21.40631"></scales>
<clustering>
<clus scale="   21.406">  2  9  1 -1</clus>
<clus scale="   91.382">  5  6 -1 -1</clus>
<clus scale="   96.896">  7  8 -1 -1</clus>
<clus scale="  122.097">  2  5  1 -1</clus>
<clus scale="  126.277">  1  5  2 -1</clus>
</clustering>
</event>
<event>
 9    1  0.1266593E-005  0.1122358E+03  0.7546771E-02  0.1256628E+00
          1   -1    0    0  502    0  0.00000000000E+00  0.00000000000E+00  0.48564351631E+03  0.48564351631E+03  0.00000000000E+00 0. -1.
         -1   -1    0    0    0  501 -0.00000000000E+00 -0.00000000000E+00 -0.51643532992E+02  0.51643532992E+02  0.00000000000E+00 0.  1.
         23    2    1    2    0    0  0.63265768089E+02  0.60063171917E+02  0.18542660460E+03  0.22457270967E+03  0.91868026006E+02 0.  0.
         23    2    1    2    0    0 -0.13362284086E+02 -0.52734990278E+02  0.23827095923E+03  0.26123424824E+03  0.92253740360E+02 0.  0.
        -11    1    4    4    0    0  0.85849543541E+01 -0.72780627743E+02  0.13307960487E+03  0.15192400221E+03  0.00000000000E+00 0. -1.
         11    1    4    4    0    0 -0.21947238441E+02  0.20045637465E+02  0.10519135435E+03  0.10931024603E+03  0.00000000000E+00 0.  1.
        -11    1    3    3    0    0  0.55485845369E+02 -0.95864020179E+01  0.75011431500E+02  0.93793885705E+02  0.00000000000E+00 0. -1.
         11    1    3    3    0    0  0.77799227200E+01  0.69649573935E+02  0.11041517310E+03  0.13077882397E+03  0.00000000000E+00 0.  1.
         21    1    1    2  502  501 -0.49903484002E+02 -0.73281816393E+01  0.10302419490E+02  0.51480091386E+02  0.00000000000E+00 0. -1.
<scales pt_clust_5="13000.00000" pt_clust_6="13000.00000" pt_clust_7="13000.00000" pt_clust_8="13000.00000" pt_clust_9="50.43868"></scales>
<clustering>
<clus scale="   50.439">  2  9  1 -1</clus>
<clus scale="   91.868">  7  8 -1 -1</clus>
<clus scale="   92.254">  5  6 -1 -1</clus>
<clus scale="  111.919">  2  7  1 -1</clus>
<clus scale="  112.236">  1  5  2 -1</clus>
</clustering>
</event>
<event>
 9    1  0.1266593E-005  0.1202315E+03  0.7546771E-02  0.1254621E+00
         -2   -1    0    0    0  501 -0.00000000000E+00  0.00000000000E+00  0.39436659932E+02  0.39436659932E+02  0.00000000000E+00 0.  1.
          2   -1    0    0  502    0  0.00000000000E+00 -0.00000000000E+00 -0.69649625330E+03  0.69649625330E+03  0.00000000000E+00 0. -1.
         23    2    1    2    0    0 -0.16870508416E+02  0.40564808776E+02 -0.53292044331E+02  0.10628359485E+03  0.80783926496E+02 0.  0.
         23    2    1    2    0    0  0.14427987102E+02 -0.81473502014E+02 -0.44701827804E+03  0.46763135317E+03  0.10957939233E+03 0.  0.
        -11    1    4    4    0    0  0.40666407376E+02  0.96961235858E+01 -0.11685770940E+03  0.12411082043E+03  0.00000000000E+00 0. -1.
         11    1    4    4    0    0 -0.26238420274E+02 -0.91169625600E+02 -0.33016056864E+03  0.34352053274E+03  0.00000000000E+00 0.  1.
        -13    1    3    3    0    0 -0.19846660222E+02  0.10178449244E+02  0.18043388253E+02  0.28688928364E+02  0.00000000000E+00 0.  1.
         13    1    3    3    0    0  0.29761518062E+01  0.30386359532E+02 -0.71335432585E+02  0.77594666487E+02  0.00000000000E+00 0. -1.
         21    1    1    2  502  501  0.24425213138E+01  0.40908693238E+02 -0.15674927100E+03  0.16201796521E+03  0.00000000000E+00 0.  1.
<scales pt_clust_5="13000.00000" pt_clust_6="13000.00000" pt_clust_7="13000.00000" pt_clust_8="13000.00000" pt_clust_9="40.98155"></scales>
<clustering>
<clus scale="   40.982">  2  9  1 -1</clus>
<clus scale="   80.784">  7  8 -1 -1</clus>
<clus scale="   94.731">  1  7  2 -1</clus>
<clus scale="  109.579">  5  6 -1 -1</clus>
<clus scale="   40.982">  2  5  1 -1</clus>
</clustering>
</event>
<event>
 9    1  0.1266593E-005  0.1085029E+03  0.7546771E-02  0.1263588E+00
          2   -1    0    0  502    0  0.00000000000E+00  0.00000000000E+00  0.33717877011E+03  0.33717877011E+03  0.00000000000E+00 0. -1.
         -2   -1    0    0    0  501 -0.00000000000E+00 -0.00000000000E+00 -0.51751958278E+02  0.51751958278E+02  0.00000000000E+00 0.  1.
         23    2    1    2    0    0  0.41192783319E+02 -0.86838918642E+01  0.92163082948E+02  0.13684965146E+03  0.91986617892E+02 0.  0.
         23    2    1    2    0    0 -0.69067648136E+02 -0.13781651892E+01  0.19050524102E+03  0.22231763734E+03  0.91436566311E+02 0.  0.
        -11    1    4    4    0    0  0.18458236078E+02 -0.14997238677E+02  0.24419927226E+02  0.34087482934E+02  0.00000000000E+00 0.  1.
         11    1    4    4    0    0 -0.87525884214E+02  0.13619073488E+02  0.16608531380E+03  0.18823015441E+03  0.00000000000E+00 0. -1.
        -13    1    3    3    0    0  0.12024981265E+02  0.26552329997E+02  0.85862885806E+02  0.90675584154E+02  0.00000000000E+00 0.  1.
         13    1    3    3    0    0  0.29167802054E+02 -0.35236221861E+02  0.63001971414E+01  0.46174067308E+02  0.00000000000E+00 0. -1.
         21    1    1    2  502  501  0.27874864817E+02  0.10062057053E+02  0.27584878654E+01  0.29763439587E+02  0.00000000000E+00 0.  1.
<scales pt_clust_5="13000.00000" pt_clust_6="13000.00000" pt_clust_7="13000.00000" pt_clust_8="13000.00000" pt_clust_9="29.63534"></scales>
<clustering>
<clus scale="   29.635">  2  9  1 -1</clus>
<clus scale="   91.437">  5  6 -1 -1</clus>
<clus scale="   91.987">  7  8 -1 -1</clus>
<clus scale="  108.037">  1  5  2 -1</clus>
<clus scale="  108.037">  1  5  2 -1</clus>
</clustering>
</event>
<event>
 9    1  0.1266593E-005  0.1460070E+03  0.7546771E-02  0.1205542E+00
         -1   -1    0    0    0  501 -0.00000000000E+00  0.00000000000E+00  0.14637367851E+03  0.14637367851E+03  0.00000000000E+00 0.  1.
          1   -1    0    0  502    0  0.00000000000E+00 -0.00000000000E+00 -0.19010669297E+03  0.19010669297E+03  0.00000000000E+00 0. -1.
         23    2    1    2    0    0  0.88205726699E+02 -0.48074816193E+02 -0.19653476356E+02  0.13759711764E+03  0.91952539255E+02 0.  0.
         23    2    1    2    0    0 -0.10753652608E+03  0.64530128126E+02 -0.49050981119E+02  0.16327384411E+03  0.92326093515E+02 0.  0.
        -11    1    4    4    0    0 -0.11128331058E+03  0.37849064282E+02 -0.62536990442E+02  0.13314429035E+03  0.00000000000E+00 0. -1.
         11    1    4    4    0    0  0.37467844992E+01  0.26681063844E+02  0.13486009323E+02  0.30129553753E+02  0.00000000000E+00 0.  1.
        -13    1    3    3    0    0  0.34173236142E+02  0.71487242474E+01 -0.44388922139E+02  0.56473805746E+02  0.00000000000E+00 0. -1.
         13    1    3    3    0    0  0.54032490557E+02 -0.55223540440E+02  0.24735445783E+02  0.81123311894E+02  0.00000000000E+00 0.  1.
         21    1    1    2  502  501  0.19330799380E+02 -0.16455311933E+02  0.24971443019E+02  0.35609409739E+02  0.00000000000E+00 0.  1.
<scales pt_clust_5="13000.00000" pt_clust_6="13000.00000" pt_clust_7="13000.00000" pt_clust_8="13000.00000" pt_clust_9="25.38616"></scales>
<clustering>
<clus scale="   25.386">  1  9  2 -1</clus>
<clus scale="   91.953">  7  8 -1 -1</clus>
<clus scale="   92.326">  5  6 -1 -1</clus>
<clus scale="  145.771">  1  7  2 -1</clus>
<clus scale="  146.007">  2  5  1 -1</clus>
</clustering>
</event>
<event>
 9    1  0.1266593E-005  0.1282101E+03  0.7546771E-02  0.1245382E+00
          1   -1    0    0  502    0  0.00000000000E+00  0.00000000000E+00  0.11628735683E+03  0.11628735683E+03  0.00000000000E+00 0. -1.
         -1   -1    0    0    0  501 -0.00000000000E+00 -0.00000000000E+00 -0.31953050702E+03  0.31953050702E+03  0.00000000000E+00 0.  1.
         23    2    1    2    0    0  0.53698274274E+02 -0.59081814057E+02 -0.15339072740E+03  0.19552647122E+03  0.91256343804E+02 0.  0.
         23    2    1    2    0    0  0.13277386274E+02 -0.16219840657E+02  0.42934174077E+02  0.10330441928E+03  0.91591962105E+02 0.  0.
        -11    1    4    4    0    0 -0.38406807622E+02  0.20531722208E+01  0.23860190094E+02  0.45261540619E+02  0.00000000000E+00 0.  1.
         11    1    4    4    0    0  0.51684193897E+02 -0.18273012878E+02  0.19073983983E+02  0.58042878662E+02  0.00000000000E+00 0. -1.
        -13    1    3    3    0    0  0.35976642751E+02 -0.36836548060E+02 -0.14133868151E+02  0.53394909172E+02  0.00000000000E+00 0. -1.
         13    1    3    3    0    0  0.17721631523E+02 -0.22245265997E+02 -0.13925685925E+03  0.14213156205E+03  0.00000000000E+00 0.  1.
         21    1    1    2  502  501 -0.66975660548E+02  0.75301654714E+02 -0.92786596867E+02  0.13698697335E+03  0.00000000000E+00 0.  1.
<scales pt_clust_5="13000.00000" pt_clust_6="13000.00000" pt_clust_7="13000.00000" pt_clust_8="13000.00000" pt_clust_9="90.05621"></scales>
<clustering>
<clus scale="   91.256">  7  8 -1 -1</clus>
<clus scale="   91.592">  5  6 -1 -1</clus>
<clus scale="   93.960">  1  5  2 -1</clus>
<clus scale="   90.056">  1  9  2 -1</clus>
<clus scale="   93.960">  1  5  2 -1</clus>
</clustering>
</event>
<event>
 9    1  0.1266593E-005  0.4226475E+03  0.7546771E-02  0.1036238E+00
          2   -1    0    0  502    0  0.00000000000E+00  0.00000000000E+00  0.20996337419E+04  0.20996337419E+04  0.00000000000E+00 0. -1.
         -2   -1    0    0    0  501 -0.00000000000E+00 -0.00000000000E+00 -0.15979076485E+03  0.15979076485E+03  0.00000000000E+00 0.  1.
         23    2    1    2    0    0  0.43520757603E+02 -0.42305459455E+03  0.38543199420E+03  0.58084623243E+03  0.89192361047E+02 0.  0.
         23    2    1    2    0    0 -0.17579379656E+02  0.40903813860E+03  0.15829373176E+04  0.16375518451E+04  0.90907978244E+02 0.  0.
        -11    1    3    3    0    0  0.36875899661E+02 -0.37856754724E+03  0.30050802000E+03  0.48474559295E+03  0.00000000000E+00 0.  1.
         11    1    3    3    0    0  0.66448579428E+01 -0.44487047306E+02  0.84923974203E+02  0.96100639485E+02  0.00000000000E+00 0. -1.
        -11    1    4    4    0    0 -0.15305647866E+02  0.25552481713E+03  0.80899285769E+03  0.84852615683E+03  0.00000000000E+00 0. -1.
         11    1    4    4    0    0 -0.22737317905E+01  0.15351332148E+03  0.77394445987E+03  0.78902568824E+03  0.00000000000E+00 0.  1.
         21    1    1    2  502  501 -0.25941377947E+02  0.14016455941E+02 -0.28526334706E+02  0.41026429271E+02  0.00000000000E+00 0.  1.
<scales pt_clust_5="13000.00000" pt_clust_6="13000.00000" pt_clust_7="13000.00000" pt_clust_8="13000.00000" pt_clust_9="29.48586"></scales>
<clustering>
<clus scale="   29.486">  2  9  1 -1</clus>
<clus scale="   89.192">  5  6 -1 -1</clus>
<clus scale="   90.908">  7  8 -1 -1</clus>
<clus scale="  422.282">  2  5  1 -1</clus>
<clus scale="  422.647">  1  5  2 -1</clus>
</clustering>
</event>
<event>
 9    1  0.1266593E-005  0.1362701E+03  0.7546771E-02  0.1219236E+00
          1   -1    0    0  502    0  0.00000000000E+00  0.00000000000E+00  0.39169448021E+03  0.39169448021E+03  0.00000000000E+00 0. -1.
         -1   -1    0    0    0  501 -0.00000000000E+00 -0.00000000000E+00 -0.91014696632E+02  0.91014696632E+02  0.00000000000E+00 0.  1.
         23    2    1    2    0    0 -0.25719459861E+01  0.11656852378E+03  0.47889458897E+02  0.15599729040E+03  0.91907119943E+02 0.  0.
         23    2    1    2    0    0 -0.72270573118E+01 -0.91852728132E+02  0.26589625836E+03  0.29706974554E+03  0.95186445887E+02 0.  0.
        -13    1    4    4    0    0 -0.23129033373E+02 -0.55503973573E+02  0.51912512792E+02  0.79438984457E+02  0.00000000000E+00 0.  1.
         13    1    4    4    0    0  0.15901976061E+02 -0.36348754559E+02  0.21398374557E+03  0.21763076108E+03  0.00000000000E+00 0. -1.
        -13    1    3    3    0    0 -0.31996076962E+02  0.10719017922E+03  0.18533599549E+02  0.11338861395E+03  0.00000000000E+00 0.  1.
         13    1    3    3    0    0  0.29424130976E+02  0.93783445593E+01  0.29355859348E+02  0.42608676446E+02  0.00000000000E+00 0. -1.
         21    1    1    2  502  501  0.97990032979E+01 -0.24715795644E+02 -0.13105933681E+02  0.29642140908E+02  0.00000000000E+00 0.  1.
<scales pt_clust_5="13000.00000" pt_clust_6="13000.00000" pt_clust_7="13000.00000" pt_clust_8="13000.00000" pt_clust_9="26.58742"></scales>
<clustering>
<clus scale="   26.587">  2  9  1 -1</clus>
<clus scale="   91.907">  7  8 -1 -1</clus>
<clus scale="   95.186">  5  6 -1 -1</clus>
<clus scale="  134.000">  2  7  1 -1</clus>
<clus scale="  136.270">  1  5  2 -1</clus>
</clustering>
</event>
<event>
 9    1  0.1266593E-005  0.1358367E+03  0.7546771E-02  0.1219206E+00
         -3   -1    0    0    0  501 -0.00000000000E+00  0.00000000000E+00  0.76602105619E+02  0.76602105619E+02  0.00000000000E+00 0.  1.
          3   -1    0    0  502    0  0.00000000000E+00 -0.00000000000E+00 -0.42638854956E+03  0.42638854956E+03  0.00000000000E+00 0. -1.
         23    2    1    2    0    0 -0.10536391747E+03 -0.76047019039E+02 -0.10239328673E+03  0.18836873118E+03  0.90076020718E+02 0.  0.
         23    2    1    2    0    0  0.74981026726E+02  0.50532860770E+02 -0.24299682794E+03  0.27470425833E+03  0.90770296721E+02 0.  0.
        -11    1    3    3    0    0 -0.54587471239E+02 -0.15401569490E+02  0.27633936948E+01  0.56785884722E+02  0.00000000000E+00 0.  1.
         11    1    3    3    0    0 -0.50776446230E+02 -0.60645449549E+02 -0.10515668043E+03  0.13158284646E+03  0.00000000000E+00 0. -1.
        -11    1    4    4    0    0  0.43222316754E+02  0.71289575823E+02 -0.12096977809E+03  0.14691514387E+03  0.00000000000E+00 0.  1.
         11    1    4    4    0    0  0.31758709972E+02 -0.20756715053E+02 -0.12202704985E+03  0.12778911445E+03  0.00000000000E+00 0. -1.
         21    1    1    2  502  501  0.30382890743E+02  0.25514158269E+02 -0.43963292686E+01  0.39917665677E+02  0.00000000000E+00 0.  1.
<scales pt_clust_5="13000.00000" pt_clust_6="13000.00000" pt_clust_7="13000.00000" pt_clust_8="13000.00000" pt_clust_9="39.67483"></scales>
<clustering>
<clus scale="   39.675">  1  9  2 -1</clus>
<clus scale="   90.076">  5  6 -1 -1</clus>
<clus scale="   90.770">  7  8 -1 -1</clus>
<clus scale="  135.374">  1  5  2 -1</clus>
<clus scale="  135.837">  2  5  1 -1</clus>
</clustering>
</event>
<event>
 9    1  0.1266593E-005  0.1629447E+03  0.7546771E-02  0.1187077E+00
          3   -1    0    0  502    0  0.00000000000E+00  0.00000000000E+00  0.24341763030E+03  0.24341763030E+03  0.00000000000E+00 0. -1.
         -3   -1    0    0    0  501 -0.00000000000E+00 -0.00000000000E+00 -0.24147292505E+03  0.24147292505E+03  0.00000000000E+00 0.  1.
         23    2    1    2    0    0 -0.11654038873E+03  0.80334312112E+02 -0.13646438263E+03  0.21612605016E+03  0.89736714454E+02 0.  0.
         23    2    1    2    0    0  0.55153491543E+02 -0.11441411152E+03  0.13015974832E+03  0.19806913422E+03  0.78468626243E+02 0.  0.
        -11    1    3    3    0    0 -0.75897783633E+02  0.11553418902E+02 -0.28663821639E+02  0.81948579729E+02  0.00000000000E+00 0. -1.
         11    1    3    3    0    0 -0.40642605100E+02  0.68780893210E+02 -0.10780056099E+03  0.13417747043E+03  0.00000000000E+00 0.  1.
        -13    1    4    4    0    0  0.26246876066E+02  0.16943733864E+01  0.90337258544E+01  0.27809667514E+02  0.00000000000E+00 0.  1.
         13    1    4    4    0    0  0.28906615477E+02 -0.11610848491E+03  0.12112602246E+03  0.17025946671E+03  0.00000000000E+00 0. -1.
         21    1    1    2  502  501  0.61386897190E+02  0.34079799408E+02  0.82493395656E+01  0.70695370977E+02  0.00000000000E+00 0. -1.
<scales pt_clust_5="13000.00000" pt_clust_6="13000.00000" pt_clust_7="13000.00000" pt_clust_8="13000.00000" pt_clust_9="70.21242"></scales>
<clustering>
<clus scale="   70.212">  1  9  2 -1</clus>
<clus scale="   78.469">  7  8 -1 -1</clus>
<clus scale="   89.737">  5  6 -1 -1</clus>
<clus scale="  157.021">  1  7  2 -1</clus>
<clus scale="   70.212">  1  5  2 -1</clus>
</clustering>
</event>
<event>
 9    1  0.1266593E-005  0.1216159E+03  0.7546771E-02  0.1240582E+00
          2   -1    0    0  502    0  0.00000000000E+00  0.00000000000E+00  0.69529694255E+03  0.69529694255E+03  0.00000000000E+00 0. -1.
         -2   -1    0    0    0  501 -0.00000000000E+00 -0.00000000000E+00 -0.46418614696E+02  0.46418614696E+02  0.00000000000E+00 0.  1.
         23    2    1    2    0    0 -0.14611230630E+02 -0.45254390060E+02  0.10941149358E+03  0.14988407635E+03  0.90735403993E+02 0.  0.
         23    2    1    2    0    0 -0.51432900492E+02  0.90037415979E+02  0.45564009657E+03  0.47609787030E+03  0.91154840640E+02 0.  0.
        -11    1    4    4    0    0 -0.40237293585E+02  0.17810592371E+01  0.74263151618E+02  0.84482114411E+02  0.00000000000E+00 0.  1.
         11    1    4    4    0    0 -0.11195606907E+02  0.88256356742E+02  0.38137694495E+03  0.39161575588E+03  0.00000000000E+00 0. -1.
        -13    1    3    3    0    0  0.13358048942E+02 -0.56877007309E+02  0.31681683667E+02  0.66461722156E+02  0.00000000000E+00 0.  1.
         13    1    3    3    0    0 -0.27969279572E+02  0.11622617249E+02  0.77729809909E+02  0.83422354199E+02  0.00000000000E+00 0. -1.
         21    1    1    2  502  501  0.66044131122E+02 -0.44783025919E+02  0.83826737714E+02  0.11573361060E+03  0.00000000000E+00 0. -1.
<scales pt_clust_5="13000.00000" pt_clust_6="13000.00000" pt_clust_7="13000.00000" pt_clust_8="13000.00000" pt_clust_9="79.79566"></scales>
<clustering>
<clus scale="   79.796">  2  9  1 -1</clus>
<clus scale="   90.735">  7  8 -1 -1</clus>
<clus scale="   91.155">  5  6 -1 -1</clus>
<clus scale="  121.302">  2  7  1 -1</clus>
<clus scale="  121.616">  1  5  2 -1</clus>
</clustering>
</event>
<event>
 9    1  0.1266593E-005  0.1037099E+03  0.7546771E-02  0.1274178E+00
         -3   -1    0    0    0  501 -0.00000000000E+00  0.00000000000E+00  0.97574349154E+02  0.97574349154E+02  0.00000000000E+00 0.  1.
          3   -1    0    0  502    0  0.00000000000E+00 -0.00000000000E+00 -0.25407317897E+03  0.25407317897E+03  0.00000000000E+00 0. -1.
         23    2    1    2    0    0  0.21278440731E+02 -0.11620957765E+02 -0.77755677885E+01  0.96374401468E+02  0.92950239938E+02 0.  0.
         23    2    1    2    0    0 -0.51253896012E+02  0.13412151310E+02 -0.18247236484E+03  0.21009859584E+03  0.89657171396E+02 0.  0.
        -11    1    3    3    0    0  0.51816474158E+02  0.15237283953E+02  0.36432328132E+01  0.54133122594E+02  0.00000000000E+00 0.  1.
         11    1    3    3    0    0 -0.30538033427E+02 -0.26858241718E+02 -0.11418800602E+02  0.42241278874E+02  0.00000000000E+00 0. -1.
        -11    1    4    4    0    0 -0.53920136658E+02  0.33796562211E+02 -0.17803617042E+03  0.18906736031E+03  0.00000000000E+00 0. -1.
         11    1    4    4    0    0  0.26662406461E+01 -0.20384410901E+02 -0.44361944163E+01  0.21031235529E+02  0.00000000000E+00 0.  1.
         21    1    1    2  502  501  0.29975455281E+02 -0.17911935446E+01  0.33749102815E+02  0.45174530816E+02  0.00000000000E+00 0.  1.
<scales pt_clust_5="13000.00000" pt_clust_6="13000.00000" pt_clust_7="13000.00000" pt_clust_8="13000.00000" pt_clust_9="30.02892"></scales>
<clustering>
<clus scale="   30.029">  1  9  2 -1</clus>
<clus scale="   89.657">  7  8 -1 -1</clus>
<clus scale="   92.950">  5  6 -1 -1</clus>
<clus scale="  100.769">  2  7  1 -1</clus>
<clus scale="  100.769">  2  5  1 -1</clus>
</clustering>
</event>
<event>
 9    1  0.1266593E-005  0.9137391E+02  0.7546771E-02  0.1300983E+00
          4   -1    0    0  502    0  0.00000000000E+00  0.00000000000E+00  0.15377796952E+03  0.15377796952E+03  0.00000000000E+00 0. -1.
         -4   -1    0    0    0  501 -0.00000000000E+00 -0.00000000000E+00 -0.12420802231E+03  0.12420802231E+03  0.00000000000E+00 0.  1.
         23    2    1    2    0    0  0.23328186488E+02 -0.18105579935E+02  0.11569072921E+01  0.95238843291E+02  0.90537740900E+02 0.  0.
         23    2    1    2    0    0 -0.77359424993E+01 -0.55531098951E+01  0.82870206884E+02  0.12135957072E+03  0.88147560267E+02 0.  0.
        -13    1    4    4    0    0  0.22296152698E+02 -0.22555614196E+02  0.13574004284E+00  0.31715809657E+02  0.00000000000E+00 0.  1.
         13    1    4    4    0    0 -0.30032095197E+02  0.17002504301E+02  0.82734466841E+02  0.89643761065E+02  0.00000000000E+00 0. -1.
        -13    1    3    3    0    0  0.57179108665E+02 -0.14686308572E+02 -0.90338392925E+01  0.59722260335E+02  0.00000000000E+00 0.  1.
         13    1    3    3    0    0 -0.33850922177E+02 -0.34192713629E+01  0.10190746585E+02  0.35516582955E+02  0.00000000000E+00 0. -1.
         21    1    1    2  502  501 -0.15592243989E+02  0.23658689830E+02 -0.54457166964E+02  0.61387577822E+02  0.00000000000E+00 0.  1.
<scales pt_clust_5="13000.00000" pt_clust_6="13000.00000" pt_clust_7="13000.00000" pt_clust_8="13000.00000" pt_clust_9="28.33464"></scales>
<clustering>
<clus scale="   28.335">  2  9  1 -1</clus>
<clus scale="   88.148">  5  6 -1 -1</clus>
<clus scale="   89.006">  1  5  2 -1</clus>
<clus scale="   90.538">  7  8 -1 -1</clus>
<clus scale="   89.006">  1  5  2 -1</clus>
</clustering>
</event>
<event>
 9    1  0.1266593E-005  0.1002001E+03  0.7546771E-02  0.1281157E+00
         -1   -1    0    0    0  501 -0.00000000000E+00  0.00000000000E+00  0.68521437555E+02  0.68521437555E+02  0.00000000000E+00 0.  1.
          1   -1    0    0  502    0  0.00000000000E+00 -0.00000000000E+00 -0.24009717698E+03  0.24009717698E+03  0.00000000000E+00 0. -1.
         23    2    1    2    0    0  0.44248068263E+02 -0.28273111515E+02 -0.69235312683E+02  0.12567450613E+03  0.90792580037E+02 0.  0.
         23    2    1    2    0    0 -0.13820112538E+02  0.24078219279E+02 -0.11411754358E+03  0.15004793701E+03  0.93385295920E+02 0.  0.
        -11    1    4    4    0    0 -0.35034332874E+02  0.61522053666E+00 -0.37533024726E+01  0.35240179564E+02  0.00000000000E+00 0.  1.
         11    1    4    4    0    0  0.21214220337E+02  0.23462998742E+02 -0.11036424111E+03  0.11480775745E+03  0.00000000000E+00 0. -1.
        -13    1    3    3    0    0  0.99449376798E+01  0.30679530811E+02 -0.40218038786E+02  0.51552168141E+02  0.00000000000E+00 0. -1.
         13    1    3    3    0    0  0.34303130583E+02 -0.58952642326E+02 -0.29017273897E+02  0.74122337993E+02  0.00000000000E+00 0.  1.
         21    1    1    2  502  501 -0.30427955726E+02  0.41948922365E+01  0.11777116847E+02  0.32896171384E+02  0.00000000000E+00 0. -1.
<scales pt_clust_5="13000.00000" pt_clust_6="13000.00000" pt_clust_7="13000.00000" pt_clust_8="13000.00000" pt_clust_9="30.71576"></scales>
<clustering>
<clus scale="   30.716">  1  9  2 -1</clus>
<clus scale="   90.793">  7  8 -1 -1</clus>
<clus scale="   93.385">  5  6 -1 -1</clus>
<clus scale="   97.788">  1  7  2 -1</clus>
<clus scale="  100.200">  2  5  1 -1</clus>
</clustering>
</event>
<event>
 9    1  0.1266593E-005  0.9820068E+02  0.7546771E-02  0.1285648E+00
         -2   -1    0    0    0  501 -0.00000000000E+00  0.00000000000E+00  0.24880324493E+02  0.24880324493E+02  0.00000000000E+00 0.  1.
          2   -1    0    0  502    0  0.00000000000E+00 -0.00000000000E+00 -0.75205748226E+03  0.75205748226E+03  0.00000000000E+00 0. -1.
         23    2    1    2    0    0  0.39954041000E+00  0.20261738789E+02 -0.17410271176E+03  0.19736277213E+03  0.90717208345E+02 0.  0.
         23    2    1    2    0    0  0.23738558241E+02 -0.72006235103E+02 -0.38421890331E+03  0.40132707530E+03  0.87697426766E+02 0.  0.
        -11    1    3    3    0    0 -0.36079449429E+02  0.33980114881E+02 -0.66629922980E+02  0.83041685405E+02  0.00000000000E+00 0.  1.
         11    1    3    3    0    0  0.36478989839E+02 -0.13718376093E+02 -0.10747278878E+03  0.11432108673E+03  0.00000000000E+00 0. -1.
        -11    1    4    4    0    0  0.27092673131E+02 -0.16286874284E+01 -0.31234199460E+02  0.41379231217E+02  0.00000000000E+00 0.  1.
         11    1    4    4    0    0 -0.33541148905E+01 -0.70377547674E+02 -0.35298470385E+03  0.35994784408E+03  0.00000000000E+00 0. -1.
         21    1    1    2  502  501 -0.24138098651E+02  0.51744496314E+02 -0.16885554269E+03  0.17824795933E+03  0.00000000000E+00 0. -1.
<scales pt_clust_5="13000.00000" pt_clust_6="13000.00000" pt_clust_7="13000.00000" pt_clust_8="13000.00000" pt_clust_9="57.09764"></scales>
<clustering>
<clus scale="   57.098">  2  9  1 -1</clus>
<clus scale="   87.697">  7  8 -1 -1</clus>
<clus scale="   90.717">  5  6 -1 -1</clus>
<clus scale="   95.418">  2  7  1 -1</clus>
<clus scale="   57.098">  2  5  1 -1</clus>
</clustering>
</event>
<event>
 9    1  0.1266593E-005  0.2023197E+03  0.7546771E-02  0.1174958E+00
         -2   -1    0    0    0  501 -0.00000000000E+00  0.00000000000E+00  0.13860420526E+03  0.13860420526E+03  0.00000000000E+00 0.  1.
          2   -1    0    0  502    0  0.00000000000E+00 -0.00000000000E+00 -0.46519605159E+03  0.46519605159E+03  0.00000000000E+00 0. -1.
         23    2    1    2    0    0 -0.25516572989E+02 -0.47736980502E+02 -0.21825737325E+02  0.10985432977E+03  0.93068233861E+02 0.  0.
         23    2    1    2    0    0  0.15875704229E+03 -0.85495864862E+02 -0.15470397287E+03  0.25306699807E+03  0.87156439261E+02 0.  0.
        -11    1    4    4    0    0  0.55297342904E+02 -0.59789352958E+01 -0.93836858626E+02  0.10908207844E+03  0.00000000000E+00 0.  1.
         11    1    4    4    0    0  0.10345969939E+03 -0.79516929567E+02 -0.60867114243E+02  0.14398491963E+03  0.00000000000E+00 0. -1.
        -13    1    3    3    0    0 -0.43227729430E+02 -0.35269300256E+02 -0.49587890953E+02  0.74642608887E+02  0.00000000000E+00 0. -1.
         13    1    3    3    0    0  0.17711156441E+02 -0.12467680245E+02  0.27762153628E+02  0.35211720879E+02  0.00000000000E+00 0.  1.
         21    1    1    2  502  501 -0.13324046930E+03  0.13323284536E+03 -0.15006213613E+03  0.24087892902E+03  0.00000000000E+00 0.  1.
<scales pt_clust_5="13000.00000" pt_clust_6="13000.00000" pt_clust_7="13000.00000" pt_clust_8="13000.00000" pt_clust_9="182.58426"></scales>
<clustering>
<clus scale="   87.156">  5  6 -1 -1</clus>
<clus scale="   93.068">  7  8 -1 -1</clus>
<clus scale="  107.664">  1  7  2 -1</clus>
<clus scale="  182.584">  1  9  2 -1</clus>
<clus scale="  202.320">  2  5  1 -1</clus>
</clustering>
</event>
<event>
 9    1  0.1266593E-005  0.1070100E+03  0.7546771E-02  0.1267140E+00
         -1   -1    0    0    0  501 -0.00000000000E+00  0.00000000000E+00  0.56601142357E+03  0.56601142357E+03  0.00000000000E+00 0.  1.
          1   -1    0    0  502    0  0.00000000000E+00 -0.00000000000E+00 -0.60072943501E+02  0.60072943501E+02  0.00000000000E+00 0. -1.
         23    2    1    2    0    0 -0.23783367762E+02  0.71325054103E+02  0.35602230474E+03  0.37522001811E+03  0.91571112218E+02 0.  0.
         23    2    1    2    0    0  0.22707282568E+02 -0.47339246796E+02  0.47422207277E+01  0.10371831943E+03  0.89321756362E+02 0.  0.
        -11    1    3    3    0    0 -0.39392403065E+02  0.41975591253E+02  0.32396242189E+03  0.32903702296E+03  0.00000000000E+00 0.  1.
         11    1    3    3    0    0  0.15609035302E+02  0.29349462850E+02  0.32059882844E+02  0.46182995146E+02  0.00000000000E+00 0. -1.
        -13    1    4    4    0    0  0.48547478740E+02 -0.52453598264E+02 -0.12048701554E+02  0.72480403365E+02  0.00000000000E+00 0. -1.
         13    1    4    4    0    0 -0.25840196172E+02  0.51143514681E+01  0.16790922281E+02  0.31237916067E+02  0.00000000000E+00 0.  1.
         21    1    1    2  502  501  0.10760851945E+01 -0.23985807307E+02  0.14517395460E+03  0.14714602953E+03  0.00000000000E+00 0.  1.
<scales pt_clust_5="13000.00000" pt_clust_6="13000.00000" pt_clust_7="13000.00000" pt_clust_8="13000.00000" pt_clust_9="24.00993"></scales>
<clustering>
<clus scale="   24.010">  1  9  2 -1</clus>
<clus scale="   89.322">  7  8 -1 -1</clus>
<clus scale="   91.571">  5  6 -1 -1</clus>
<clus scale="  105.092">  2  7  1 -1</clus>
<clus scale="  105.092">  2  5  1 -1</clus>
</clustering>
</event>
<event>
 9    1  0.1266593E-005  0.1075841E+03  0.7546771E-02  0.1265967E+00
         -1   -1    0    0    0  501 -0.00000000000E+00  0.00000000000E+00  0.33733791183E+02  0.33733791183E+02  0.00000000000E+00 0.  1.
          1   -1    0    0  502    0  0.00000000000E+00 -0.00000000000E+00 -0.76258343470E+03  0.76258343470E+03  0.00000000000E+00 0. -1.
         23    2    1    2    0    0 -0.25217182651E+02 -0.21043888220E+02 -0.11227844310E+03  0.14991743977E+03  0.93755204814E+02 0.  0.
         23    2    1    2    0    0  0.59675920521E+02  0.24125711156E+01 -0.58753034436E+03  0.59763605048E+03  0.91705546731E+02 0.  0.
        -11    1    3    3    0    0  0.18906064294E+02  0.17040696997E+02 -0.78561099775E+02  0.82581299451E+02  0.00000000000E+00 0. -1.
         11    1    3    3    0    0 -0.44123246945E+02 -0.38084585217E+02 -0.33717343329E+02  0.67336140321E+02  0.00000000000E+00 0.  1.
        -13    1    4    4    0    0  0.43220702426E+02  0.45831998009E+02 -0.34209793597E+03  0.34784996615E+03  0.00000000000E+00 0. -1.
         13    1    4    4    0    0  0.16455218095E+02 -0.43419426894E+02 -0.24543240839E+03  0.24978608432E+03  0.00000000000E+00 0.  1.
         21    1    1    2  502  501 -0.34458737870E+02  0.18631317104E+02 -0.29040856062E+02  0.48763735639E+02  0.00000000000E+00 0. -1.
<scales pt_clust_5="13000.00000" pt_clust_6="13000.00000" pt_clust_7="13000.00000" pt_clust_8="13000.00000" pt_clust_9="39.17309"></scales>
<clustering>
<clus scale="   39.173">  1  9  2 -1</clus>
<clus scale="   91.706">  7  8 -1 -1</clus>
<clus scale="   93.755">  5  6 -1 -1</clus>
<clus scale="  105.803">  2  7  1 -1</clus>
<clus scale="  105.803">  2  5  1 -1</clus>
</clustering>
</event>
<event>
 9    1  0.1266593E-005  0.9771880E+02  0.7546771E-02  0.1285718E+00
          2   -1    0    0  502    0  0.00000000000E+00  0.00000000000E+00  0.20752777813E+03  0.20752777813E+03  0.00000000000E+00 0. -1.
         -2   -1    0    0    0  501 -0.00000000000E+00 -0.00000000000E+00 -0.14723409836E+03  0.14723409836E+03  0.00000000000E+00 0.  1.
         23    2    1    2    0    0  0.34108219696E+02  0.31422942949E+02  0.35345273575E+02  0.10990249937E+03  0.93158461826E+02 0.  0.
         23    2    1    2    0    0 -0.18507719828E+02 -0.11972820538E+02  0.11640743501E+03  0.15006255856E+03  0.92098840551E+02 0.  0.
        -11    1    4    4    0    0  0.23182457775E+02 -0.31449690278E+02  0.21517506584E+02  0.44603951133E+02  0.00000000000E+00 0.  1.
         11    1    4    4    0    0 -0.41690177604E+02  0.19476869740E+02  0.94889928426E+02  0.10545860743E+03  0.00000000000E+00 0. -1.
        -13    1    3    3    0    0  0.57135981778E+02 -0.84103125520E+01  0.23814943474E+02  0.62469234857E+02  0.00000000000E+00 0.  1.
         13    1    3    3    0    0 -0.23027762082E+02  0.39833255501E+02  0.11530330101E+02  0.47433264515E+02  0.00000000000E+00 0. -1.
         21    1    1    2  502  501 -0.15600499868E+02 -0.19450122410E+02 -0.91459028812E+02  0.94796818560E+02  0.00000000000E+00 0.  1.
<scales pt_clust_5="13000.00000" pt_clust_6="13000.00000" pt_clust_7="13000.00000" pt_clust_8="13000.00000" pt_clust_9="24.93357"></scales>
<clustering>
<clus scale="   24.934">  2  9  1 -1</clus>
<clus scale="   92.099">  5  6 -1 -1</clus>
<clus scale="   93.158">  7  8 -1 -1</clus>
<clus scale="   96.709">  1  5  2 -1</clus>
<clus scale="   96.709">  1  5  2 -1</clus>
</clustering>
</event>
<event>
 9    1  0.1266593E-005  0.9928238E+02  0.7546771E-02  0.1281912E+00
          1   -1    0    0  502    0  0.00000000000E+00  0.00000000000E+00  0.60794235053E+02  0.60794235053E+02  0.00000000000E+00 0. -1.
         -1   -1    0    0    0  501 -0.00000000000E+00 -0.00000000000E+00 -0.23075430250E+03  0.23075430250E+03  0.00000000000E+00 0.  1.
         23    2    1    2    0    0 -0.17717955236E+02 -0.48300269012E+02 -0.68544106919E+02  0.12565281623E+03  0.91888485178E+02 0.  0.
         23    2    1    2    0    0  0.24893116895E+02  0.14255786725E+02 -0.68394619991E+02  0.11792782946E+03  0.91685626972E+02 0.  0.
        -13    1    3    3    0    0 -0.18697934942E+01 -0.24269441715E+02  0.20654990653E+02  0.31923824454E+02  0.00000000000E+00 0. -1.
         13    1    3    3    0    0 -0.15848161742E+02 -0.24030827298E+02 -0.89199097573E+02  0.93728991774E+02  0.00000000000E+00 0.  1.
        -13    1    4    4    0    0 -0.33456302414E+02  0.12902114399E+02 -0.37521041109E+02  0.51900069876E+02  0.00000000000E+00 0.  1.
         13    1    4    4    0    0  0.58349419310E+02  0.13536723257E+01 -0.30873578882E+02  0.66027759583E+02  0.00000000000E+00 0. -1.
         21    1    1    2  502  501 -0.71751616596E+01  0.34044482287E+02 -0.33021340532E+02  0.47967891861E+02  0.00000000000E+00 0.  1.
<scales pt_clust_5="13000.00000" pt_clust_6="13000.00000" pt_clust_7="13000.00000" pt_clust_8="13000.00000" pt_clust_9="34.79238"></scales>
<clustering>
<clus scale="   34.792">  2  9  1 -1</clus>
<clus scale="   91.686">  7  8 -1 -1</clus>
<clus scale="   91.888">  5  6 -1 -1</clus>
<clus scale="   99.095">  1  7  2 -1</clus>
<clus scale="   99.095">  1  5  2 -1</clus>
</clustering>
</event>
<event>
 9    1  0.1266593E-005  0.1049136E+03  0.7546771E-02  0.1270413E+00
         -1   -1    0    0    0  501 -0.00000000000E+00  0.00000000000E+00  0.72729738537E+03  0.72729738537E+03  0.00000000000E+00 0.  1.
          1   -1    0    0  502    0  0.00000000000E+00 -0.00000000000E+00 -0.20754579447E+03  0.20754579447E+03  0.00000000000E+00 0. -1.
         23    2    1    2    0    0  0.60741525648E+02  0.39290211283E+02  0.67032397832E+03  0.68040788325E+03  0.91582738754E+02 0.  0.
         23    2    1    2    0    0 -0.38815754983E+02 -0.31888348936E+02 -0.18522207358E+03  0.21276843042E+03  0.91867615681E+02 0.  0.
        -11    1    3    3    0    0 -0.22529271199E+02  0.22236339394E+02  0.19120900803E+03  0.19381152598E+03  0.00000000000E+00 0. -1.
         11    1    3    3    0    0  0.83270796847E+02  0.17053871889E+02  0.47911497029E+03  0.48659635727E+03  0.00000000000E+00 0.  1.
        -13    1    4    4    0    0 -0.48930872823E+02  0.13381830947E+02 -0.13590691292E+03  0.14506547726E+03  0.00000000000E+00 0. -1.
         13    1    4    4    0    0  0.10115117840E+02 -0.45270179883E+02 -0.49315160661E+02  0.67702953160E+02  0.00000000000E+00 0.  1.
         21    1    1    2  502  501 -0.21925770665E+02 -0.74018623472E+01  0.34649686158E+02  0.41666866169E+02  0.00000000000E+00 0. -1.
<scales pt_clust_5="13000.00000" pt_clust_6="13000.00000" pt_clust_7="13000.00000" pt_clust_8="13000.00000" pt_clust_9="23.14146"></scales>
<clustering>
<clus scale="   23.141">  1  9  2 -1</clus>
<clus scale="   91.583">  5  6 -1 -1</clus>
<clus scale="   91.868">  7  8 -1 -1</clus>
<clus scale="  104.664">  1  5  2 -1</clus>
<clus scale="  104.914">  2  5  1 -1</clus>
</clustering>
</event>
<event>
 9    1  0.1266593E-005  0.1029947E+03  0.7546771E-02  0.1280029E+00
         -4   -1    0    0    0  501 -0.00000000000E+00  0.00000000000E+00  0.53759145968E+02  0.53759145968E+02  0.00000000000E+00 0.  1.
          4   -1    0    0  502    0  0.00000000000E+00 -0.00000000000E+00 -0.24273078305E+03  0.24273078305E+03  0.00000000000E+00 0. -1.
         23    2    1    2    0    0 -0.23669670630E+02 -0.13439468995E+02 -0.61590110817E+02  0.12217087160E+03  0.10193874378E+03 0.  0.
         23    2    1    2    0    0 -0.18641244836E+01  0.21498367133E+01 -0.92747321044E+02  0.12983356921E+03  0.90810755826E+02 0.  0.
        -11    1    3    3    0    0 -0.54931790707E+02  0.20735111341E+02 -0.40168683364E+02  0.71140491956E+02  0.00000000000E+00 0. -1.
         11    1    3    3    0    0  0.31262120077E+02 -0.34174580336E+02 -0.21421427453E+02  0.51030379647E+02  0.00000000000E+00 0.  1.
        -13    1    4    4    0    0 -0.38992302656E+01 -0.22362372362E+02 -0.10128488808E+03  0.10379743854E+03  0.00000000000E+00 0. -1.
         13    1    4    4    0    0  0.20351057820E+01  0.24512209076E+02  0.85375670324E+01  0.26036130668E+02  0.00000000000E+00 0.  1.
         21    1    1    2  502  501  0.25533795114E+02  0.11289632282E+02 -0.34634205225E+02  0.44485488213E+02  0.00000000000E+00 0. -1.
<scales pt_clust_5="13000.00000" pt_clust_6="13000.00000" pt_clust_7="13000.00000" pt_clust_8="13000.00000" pt_clust_9="27.91828"></scales>
<clustering>
<clus scale="   27.918">  2  9  1 -1</clus>
<clus scale="   90.811">  7  8 -1 -1</clus>
<clus scale="   91.995">  2  7  1 -1</clus>
<clus scale="  101.939">  5  6 -1 -1</clus>
<clus scale="   27.918">  2  5  1 -1</clus>
</clustering>
</event>
<event>
 9    1  0.1266593E-005  0.1506050E+03  0.7546771E-02  0.1200104E+00
         -1   -1    0    0    0  501 -0.00000000000E+00  0.00000000000E+00  0.75276094832E+02  0.75276094832E+02  0.00000000000E+00 0.  1.
          1   -1    0    0  502    0  0.00000000000E+00 -0.00000000000E+00 -0.60002113479E+03  0.60002113479E+03  0.00000000000E+00 0. -1.
         23    2    1    2    0    0 -0.47819601818E+01  0.10976755959E+03 -0.13442178480E+03  0.19551458361E+03  0.89916360540E+02 0.  0.
         23    2    1    2    0    0 -0.24477439940E+02 -0.12225865394E+03 -0.41274874536E+03  0.44085909857E+03  0.91917868038E+02 0.  0.
        -11    1    3    3    0    0 -0.20291883103E+01  0.73858454564E+02 -0.14073464290E+03  0.15895102588E+03  0.00000000000E+00 0.  1.
         11    1    3    3    0    0 -0.27527718715E+01  0.35909105027E+02  0.63128580939E+01  0.36563557733E+02  0.00000000000E+00 0. -1.
        -13    1    4    4    0    0 -0.48974779225E+02 -0.58635590722E+02 -0.13756288560E+03  0.15735377020E+03  0.00000000000E+00 0.  1.
         13    1    4    4    0    0  0.24497339285E+02 -0.63623063223E+02 -0.27518585976E+03  0.28350532838E+03  0.00000000000E+00 0. -1.
         21    1    1    2  502  501  0.29259400121E+02  0.12491094354E+02  0.22425490213E+02  0.38923547435E+02  0.00000000000E+00 0.  1.
<scales pt_clust_5="13000.00000" pt_clust_6="13000.00000" pt_clust_7="13000.00000" pt_clust_8="13000.00000" pt_clust_9="31.81415"></scales>
<clustering>
<clus scale="   31.814">  1  9  2 -1</clus>
<clus scale="   89.916">  5  6 -1 -1</clus>
<clus scale="   91.918">  7  8 -1 -1</clus>
<clus scale="  149.392">  1  5  2 -1</clus>
<clus scale="  150.605">  2  5  1 -1</clus>
</clustering>
</event>
<event>
 9    1  0.1266593E-005  0.1206310E+03  0.7546771E-02  0.1244667E+00
          2   -1    0    0  502    0  0.00000000000E+00  0.00000000000E+00  0.10103844638E+04  0.10103844638E+04  0.00000000000E+00 0. -1.
         -2   -1    0    0    0  501 -0.00000000000E+00 -0.00000000000E+00 -0.17278972445E+02  0.17278972445E+02  0.00000000000E+00 0.  1.
         23    2    1    2    0    0  0.50775912413E+02 -0.18367721432E+02  0.37076953011E+03  0.38781519689E+03  0.10007505189E+03 0.  0.
         23    2    1    2    0    0 -0.70916226171E+02  0.30928199329E+02  0.56615911631E+03  0.57886270213E+03  0.92521447740E+02 0.  0.
        -13    1    4    4    0    0 -0.85130464699E+02  0.24576559418E+01  0.46763945384E+03  0.47533135273E+03  0.00000000000E+00 0.  1.
         13    1    4    4    0    0  0.14214238528E+02  0.28470543387E+02  0.98519662467E+02  0.10353134941E+03  0.00000000000E+00 0. -1.
        -13    1    3    3    0    0 -0.93169126825E+01 -0.18125765380E+02  0.11192418743E+02  0.23251203622E+02  0.00000000000E+00 0.  1.
         13    1    3    3    0    0  0.60092825096E+02 -0.24195605165E+00  0.35957711137E+03  0.36456399327E+03  0.00000000000E+00 0. -1.
         21    1    1    2  502  501  0.20140313758E+02 -0.12560477898E+02  0.56176844965E+02  0.60985537248E+02  0.00000000000E+00 0.  1.
<scales pt_clust_5="13000.00000" pt_clust_6="13000.00000" pt_clust_7="13000.00000" pt_clust_8="13000.00000" pt_clust_9="23.73600"></scales>
<clustering>
<clus scale="   23.736">  2  9  1 -1</clus>
<clus scale="   92.521">  5  6 -1 -1</clus>
<clus scale="  100.075">  7  8 -1 -1</clus>
<clus scale="  114.442">  1  5  2 -1</clus>
<clus scale="  114.442">  1  5  2 -1</clus>
</clustering>
</event>
<event>
 9    1  0.1266593E-005  0.9855477E+02  0.7546771E-02  0.1286091E+00
          1   -1    0    0  502    0  0.00000000000E+00  0.00000000000E+00  0.36155746550E+03  0.36155746550E+03  0.00000000000E+00 0. -1.
         -1   -1    0    0    0  501 -0.00000000000E+00 -0.00000000000E+00 -0.74141867459E+02  0.74141867459E+02  0.00000000000E+00 0.  1.
         23    2    1    2    0    0 -0.71165889496E+01 -0.31796272032E+02 -0.72596179008E+01  0.96352938666E+02  0.90385496536E+02 0.  0.
         23    2    1    2    0    0 -0.25883017352E+02  0.87038273637E+01  0.27895366825E+03  0.29610981165E+03  0.95499656171E+02 0.  0.
        -11    1    3    3    0    0  0.14472542926E+02  0.18067085167E+02 -0.29622348042E+02  0.37594648139E+02  0.00000000000E+00 0.  1.
         11    1    3    3    0    0 -0.21589131875E+02 -0.49863357199E+02  0.22362730141E+02  0.58758290527E+02  0.00000000000E+00 0. -1.
        -11    1    4    4    0    0 -0.42675665509E+02  0.25463175320E+02  0.26268142129E+03  0.26734082145E+03  0.00000000000E+00 0. -1.
         11    1    4    4    0    0  0.16792648157E+02 -0.16759347957E+02  0.16272246962E+02  0.28768990202E+02  0.00000000000E+00 0.  1.
         21    1    1    2  502  501  0.32999606302E+02  0.23092444668E+02  0.15721547695E+02  0.43236582644E+02  0.00000000000E+00 0.  1.
<scales pt_clust_5="13000.00000" pt_clust_6="13000.00000" pt_clust_7="13000.00000" pt_clust_8="13000.00000" pt_clust_9="40.27698"></scales>
<clustering>
<clus scale="   40.277">  2  9  1 -1</clus>
<clus scale="   90.385">  5  6 -1 -1</clus>
<clus scale="   93.608">  2  5  1 -1</clus>
<clus scale="   95.500">  7  8 -1 -1</clus>
<clus scale="   98.555">  1  5  2 -1</clus>
</clustering>
</event>
<event>
 9    1  0.1266593E-005  0.9867696E+02  0.7546771E-02  0.1284139E+00
          1   -1    0    0  502    0  0.00000000000E+00  0.00000000000E+00  0.11774685567E+03  0.11774685567E+03  0.00000000000E+00 0. -1.
         -1   -1    0    0    0  501 -0.00000000000E+00 -0.00000000000E+00 -0.25173117684E+03  0.25173117684E+03  0.00000000000E+00 0.  1.
         23    2    1    2    0    0 -0.21459167449E+02 -0.54604895735E+02 -0.10632284079E+03  0.15402344526E+03  0.94744312283E+02 0.  0.
         23    2    1    2    0    0 -0.26177299196E+02  0.13907350007E+02  0.54924172351E+02  0.11179209056E+03  0.92747730033E+02 0.  0.
        -11    1    4    4    0    0 -0.57553240124E+02  0.73383791673E+01  0.54694155808E+02  0.79735048361E+02  0.00000000000E+00 0. -1.
         11    1    4    4    0    0  0.31375940928E+02  0.65689708398E+01  0.23001654396E+00  0.32057042201E+02  0.00000000000E+00 0.  1.
        -13    1    3    3    0    0  0.52381185551E+01 -0.45978067255E+02 -0.11556354858E+03  0.12448435370E+03  0.00000000000E+00 0.  1.
         13    1    3    3    0    0 -0.26697286004E+02 -0.86268284801E+01  0.92407077958E+01  0.29539091560E+02  0.00000000000E+00 0. -1.
         21    1    1    2  502  501  0.47636466645E+02  0.40697545728E+02 -0.82585652739E+02  0.10366249669E+03  0.00000000000E+00 0.  1.
<scales pt_clust_5="13000.00000" pt_clust_6="13000.00000" pt_clust_7="13000.00000" pt_clust_8="13000.00000" pt_clust_9="62.65400"></scales>
<clustering>
<clus scale="   62.654">  2  9  1 -1</clus>
<clus scale="   92.748">  5  6 -1 -1</clus>
<clus scale="   94.744">  7  8 -1 -1</clus>
<clus scale="   96.762">  1  5  2 -1</clus>
<clus scale="   96.762">  1  5  2 -1</clus>
</clustering>
</event>
<event>
 9    1  0.1266593E-005  0.1051291E+03  0.7546771E-02  0.1270484E+00
          2   -1    0    0  502    0  0.00000000000E+00  0.00000000000E+00  0.10806129298E+03  0.10806129298E+03  0.00000000000E+00 0. -1.
         -2   -1    0    0    0  501 -0.00000000000E+00 -0.00000000000E+00 -0.35439767875E+03  0.35439767875E+03  0.00000000000E+00 0.  1.
         23    2    1    2    0    0 -0.63322154329E+01  0.35275224725E+02 -0.14366113741E+03  0.17345920936E+03  0.90361144740E+02 0.  0.
         23    2    1    2    0    0 -0.21312067204E+02 -0.54098721648E+02  0.60623046265E+02  0.12231184011E+03  0.88905323804E+02 0.  0.
        -11    1    3    3    0    0  0.34620072682E+02  0.42460790595E+02 -0.92812576450E+02  0.10777589024E+03  0.00000000000E+00 0.  1.
         11    1    3    3    0    0 -0.40952288115E+02 -0.71855658701E+01 -0.50848560958E+02  0.65683319117E+02  0.00000000000E+00 0. -1.
        -11    1    4    4    0    0  0.22493371609E+02 -0.17457684569E+02 -0.11160226086E+02  0.30582236072E+02  0.00000000000E+00 0.  1.
         11    1    4    4    0    0 -0.43805438813E+02 -0.36641037079E+02  0.71783272352E+02  0.91729604040E+02  0.00000000000E+00 0. -1.
         21    1    1    2  502  501  0.27644282637E+02  0.18823496923E+02 -0.16329829463E+03  0.16668792226E+03  0.00000000000E+00 0.  1.
<scales pt_clust_5="13000.00000" pt_clust_6="13000.00000" pt_clust_7="13000.00000" pt_clust_8="13000.00000" pt_clust_9="33.44444"></scales>
<clustering>
<clus scale="   33.444">  2  9  1 -1</clus>
<clus scale="   88.905">  7  8 -1 -1</clus>
<clus scale="   90.361">  5  6 -1 -1</clus>
<clus scale="  103.880">  1  7  2 -1</clus>
<clus scale="  103.880">  1  5  2 -1</clus>
</clustering>
</event>
<event>
 9    1  0.1266593E-005  0.1177211E+03  0.7546771E-02  0.1247480E+00
         -1   -1    0    0    0  501 -0.00000000000E+00  0.00000000000E+00  0.10482831442E+03  0.10482831442E+03  0.00000000000E+00 0.  1.
          1   -1    0    0  502    0  0.00000000000E+00 -0.00000000000E+00 -0.44306362867E+03  0.44306362867E+03  0.00000000000E+00 0. -1.
         23    2    1    2    0    0 -0.54781223356E+02  0.48747207448E+02 -0.27690696360E+02  0.11942588813E+03  0.90102693769E+02 0.  0.
         23    2    1    2    0    0  0.39702633608E+02 -0.62680794455E+02 -0.35788917115E+03  0.37686164197E+03  0.91841478947E+02 0.  0.
        -11    1    4    4    0    0 -0.26011459957E+02 -0.24566724050E+02 -0.17849558817E+03  0.18204613419E+03  0.00000000000E+00 0.  1.
         11    1    4    4    0    0  0.65714093566E+02 -0.38114070405E+02 -0.17939358298E+03  0.19481550778E+03  0.00000000000E+00 0. -1.
        -13    1    3    3    0    0  0.13718177068E+02  0.42146052852E+02  0.22466050471E+01  0.44379335138E+02  0.00000000000E+00 0. -1.
         13    1    3    3    0    0 -0.68499400423E+02  0.66011545958E+01 -0.29937301407E+02  0.75046552992E+02  0.00000000000E+00 0.  1.
         21    1    1    2  502  501  0.15078589747E+02  0.13933587007E+02  0.47344553266E+02  0.51604412985E+02  0.00000000000E+00 0. -1.
<scales pt_clust_5="13000.00000" pt_clust_6="13000.00000" pt_clust_7="13000.00000" pt_clust_8="13000.00000" pt_clust_9="20.53068"></scales>
<clustering>
<clus scale="   20.531">  1  9  2 -1</clus>
<clus scale="   90.103">  7  8 -1 -1</clus>
<clus scale="   91.841">  5  6 -1 -1</clus>
<clus scale="  116.370">  1  7  2 -1</clus>
<clus scale="  117.721">  2  5  1 -1</clus>
</clustering>
</event>
<event>
 9    1  0.1266593E-005  0.1719313E+03  0.7546771E-02  0.1176229E+00
         -2   -1    0    0    0  501 -0.00000000000E+00  0.00000000000E+00  0.28883262918E+02  0.28883262918E+02  0.00000000000E+00 0.  1.
          2   -1    0    0  502    0  0.00000000000E+00 -0.00000000000E+00 -0.11988326891E+04  0.11988326891E+04  0.00000000000E+00 0. -1.
         23    2    1    2    0    0 -0.14161154926E+03  0.49557463538E+02 -0.50384059781E+03  0.53348716841E+03  0.90793379588E+02 0.  0.
         23    2    1    2    0    0  0.12427272254E+03 -0.70426228941E+02 -0.55138983244E+03  0.57634499206E+03  0.87972946243E+02 0.  0.
        -11    1    3    3    0    0 -0.61626120870E+02  0.92622795920E+01 -0.34975375722E+03  0.35526224017E+03  0.00000000000E+00 0. -1.
         11    1    3    3    0    0 -0.79985428392E+02  0.40295183946E+02 -0.15408684059E+03  0.17822492824E+03  0.00000000000E+00 0.  1.
        -13    1    4    4    0    0  0.89135120687E+01 -0.22314522935E+02 -0.22610766757E+02  0.32994475364E+02  0.00000000000E+00 0.  1.
         13    1    4    4    0    0  0.11535921047E+03 -0.48111706006E+02 -0.52877906568E+03  0.54335051670E+03  0.00000000000E+00 0. -1.
         21    1    1    2  502  501  0.17338826721E+02  0.20868765403E+02 -0.11471899593E+03  0.11788379154E+03  0.00000000000E+00 0. -1.
<scales pt_clust_5="13000.00000" pt_clust_6="13000.00000" pt_clust_7="13000.00000" pt_clust_8="13000.00000" pt_clust_9="27.13191"></scales>
<clustering>
<clus scale="   27.132">  2  9  1 -1</clus>
<clus scale="   87.973">  7  8 -1 -1</clus>
<clus scale="   90.793">  5  6 -1 -1</clus>
<clus scale="  170.459">  2  7  1 -1</clus>
<clus scale="   27.132">  2  5  1 -1</clus>
</clustering>
</event>
<event>
 9    1  0.1266593E-005  0.1926819E+03  0.7546771E-02  0.1156310E+00
          1   -1    0    0  502    0  0.00000000000E+00  0.00000000000E+00  0.88620340376E+03  0.88620340376E+03  0.00000000000E+00 0. -1.
         -1   -1    0    0    0  501 -0.00000000000E+00 -0.00000000000E+00 -0.10813766365E+03  0.10813766365E+03  0.00000000000E+00 0.  1.
         23    2    1    2    0    0  0.19357797537E+03 -0.26317576770E+02  0.12847742971E+03  0.25002084495E+03  0.88537707052E+02 0.  0.
         23    2    1    2    0    0 -0.15967238254E+03  0.40398133942E+02  0.67430916210E+03  0.70005994881E+03  0.90905483142E+02 0.  0.
        -13    1    3    3    0    0  0.22697919145E+02 -0.12452259603E+02 -0.11849336009E+02  0.28472110329E+02  0.00000000000E+00 0. -1.
         13    1    3    3    0    0  0.17088005622E+03 -0.13865317167E+02  0.14032676572E+03  0.22154873462E+03  0.00000000000E+00 0.  1.
        -13    1    4    4    0    0 -0.12503732745E+03  0.68640742634E+02  0.48449546282E+03  0.50505617341E+03  0.00000000000E+00 0. -1.
         13    1    4    4    0    0 -0.34635055093E+02 -0.28242608692E+02  0.18981369928E+03  0.19500377540E+03  0.00000000000E+00 0.  1.
         21    1    1    2  502  501 -0.33905592827E+02 -0.14080557171E+02 -0.24720851702E+02  0.44260273656E+02  0.00000000000E+00 0. -1.
<scales pt_clust_5="13000.00000" pt_clust_6="13000.00000" pt_clust_7="13000.00000" pt_clust_8="13000.00000" pt_clust_9="36.71309"></scales>
<clustering>
<clus scale="   36.713">  2  9  1 -1</clus>
<clus scale="   88.538">  5  6 -1 -1</clus>
<clus scale="   90.905">  7  8 -1 -1</clus>
<clus scale="  191.576">  2  5  1 -1</clus>
<clus scale="  192.682">  1  5  2 -1</clus>
</clustering>
</event>
<event>
 9    1  0.1266593E-005  0.1539532E+03  0.7546771E-02  0.1195707E+00
         -1   -1    0    0    0  501 -0.00000000000E+00  0.00000000000E+00  0.18737726480E+03  0.18737726480E+03  0.00000000000E+00 0.  1.
          1   -1    0    0  502    0  0.00000000000E+00 -0.00000000000E+00 -0.51087535519E+03  0.51087535519E+03  0.00000000000E+00 0. -1.
         23    2    1    2    0    0  0.27509281639E+02 -0.68482951195E+02  0.20391512327E+01  0.11605016983E+03  0.89536632720E+02 0.  0.
         23    2    1    2    0    0 -0.13178510140E+03  0.60724425170E+02 -0.41241223954E+03  0.44625795202E+03  0.89484834751E+02 0.  0.
        -13    1    4    4    0    0 -0.16277815968E+02  0.47684261542E+02 -0.17183742501E+03  0.17907221093E+03  0.00000000000E+00 0.  1.
         13    1    4    4    0    0 -0.11550728543E+03  0.13040163628E+02 -0.24057481453E+03  0.26718574109E+03  0.00000000000E+00 0. -1.
        -13    1    3    3    0    0 -0.20789204650E+02 -0.35344042989E+02  0.30328784288E+02  0.51002230943E+02  0.00000000000E+00 0. -1.
         13    1    3    3    0    0  0.48298486289E+02 -0.33138908206E+02 -0.28289633055E+02  0.65047938886E+02  0.00000000000E+00 0.  1.
         21    1    1    2  502  501  0.10427581976E+03  0.77585260248E+01  0.86874997925E+02  0.13594449815E+03  0.00000000000E+00 0.  1.
<scales pt_clust_5="13000.00000" pt_clust_6="13000.00000" pt_clust_7="13000.00000" pt_clust_8="13000.00000" pt_clust_9="104.56405"></scales>
<clustering>
<clus scale="   89.485">  5  6 -1 -1</clus>
<clus scale="   89.537">  7  8 -1 -1</clus>
<clus scale="  104.564">  1  9  2 -1</clus>
<clus scale="  153.923">  2  5  1 -1</clus>
<clus scale="  153.923">  2  5  1 -1</clus>
</clustering>
</event>
<event>
 9    1  0.1266593E-005  0.9376222E+02  0.7546771E-02  0.1296241E+00
         -2   -1    0    0    0  501 -0.00000000000E+00  0.00000000000E+00  0.30869550153E+02  0.30869550153E+02  0.00000000000E+00 0.  1.
          2   -1    0    0  502    0  0.00000000000E+00 -0.00000000000E+00 -0.58652866333E+03  0.58652866333E+03  0.00000000000E+00 0. -1.
         23    2    1    2    0    0 -0.24285005653E+02  0.39189355132E+02 -0.24824071581E+03  0.26716248444E+03  0.87331397858E+02 0.  0.
         23    2    1    2    0    0  0.72609813872E+01  0.20362148613E+01 -0.28685101971E+03  0.30111972302E+03  0.91283690020E+02 0.  0.
        -11    1    3    3    0    0  0.10244607676E+02  0.57749882146E+02 -0.13069682034E+03  0.14325382969E+03  0.00000000000E+00 0.  1.
         11    1    3    3    0    0 -0.34529613329E+02 -0.18560527014E+02 -0.11754389547E+03  0.12390865475E+03  0.00000000000E+00 0. -1.
        -13    1    4    4    0    0 -0.30032511916E+02  0.22705099445E+02 -0.20893617423E+03  0.21230119692E+03  0.00000000000E+00 0. -1.
         13    1    4    4    0    0  0.37293493303E+02 -0.20668884583E+02 -0.77914845476E+02  0.88818526098E+02  0.00000000000E+00 0.  1.
         21    1    1    2  502  501  0.17024024266E+02 -0.41225569993E+02 -0.20567377658E+02  0.49116006018E+02  0.00000000000E+00 0.  1.
<scales pt_clust_5="13000.00000" pt_clust_6="13000.00000" pt_clust_7="13000.00000" pt_clust_8="13000.00000" pt_clust_9="44.60230"></scales>
<clustering>
<clus scale="   44.602">  1  9  2 -1</clus>
<clus scale="   87.331">  5  6 -1 -1</clus>
<clus scale="   89.919">  1  5  2 -1</clus>
<clus scale="   91.284">  7  8 -1 -1</clus>
<clus scale="   93.762">  2  5  1 -1</clus>
</clustering>
</event>
<event>
 9    1  0.1266593E-005  0.1075870E+03  0.7546771E-02  0.1265698E+00
          1   -1    0    0  502    0  0.00000000000E+00  0.00000000000E+00  0.14000393511E+03  0.14000393511E+03  0.00000000000E+00 0. -1.
         -1   -1    0    0    0  501 -0.00000000000E+00 -0.00000000000E+00 -0.13197818843E+03  0.13197818843E+03  0.00000000000E+00 0.  1.
         23    2    1    2    0    0  0.23034366941E+02 -0.68118433619E+02 -0.21544090985E+02  0.11854867089E+03  0.91754762564E+02 0.  0.
         23    2    1    2    0    0 -0.22913602036E+02  0.43933288601E+02  0.56300504512E+02  0.11738536847E+03  0.90301776929E+02 0.  0.
        -13    1    3    3    0    0  0.20506855571E+02 -0.40989113587E+02 -0.57439032438E+02  0.73483882624E+02  0.00000000000E+00 0.  1.
         13    1    3    3    0    0  0.25275113700E+01 -0.27129320032E+02  0.35894941453E+02  0.45064788262E+02  0.00000000000E+00 0. -1.
        -13    1    4    4    0    0 -0.56815947852E+02  0.33937158638E+02  0.27004937530E+02  0.71477614103E+02  0.00000000000E+00 0. -1.
         13    1    4    4    0    0  0.33902345816E+02  0.99961299628E+01  0.29295566983E+02  0.45907754366E+02  0.00000000000E+00 0.  1.
         21    1    1    2  502  501 -0.12076490546E+00  0.24185145018E+02 -0.26730666845E+02  0.36048084189E+02  0.00000000000E+00 0. -1.
<scales pt_clust_5="13000.00000" pt_clust_6="13000.00000" pt_clust_7="13000.00000" pt_clust_8="13000.00000" pt_clust_9="24.18545"></scales>
<clustering>
<clus scale="   24.185">  2  9  1 -1</clus>
<clus scale="   90.302">  7  8 -1 -1</clus>
<clus scale="   91.755">  5  6 -1 -1</clus>
<clus scale="  106.351">  1  7  2 -1</clus>
<clus scale="  106.351">  1  5  2 -1</clus>
</clustering>
</event>
<event>
 9    1  0.1266593E-005  0.1097939E+03  0.7546771E-02  0.1261522E+00
         -1   -1    0    0    0  501 -0.00000000000E+00  0.00000000000E+00  0.12557190847E+03  0.12557190847E+03  0.00000000000E+00 0.  1.
          1   -1    0    0  502    0  0.00000000000E+00 -0.00000000000E+00 -0.27254192025E+03  0.27254192025E+03  0.00000000000E+00 0. -1.
         23    2    1    2    0    0 -0.22101424422E+02 -0.70707132695E+02 -0.88411328528E+02  0.14640382988E+03  0.90163999556E+02 0.  0.
         23    2    1    2    0    0  0.40528272285E+02  0.37320913915E+02 -0.13145217092E+03  0.16944427772E+03  0.91631318556E+02 0.  0.
        -11    1    3    3    0    0 -0.23395518310E+02  0.75173146085E+01  0.44562113162E+01  0.24974349145E+02  0.00000000000E+00 0.  1.
         11    1    3    3    0    0  0.12940938873E+01 -0.78224447303E+02 -0.92867539844E+02  0.12142948073E+03  0.00000000000E+00 0. -1.
        -11    1    4    4    0    0  0.23254498456E+02  0.63987803482E+02 -0.58087641966E+02  0.89495166584E+02  0.00000000000E+00 0.  1.
         11    1    4    4    0    0  0.17273773829E+02 -0.26666889567E+02 -0.73364528959E+02  0.79949111132E+02  0.00000000000E+00 0. -1.
         21    1    1    2  502  501 -0.18426847862E+02  0.33386218780E+02  0.72893487675E+02  0.82265721124E+02  0.00000000000E+00 0.  1.
<scales pt_clust_5="13000.00000" pt_clust_6="13000.00000" pt_clust_7="13000.00000" pt_clust_8="13000.00000" pt_clust_9="38.13382"></scales>
<clustering>
<clus scale="   38.134">  1  9  2 -1</clus>
<clus scale="   90.164">  5  6 -1 -1</clus>
<clus scale="   91.631">  7  8 -1 -1</clus>
<clus scale="  108.572">  1  5  2 -1</clus>
<clus scale="  109.794">  2  5  1 -1</clus>
</clustering>
</event>
<event>
 9    1  0.1266593E-005  0.1190405E+03  0.7546771E-02  0.1245469E+00
         -2   -1    0    0    0  501 -0.00000000000E+00  0.00000000000E+00  0.32924302793E+03  0.32924302793E+03  0.00000000000E+00 0.  1.
          2   -1    0    0  502    0  0.00000000000E+00 -0.00000000000E+00 -0.79595066078E+02  0.79595066078E+02  0.00000000000E+00 0. -1.
         23    2    1    2    0    0  0.69692167438E+01  0.58150501791E+02  0.16436945257E+03  0.19723118994E+03  0.91938971642E+02 0.  0.
         23    2    1    2    0    0  0.26565779021E+01 -0.81377276476E+02 -0.17464546130E+01  0.12102278114E+03  0.89521756681E+02 0.  0.
        -11    1    4    4    0    0  0.39049073094E+02 -0.64732029407E+02 -0.18193313935E+02  0.77756430040E+02  0.00000000000E+00 0. -1.
         11    1    4    4    0    0 -0.36392495192E+02 -0.16645247069E+02  0.16446859322E+02  0.43266351104E+02  0.00000000000E+00 0.  1.
        -11    1    3    3    0    0  0.23909663161E+02  0.76932874789E+02  0.14294245223E+03  0.16408194253E+03  0.00000000000E+00 0.  1.
         11    1    3    3    0    0 -0.16940446417E+02 -0.18782372998E+02  0.21427000349E+02  0.33149247416E+02  0.00000000000E+00 0. -1.
         21    1    1    2  502  501 -0.96257946459E+01  0.23226774685E+02  0.87024963887E+02  0.90584122915E+02  0.00000000000E+00 0. -1.
<scales pt_clust_5="13000.00000" pt_clust_6="13000.00000" pt_clust_7="13000.00000" pt_clust_8="13000.00000" pt_clust_9="25.14237"></scales>
<clustering>
<clus scale="   25.142">  1  9  2 -1</clus>
<clus scale="   89.522">  5  6 -1 -1</clus>
<clus scale="   91.939">  7  8 -1 -1</clus>
<clus scale="  117.184">  2  5  1 -1</clus>
<clus scale="  117.184">  2  5  1 -1</clus>
</clustering>
</event>
<event>
 9    1  0.1266593E-005  0.1066944E+03  0.7546771E-02  0.1269246E+00
         -4   -1    0    0    0  501 -0.00000000000E+00  0.00000000000E+00  0.21145688067E+02  0.21145688067E+02  0.00000000000E+00 0.  1.
          4   -1    0    0  502    0  0.00000000000E+00 -0.00000000000E+00 -0.68922628286E+03  0.68922628286E+03  0.00000000000E+00 0. -1.
         23    2    1    2    0    0 -0.24631303830E+02 -0.35148475245E+02 -0.27861627962E+03  0.29596036563E+03  0.90129852518E+02 0.  0.
         23    2    1    2    0    0  0.44023741788E+02  0.29174025936E+02 -0.37176038826E+03  0.38748225843E+03  0.95642567339E+02 0.  0.
        -11    1    4    4    0    0  0.53968734090E+02 -0.11849386371E+02 -0.29259178031E+03  0.29776329882E+03  0.00000000000E+00 0.  1.
         11    1    4    4    0    0 -0.99449923019E+01  0.41023412307E+02 -0.79168607950E+02  0.89718959613E+02  0.00000000000E+00 0. -1.
        -13    1    3    3    0    0  0.10718703731E+02 -0.57178277212E+02 -0.16285217948E+03  0.17293084848E+03  0.00000000000E+00 0.  1.
         13    1    3    3    0    0 -0.35350007561E+02  0.22029801967E+02 -0.11576410013E+03  0.12302951715E+03  0.00000000000E+00 0. -1.
         21    1    1    2  502  501 -0.19392437958E+02  0.59744493083E+01 -0.17703926909E+02  0.26929346863E+02  0.00000000000E+00 0.  1.
<scales pt_clust_5="13000.00000" pt_clust_6="13000.00000" pt_clust_7="13000.00000" pt_clust_8="13000.00000" pt_clust_9="20.29189"></scales>
<clustering>
<clus scale="   20.292">  1  9  2 -1</clus>
<clus scale="   90.130">  7  8 -1 -1</clus>
<clus scale="   95.643">  5  6 -1 -1</clus>
<clus scale="  101.782">  1  7  2 -1</clus>
<clus scale="  106.694">  2  5  1 -1</clus>
</clustering>
</event>
<event>
 9    1  0.1266593E-005  0.1142670E+03  0.7546771E-02  0.1253014E+00
          1   -1    0    0  502    0  0.00000000000E+00  0.00000000000E+00  0.43494318322E+02  0.43494318322E+02  0.00000000000E+00 0. -1.
         -1   -1    0    0    0  501 -0.00000000000E+00 -0.00000000000E+00 -0.50626602943E+03  0.50626602943E+03  0.00000000000E+00 0.  1.
         23    2    1    2    0    0 -0.57719683476E+02 -0.75871518487E+01 -0.27893718031E+03  0.29884314934E+03  0.90067478129E+02 0.  0.
         23    2    1    2    0    0  0.64641228985E+02  0.39549486510E+02 -0.81375129147E+02  0.14336522206E+03  0.90493231157E+02 0.  0.
        -11    1    3    3    0    0 -0.63844644440E+02 -0.38512770936E+02 -0.17478571850E+03  0.19002478665E+03  0.00000000000E+00 0.  1.
         11    1    3    3    0    0  0.61249609642E+01  0.30925619087E+02 -0.10415146180E+03  0.10881836269E+03  0.00000000000E+00 0. -1.
        -13    1    4    4    0    0  0.54974898763E+02  0.14703609930E+02 -0.97002247624E+02  0.11246275687E+03  0.00000000000E+00 0.  1.
         13    1    4    4    0    0  0.96663302223E+01  0.24845876580E+02  0.15627118477E+02  0.30902465191E+02  0.00000000000E+00 0. -1.
         21    1    1    2  502  501 -0.69215455091E+01 -0.31962334662E+02 -0.10245940166E+03  0.10755197635E+03  0.00000000000E+00 0.  1.
<scales pt_clust_5="13000.00000" pt_clust_6="13000.00000" pt_clust_7="13000.00000" pt_clust_8="13000.00000" pt_clust_9="32.70319"></scales>
<clustering>
<clus scale="   32.703">  2  9  1 -1</clus>
<clus scale="   90.067">  5  6 -1 -1</clus>
<clus scale="   90.493">  7  8 -1 -1</clus>
<clus scale="  113.930">  2  5  1 -1</clus>
<clus scale="  114.267">  1  5  2 -1</clus>
</clustering>
</event>
<event>
 9    1  0.1266593E-005  0.9585087E+02  0.7546771E-02  0.1289978E+00
          1   -1    0    0  502    0  0.00000000000E+00  0.00000000000E+00  0.78948972274E+02  0.78948972274E+02  0.00000000000E+00 0. -1.
         -1   -1    0    0    0  501 -0.00000000000E+00 -0.00000000000E+00 -0.24284128050E+03  0.24284128050E+03  0.00000000000E+00 0.  1.
         23    2    1    2    0    0  0.22726436827E+02  0.72335915980E+01 -0.24762126767E+02  0.99257043869E+02  0.93112738426E+02 0.  0.
         23    2    1    2    0    0 -0.18548810558E+02  0.25958569763E+02 -0.20580450688E+02  0.99353621298E+02  0.91813296408E+02 0.  0.
        -11    1    4    4    0    0  0.37554686794E+01  0.35154835821E+02  0.28008483987E+02  0.45104780255E+02  0.00000000000E+00 0. -1.
         11    1    4    4    0    0 -0.22304279237E+02 -0.91962660576E+01 -0.48588934675E+02  0.54248841043E+02  0.00000000000E+00 0.  1.
        -13    1    3    3    0    0  0.30579741409E+02 -0.33145962497E+02 -0.34741701352E+02  0.56927684191E+02  0.00000000000E+00 0.  1.
         13    1    3    3    0    0 -0.78533045822E+01  0.40379554095E+02  0.99795745850E+01  0.42329359677E+02  0.00000000000E+00 0. -1.
         21    1    1    2  502  501 -0.41776262689E+01 -0.33192161361E+02 -0.11854973078E+03  0.12317958761E+03  0.00000000000E+00 0.  1.
<scales pt_clust_5="13000.00000" pt_clust_6="13000.00000" pt_clust_7="13000.00000" pt_clust_8="13000.00000" pt_clust_9="33.45403"></scales>
<clustering>
<clus scale="   33.454">  2  9  1 -1</clus>
<clus scale="   91.813">  5  6 -1 -1</clus>
<clus scale="   93.113">  7  8 -1 -1</clus>
<clus scale="   94.589">  1  5  2 -1</clus>
<clus scale="   94.589">  1  5  2 -1</clus>
</clustering>
</event>
<event>
 9    1  0.1266593E-005  0.1282396E+03  0.7546771E-02  0.1232314E+00
          1   -1    0    0  502    0  0.00000000000E+00  0.00000000000E+00  0.11398849307E+03  0.11398849307E+03  0.00000000000E+00 0. -1.
         -1   -1    0    0    0  501 -0.00000000000E+00 -0.00000000000E+00 -0.37937712789E+03  0.37937712789E+03  0.00000000000E+00 0.  1.
         23    2    1    2    0    0 -0.64228268218E+02  0.82436873574E+02 -0.42496724842E+02  0.14492060615E+03  0.90966487788E+02 0.  0.
         23    2    1    2    0    0  0.63945187914E+02 -0.52745848296E+02  0.63881941217E+01  0.11725028465E+03  0.82678344546E+02 0.  0.
        -13    1    4    4    0    0  0.36298711151E+02 -0.41720380501E+02 -0.35610285966E+02  0.65774455885E+02  0.00000000000E+00 0.  1.
         13    1    4    4    0    0  0.27646476763E+02 -0.11025467795E+02  0.41998480088E+02  0.51475828767E+02  0.00000000000E+00 0. -1.
        -13    1    3    3    0    0 -0.16934343590E+02 -0.18505268219E+02 -0.17765295370E+02  0.30737967797E+02  0.00000000000E+00 0.  1.
         13    1    3    3    0    0 -0.47293924628E+02  0.10094214179E+03 -0.24731429471E+02  0.11418263835E+03  0.00000000000E+00 0. -1.
         21    1    1    2  502  501  0.28308030423E+00 -0.29691025278E+02 -0.22928010411E+03  0.23119473016E+03  0.00000000000E+00 0.  1.
<scales pt_clust_5="13000.00000" pt_clust_6="13000.00000" pt_clust_7="13000.00000" pt_clust_8="13000.00000" pt_clust_9="29.69237"></scales>
<clustering>
<clus scale="   29.692">  2  9  1 -1</clus>
<clus scale="   82.678">  5  6 -1 -1</clus>
<clus scale="   90.966">  7  8 -1 -1</clus>
<clus scale="  122.500">  1  5  2 -1</clus>
<clus scale="  122.500">  1  5  2 -1</clus>
</clustering>
</event>
<event>
 9    1  0.1266593E-005  0.9301203E+02  0.7546771E-02  0.1295868E+00
          4   -1    0    0  502    0  0.00000000000E+00  0.00000000000E+00  0.18326732360E+03  0.18326732360E+03  0.00000000000E+00 0. -1.
         -4   -1    0    0    0  501 -0.00000000000E+00 -0.00000000000E+00 -0.68594989801E+02  0.68594989801E+02  0.00000000000E+00 0.  1.
         23    2    1    2    0    0  0.23558227465E+01  0.29728651630E+02  0.48882763882E+02  0.10768714154E+03  0.91201168965E+02 0.  0.
         23    2    1    2    0    0 -0.19671048907E+02 -0.31766863312E+00  0.56309875735E+02  0.10875360245E+03  0.90936751984E+02 0.  0.
        -11    1    3    3    0    0 -0.27903935525E+02  0.13796634055E+02  0.63327058083E+02  0.70564105709E+02  0.00000000000E+00 0. -1.
         11    1    3    3    0    0  0.30259758271E+02  0.15932017574E+02 -0.14444294201E+02  0.37123035835E+02  0.00000000000E+00 0.  1.
        -13    1    4    4    0    0 -0.48778646441E+02  0.12104784697E+02  0.78390065395E+01  0.50865825312E+02  0.00000000000E+00 0. -1.
         13    1    4    4    0    0  0.29107597534E+02 -0.12422453330E+02  0.48470869195E+02  0.57887777134E+02  0.00000000000E+00 0.  1.
         21    1    1    2  502  501  0.17315226160E+02 -0.29410982997E+02  0.94796941830E+01  0.35421569412E+02  0.00000000000E+00 0.  1.
<scales pt_clust_5="13000.00000" pt_clust_6="13000.00000" pt_clust_7="13000.00000" pt_clust_8="13000.00000" pt_clust_9="34.12950"></scales>
<clustering>
<clus scale="   34.130">  2  9  1 -1</clus>
<clus scale="   90.937">  7  8 -1 -1</clus>
<clus scale="   91.201">  5  6 -1 -1</clus>
<clus scale="   92.753">  1  7  2 -1</clus>
<clus scale="   92.753">  1  5  2 -1</clus>
</clustering>
</event>
<event>
 9    1  0.1266593E-005  0.1710942E+03  0.7546771E-02  0.1203276E+00
          1   -1    0    0  502    0  0.00000000000E+00  0.00000000000E+00  0.48176760257E+03  0.48176760257E+03  0.00000000000E+00 0. -1.
         -1   -1    0    0    0  501 -0.00000000000E+00 -0.00000000000E+00 -0.10307946976E+04  0.10307946976E+04  0.00000000000E+00 0.  1.
         23    2    1    2    0    0 -0.35743635012E+02  0.11868622834E+03  0.31059250524E+03  0.34715775126E+03  0.93202852452E+02 0.  0.
         23    2    1    2    0    0 -0.57304951397E+01  0.18990117829E+02  0.13239360028E+03  0.16302484549E+03  0.93035325033E+02 0.  0.
        -11    1    4    4    0    0 -0.11330527737E+02  0.46770803292E+02  0.29832445902E+02  0.56620347296E+02  0.00000000000E+00 0. -1.
         11    1    4    4    0    0  0.56000325974E+01 -0.27780685463E+02  0.10256115438E+03  0.10640449820E+03  0.00000000000E+00 0.  1.
        -11    1    3    3    0    0  0.26529898379E+02  0.79141074503E+01  0.64549343365E+02  0.70235933351E+02  0.00000000000E+00 0.  1.
         11    1    3    3    0    0 -0.62273533391E+02  0.11077212089E+03  0.24604316188E+03  0.27692181791E+03  0.00000000000E+00 0. -1.
         21    1    1    2  502  501  0.41474130152E+02 -0.13767634617E+03 -0.99201320053E+03  0.10023797034E+04  0.00000000000E+00 0.  1.
<scales pt_clust_5="13000.00000" pt_clust_6="13000.00000" pt_clust_7="13000.00000" pt_clust_8="13000.00000" pt_clust_9="143.47985"></scales>
<clustering>
<clus scale="   93.035">  5  6 -1 -1</clus>
<clus scale="   93.203">  7  8 -1 -1</clus>
<clus scale="   95.126">  1  5  2 -1</clus>
<clus scale="  143.480">  2  9  1 -1</clus>
<clus scale="   95.126">  1  5  2 -1</clus>
</clustering>
</event>
<event>
 9    1  0.1266593E-005  0.1032914E+03  0.7546771E-02  0.1273549E+00
         -1   -1    0    0    0  501 -0.00000000000E+00  0.00000000000E+00  0.21042698120E+03  0.21042698120E+03  0.00000000000E+00 0.  1.
          1   -1    0    0  502    0  0.00000000000E+00 -0.00000000000E+00 -0.11893048954E+03  0.11893048954E+03  0.00000000000E+00 0. -1.
         23    2    1    2    0    0  0.39722574823E+02 -0.58025949272E+01  0.29755291494E+01  0.99385007008E+02  0.90867886439E+02 0.  0.
         23    2    1    2    0    0 -0.52527700420E+02  0.22094561239E+02 -0.28660043960E+02  0.11097335581E+03  0.90809463335E+02 0.  0.
        -13    1    4    4    0    0  0.79270312902E+01  0.25216050995E+02  0.20129021677E+02  0.33224457355E+02  0.00000000000E+00 0.  1.
         13    1    4    4    0    0 -0.60454731710E+02 -0.31214897563E+01 -0.48789065638E+02  0.77748898450E+02  0.00000000000E+00 0. -1.
        -13    1    3    3    0    0 -0.15332683474E+02 -0.26394932699E+02 -0.19758150208E+02  0.36361630249E+02  0.00000000000E+00 0. -1.
         13    1    3    3    0    0  0.55055258297E+02  0.20592337772E+02  0.22733679358E+02  0.63023376759E+02  0.00000000000E+00 0.  1.
         21    1    1    2  502  501  0.12805125597E+02 -0.16291966312E+02  0.11718100648E+03  0.11899910792E+03  0.00000000000E+00 0. -1.
<scales pt_clust_5="13000.00000" pt_clust_6="13000.00000" pt_clust_7="13000.00000" pt_clust_8="13000.00000" pt_clust_9="20.72195"></scales>
<clustering>
<clus scale="   20.722">  1  9  2 -1</clus>
<clus scale="   90.809">  5  6 -1 -1</clus>
<clus scale="   90.868">  7  8 -1 -1</clus>
<clus scale="  103.240">  2  5  1 -1</clus>
<clus scale="  103.240">  2  5  1 -1</clus>
</clustering>
</event>
<event>
 9    1  0.1266593E-005  0.1265020E+03  0.7546771E-02  0.1240345E+00
         -1   -1    0    0    0  501 -0.00000000000E+00  0.00000000000E+00  0.75592430313E+02  0.75592430313E+02  0.00000000000E+00 0.  1.
          1   -1    0    0  502    0  0.00000000000E+00 -0.00000000000E+00 -0.44439175968E+03  0.44439175968E+03  0.00000000000E+00 0. -1.
         23    2    1    2    0    0  0.22864863998E+02 -0.48169626435E+02 -0.48474491041E+02  0.11865464646E+03  0.94265762226E+02 0.  0.
         23    2    1    2    0    0 -0.60049189225E+02 -0.53976791721E+02 -0.22995811556E+03  0.25996933213E+03  0.90465018463E+02 0.  0.
        -13    1    3    3    0    0  0.32121361468E+02  0.15842976340E+02 -0.39560408795E+02  0.53364854594E+02  0.00000000000E+00 0. -1.
         13    1    3    3    0    0 -0.92564974699E+01 -0.64012602775E+02 -0.89140822461E+01  0.65289791864E+02  0.00000000000E+00 0.  1.
        -13    1    4    4    0    0  0.16538580653E+01 -0.49957375182E+02 -0.15465664173E+03  0.16253353935E+03  0.00000000000E+00 0.  1.
         13    1    4    4    0    0 -0.61703047290E+02 -0.40194165394E+01 -0.75301473824E+02  0.97435792778E+02  0.00000000000E+00 0. -1.
         21    1    1    2  502  501  0.37184325227E+02  0.10214641816E+03 -0.90366722767E+02  0.14136021140E+03  0.00000000000E+00 0. -1.
<scales pt_clust_5="13000.00000" pt_clust_6="13000.00000" pt_clust_7="13000.00000" pt_clust_8="13000.00000" pt_clust_9="88.42422"></scales>
<clustering>
<clus scale="   90.465">  7  8 -1 -1</clus>
<clus scale="   94.266">  5  6 -1 -1</clus>
<clus scale="  108.301">  1  5  2 -1</clus>
<clus scale="   88.424">  1  9  2 -1</clus>
<clus scale="  126.502">  2  5  1 -1</clus>
</clustering>
</event>
<event>
 9    1  0.1266593E-005  0.1083129E+03  0.7546771E-02  0.1264987E+00
          2   -1    0    0  502    0  0.00000000000E+00  0.00000000000E+00  0.67419274111E+02  0.67419274111E+02  0.00000000000E+00 0. -1.
         -2   -1    0    0    0  501 -0.00000000000E+00 -0.00000000000E+00 -0.29308611277E+03  0.29308611277E+03  0.00000000000E+00 0.  1.
         23    2    1    2    0    0 -0.75002657522E+02 -0.17204527852E+02 -0.69729575776E+02  0.13612628571E+03  0.88015666276E+02 0.  0.
         23    2    1    2    0    0  0.44714519996E+02 -0.54613065977E+01 -0.52907116491E+02  0.11462336149E+03  0.91159957529E+02 0.  0.
        -11    1    3    3    0    0 -0.92915118381E+02 -0.30059410411E+01 -0.48156933154E+02  0.10469644271E+03  0.00000000000E+00 0.  1.
         11    1    3    3    0    0  0.17912460859E+02 -0.14198586811E+02 -0.21572642622E+02  0.31429843002E+02  0.00000000000E+00 0. -1.
        -11    1    4    4    0    0  0.19292149104E+02 -0.24487268696E+02  0.18657371139E+02  0.36330577247E+02  0.00000000000E+00 0. -1.
         11    1    4    4    0    0  0.25422370892E+02  0.19025962099E+02 -0.71564487630E+02  0.78292784248E+02  0.00000000000E+00 0.  1.
         21    1    1    2  502  501  0.30288137526E+02  0.22665834449E+02 -0.10303014639E+03  0.10975573967E+03  0.00000000000E+00 0.  1.
<scales pt_clust_5="13000.00000" pt_clust_6="13000.00000" pt_clust_7="13000.00000" pt_clust_8="13000.00000" pt_clust_9="37.83003"></scales>
<clustering>
<clus scale="   37.830">  2  9  1 -1</clus>
<clus scale="   88.016">  5  6 -1 -1</clus>
<clus scale="   91.160">  7  8 -1 -1</clus>
<clus scale="  105.680">  2  5  1 -1</clus>
<clus scale="  108.313">  1  5  2 -1</clus>
</clustering>
</event>
<event>
 9    1  0.1266593E-005  0.1046035E+03  0.7546771E-02  0.1275055E+00
         -1   -1    0    0    0  501 -0.00000000000E+00  0.00000000000E+00  0.76272461037E+02  0.76272461037E+02  0.00000000000E+00 0.  1.
          1   -1    0    0  502    0  0.00000000000E+00 -0.00000000000E+00 -0.28952193475E+03  0.28952193475E+03  0.00000000000E+00 0. -1.
         23    2    1    2    0    0 -0.46458682889E+02  0.25135564207E+02  0.16983671997E+02  0.99621792482E+02  0.82739655662E+02 0.  0.
         23    2    1    2    0    0  0.19739979717E+02 -0.33202996978E+02 -0.20725977751E+03  0.23002363075E+03  0.91989942497E+02 0.  0.
        -11    1    3    3    0    0 -0.42779242732E+02 -0.19740248287E+02 -0.85138787187E+01  0.47877209003E+02  0.00000000000E+00 0. -1.
         11    1    3    3    0    0 -0.36794401571E+01  0.44875812494E+02  0.25497550716E+02  0.51744583479E+02  0.00000000000E+00 0.  1.
        -11    1    4    4    0    0  0.25619040969E+02 -0.53209810179E+02 -0.19902817690E+03  0.20760499599E+03  0.00000000000E+00 0. -1.
         11    1    4    4    0    0 -0.58790612524E+01  0.20006813201E+02 -0.82316006057E+01  0.22418634753E+02  0.00000000000E+00 0.  1.
         21    1    1    2  502  501  0.26718703172E+02  0.80674327707E+01 -0.22973368205E+02  0.36148972563E+02  0.00000000000E+00 0.  1.
<scales pt_clust_5="13000.00000" pt_clust_6="13000.00000" pt_clust_7="13000.00000" pt_clust_8="13000.00000" pt_clust_9="27.91008"></scales>
<clustering>
<clus scale="   27.910">  2  9  1 -1</clus>
<clus scale="   82.740">  5  6 -1 -1</clus>
<clus scale="   91.990">  7  8 -1 -1</clus>
<clus scale="   96.569">  1  5  2 -1</clus>
<clus scale="   27.910">  2  5  1 -1</clus>
</clustering>
</event>
<event>
 9    1  0.1266593E-005  0.1517911E+03  0.7546771E-02  0.1198754E+00
         -2   -1    0    0    0  501 -0.00000000000E+00  0.00000000000E+00  0.16287427721E+03  0.16287427721E+03  0.00000000000E+00 0.  1.
          2   -1    0    0  502    0  0.00000000000E+00 -0.00000000000E+00 -0.25828644055E+03  0.25828644055E+03  0.00000000000E+00 0. -1.
         23    2    1    2    0    0  0.62161100875E+01 -0.90482528039E+02  0.26002835532E+02  0.12858079884E+03  0.87356433471E+02 0.  0.
         23    2    1    2    0    0 -0.59690557991E+01  0.13860638228E+03 -0.16210820161E+03  0.22955688241E+03  0.84675465149E+02 0.  0.
        -11    1    3    3    0    0 -0.22830293099E+02 -0.65688357346E+02  0.48008846524E+02  0.84504626609E+02  0.00000000000E+00 0.  1.
         11    1    3    3    0    0  0.29046403186E+02 -0.24794170692E+02 -0.22006010992E+02  0.44076172227E+02  0.00000000000E+00 0. -1.
        -11    1    4    4    0    0  0.16544767471E+02  0.12746422486E+02  0.26003468806E+01  0.21046672439E+02  0.00000000000E+00 0.  1.
         11    1    4    4    0    0 -0.22513823270E+02  0.12585995979E+03 -0.16470854849E+03  0.20851020997E+03  0.00000000000E+00 0. -1.
         21    1    1    2  502  501 -0.24705428834E+00 -0.48123854238E+02  0.40693202736E+02  0.63023036514E+02  0.00000000000E+00 0.  1.
<scales pt_clust_5="13000.00000" pt_clust_6="13000.00000" pt_clust_7="13000.00000" pt_clust_8="13000.00000" pt_clust_9="48.12449"></scales>
<clustering>
<clus scale="   48.124">  1  9  2 -1</clus>
<clus scale="   84.675">  7  8 -1 -1</clus>
<clus scale="   87.356">  5  6 -1 -1</clus>
<clus scale="  150.264">  2  7  1 -1</clus>
<clus scale="  150.264">  2  5  1 -1</clus>
</clustering>
</event>
<event>
 9    1  0.1266593E-005  0.1114165E+03  0.7546771E-02  0.1261098E+00
         -1   -1    0    0    0  501 -0.00000000000E+00  0.00000000000E+00  0.31571814515E+03  0.31571814515E+03  0.00000000000E+00 0.  1.
          1   -1    0    0  502    0  0.00000000000E+00 -0.00000000000E+00 -0.86301223133E+02  0.86301223133E+02  0.00000000000E+00 0. -1.
         23    2    1    2    0    0 -0.49787380866E+02  0.52406932334E+02  0.36454760394E+02  0.11611079769E+03  0.83231592165E+02 0.  0.
         23    2    1    2    0    0  0.52269321345E+02 -0.25542540414E+02  0.19224248913E+02  0.11008844122E+03  0.91462504987E+02 0.  0.
        -13    1    3    3    0    0  0.50873145252E+01  0.36318493520E+02  0.45259562037E+02  0.58252396486E+02  0.00000000000E+00 0.  1.
         13    1    3    3    0    0 -0.54874695391E+02  0.16088438814E+02 -0.88048016427E+01  0.57858401202E+02  0.00000000000E+00 0. -1.
        -13    1    4    4    0    0 -0.21351076840E+02 -0.12634640539E+02  0.24874464332E+02  0.35131774786E+02  0.00000000000E+00 0. -1.
         13    1    4    4    0    0  0.73620398185E+02 -0.12907899875E+02 -0.56502154187E+01  0.74956666431E+02  0.00000000000E+00 0.  1.
         21    1    1    2  502  501 -0.24819404795E+01 -0.26864391920E+02  0.17373791271E+03  0.17582012938E+03  0.00000000000E+00 0.  1.
<scales pt_clust_5="13000.00000" pt_clust_6="13000.00000" pt_clust_7="13000.00000" pt_clust_8="13000.00000" pt_clust_9="26.97880"></scales>
<clustering>
<clus scale="   26.979">  1  9  2 -1</clus>
<clus scale="   83.232">  5  6 -1 -1</clus>
<clus scale="   91.463">  7  8 -1 -1</clus>
<clus scale="  104.765">  1  5  2 -1</clus>
<clus scale="  111.416">  2  5  1 -1</clus>
</clustering>
</event>
<event>
 9    1  0.1266593E-005  0.1216193E+03  0.7546771E-02  0.1240585E+00
         -1   -1    0    0    0  501 -0.00000000000E+00  0.00000000000E+00  0.50729825066E+02  0.50729825066E+02  0.00000000000E+00 0.  1.
          1   -1    0    0  502    0  0.00000000000E+00 -0.00000000000E+00 -0.48585540404E+03  0.48585540404E+03  0.00000000000E+00 0. -1.
         23    2    1    2    0    0  0.59483928014E+01 -0.76409001755E+02 -0.18946095655E+03  0.22323029359E+03  0.89791931674E+02 0.  0.
         23    2    1    2    0    0  0.14191871123E+02  0.85606744366E+02 -0.25888476674E+03  0.28756732385E+03  0.90242558738E+02 0.  0.
        -11    1    3    3    0    0 -0.40751914649E+02 -0.36478180544E+02 -0.10938822188E+03  0.12229946562E+03  0.00000000000E+00 0. -1.
         11    1    3    3    0    0  0.46700307450E+02 -0.39930821210E+02 -0.80072734664E+02  0.10093082797E+03  0.00000000000E+00 0.  1.
        -13    1    4    4    0    0 -0.19732555293E+02  0.43372735665E+02 -0.40414982434E+02  0.62481507205E+02  0.00000000000E+00 0.  1.
         13    1    4    4    0    0  0.33924426416E+02  0.42234008701E+02 -0.21846978431E+03  0.22508581664E+03  0.00000000000E+00 0. -1.
         21    1    1    2  502  501 -0.20140263925E+02 -0.91977426116E+01  0.13220144312E+02  0.25787611672E+02  0.00000000000E+00 0.  1.
<scales pt_clust_5="13000.00000" pt_clust_6="13000.00000" pt_clust_7="13000.00000" pt_clust_8="13000.00000" pt_clust_9="22.14111"></scales>
<clustering>
<clus scale="   22.141">  1  9  2 -1</clus>
<clus scale="   89.792">  5  6 -1 -1</clus>
<clus scale="   90.243">  7  8 -1 -1</clus>
<clus scale="  121.285">  1  5  2 -1</clus>
<clus scale="  121.619">  2  5  1 -1</clus>
</clustering>
</event>
<event>
 9    1  0.1266593E-005  0.9405202E+02  0.7546771E-02  0.1294040E+00
         -1   -1    0    0    0  501 -0.00000000000E+00  0.00000000000E+00  0.17468548998E+03  0.17468548998E+03  0.00000000000E+00 0.  1.
          1   -1    0    0  502    0  0.00000000000E+00 -0.00000000000E+00 -0.12595746155E+03  0.12595746155E+03  0.00000000000E+00 0. -1.
         23    2    1    2    0    0 -0.28015592200E+01 -0.16798475516E+02 -0.70952243615E+01  0.94035301659E+02  0.92207690762E+02 0.  0.
         23    2    1    2    0    0 -0.10524055010E+02 -0.31069753172E+02 -0.33360692651E+02  0.10451594876E+03  0.93458880984E+02 0.  0.
        -11    1    3    3    0    0  0.37668875288E+02 -0.14789541027E+02 -0.27241643798E+02  0.48783007760E+02  0.00000000000E+00 0.  1.
         11    1    3    3    0    0 -0.40470434508E+02 -0.20089344892E+01  0.20146419437E+02  0.45252293899E+02  0.00000000000E+00 0. -1.
        -13    1    4    4    0    0  0.27857711765E+02  0.21860792782E+01  0.17233263621E+02  0.32830114566E+02  0.00000000000E+00 0.  1.
         13    1    4    4    0    0 -0.38381766775E+02 -0.33255832450E+02 -0.50593956272E+02  0.71685834193E+02  0.00000000000E+00 0. -1.
         21    1    1    2  502  501  0.13325614230E+02  0.47868228688E+02  0.89183945445E+02  0.10209170112E+03  0.00000000000E+00 0.  1.
<scales pt_clust_5="13000.00000" pt_clust_6="13000.00000" pt_clust_7="13000.00000" pt_clust_8="13000.00000" pt_clust_9="49.68842"></scales>
<clustering>
<clus scale="   49.688">  1  9  2 -1</clus>
<clus scale="   92.208">  5  6 -1 -1</clus>
<clus scale="   92.809">  1  5  2 -1</clus>
<clus scale="   93.459">  7  8 -1 -1</clus>
<clus scale="   94.052">  2  5  1 -1</clus>
</clustering>
</event>
<event>
 9    1  0.1266593E-005  0.1966615E+03  0.7546771E-02  0.1153688E+00
          1   -1    0    0  502    0  0.00000000000E+00  0.00000000000E+00  0.46419079442E+03  0.46419079442E+03  0.00000000000E+00 0. -1.
         -1   -1    0    0    0  501 -0.00000000000E+00 -0.00000000000E+00 -0.44459384956E+03  0.44459384956E+03  0.00000000000E+00 0.  1.
         23    2    1    2    0    0  0.16071527923E+03 -0.69696485248E+02 -0.34855247779E+03  0.40061764706E+03  0.91206734025E+02 0.  0.
         23    2    1    2    0    0 -0.14989739540E+03  0.88854109957E+02  0.41461090212E+03  0.45675969910E+03  0.79768042266E+02 0.  0.
        -13    1    4    4    0    0 -0.83297075444E+02  0.39587994775E+02  0.12377965272E+03  0.15436001599E+03  0.00000000000E+00 0.  1.
         13    1    4    4    0    0 -0.66600319952E+02  0.49266115182E+02  0.29083124940E+03  0.30239968311E+03  0.00000000000E+00 0. -1.
        -13    1    3    3    0    0  0.15829734663E+03 -0.35349119250E+02 -0.30084194496E+03  0.34177987950E+03  0.00000000000E+00 0.  1.
         13    1    3    3    0    0  0.24179325941E+01 -0.34347365998E+02 -0.47710532831E+02  0.58837767565E+02  0.00000000000E+00 0. -1.
         21    1    1    2  502  501 -0.10817883830E+02 -0.19157624710E+02 -0.46461479462E+02  0.51407297817E+02  0.00000000000E+00 0.  1.
<scales pt_clust_5="13000.00000" pt_clust_6="13000.00000" pt_clust_7="13000.00000" pt_clust_8="13000.00000" pt_clust_9="22.00094"></scales>
<clustering>
<clus scale="   22.001">  2  9  1 -1</clus>
<clus scale="   79.768">  5  6 -1 -1</clus>
<clus scale="   91.207">  7  8 -1 -1</clus>
<clus scale="  191.625">  1  5  2 -1</clus>
<clus scale="  191.625">  1  5  2 -1</clus>
</clustering>
</event>
<event>
 9    1  0.1266593E-005  0.1333325E+03  0.7546771E-02  0.1222977E+00
         -2   -1    0    0    0  501 -0.00000000000E+00  0.00000000000E+00  0.90186394566E+02  0.90186394566E+02  0.00000000000E+00 0.  1.
          2   -1    0    0  502    0  0.00000000000E+00 -0.00000000000E+00 -0.33619188671E+03  0.33619188671E+03  0.00000000000E+00 0. -1.
         23    2    1    2    0    0  0.68476322176E+01  0.11646323498E+03 -0.83707931080E+02  0.17050561985E+03  0.91948754778E+02 0.  0.
         23    2    1    2    0    0 -0.36212418563E+02 -0.81223465917E+02 -0.16708143750E+03  0.20975306175E+03  0.90396623195E+02 0.  0.
        -11    1    4    4    0    0 -0.40483175080E+02  0.45405337162E+01 -0.59359241448E+02  0.71993218127E+02  0.00000000000E+00 0.  1.
         11    1    4    4    0    0  0.42707565169E+01 -0.85763999634E+02 -0.10772219605E+03  0.13775984362E+03  0.00000000000E+00 0. -1.
        -13    1    3    3    0    0 -0.70675033355E+00  0.39038697301E+02  0.17556166727E+02  0.42810493727E+02  0.00000000000E+00 0.  1.
         13    1    3    3    0    0  0.75543825512E+01  0.77424537678E+02 -0.10126409781E+03  0.12769512612E+03  0.00000000000E+00 0. -1.
         21    1    1    2  502  501  0.29364786345E+02 -0.35239769061E+02  0.47838764319E+01  0.46119599676E+02  0.00000000000E+00 0. -1.
<scales pt_clust_5="13000.00000" pt_clust_6="13000.00000" pt_clust_7="13000.00000" pt_clust_8="13000.00000" pt_clust_9="45.87082"></scales>
<clustering>
<clus scale="   45.871">  1  9  2 -1</clus>
<clus scale="   90.397">  5  6 -1 -1</clus>
<clus scale="   91.949">  7  8 -1 -1</clus>
<clus scale="  132.267">  2  5  1 -1</clus>
<clus scale="  132.267">  2  5  1 -1</clus>
</clustering>
</event>
<event>
 9    1  0.4014382E-005  0.1070266E+03  0.7546771E-02  0.1266899E+00
          2   -1    0    0  502    0  0.00000000000E+00  0.00000000000E+00  0.48321155368E+03  0.48321155368E+03  0.00000000000E+00 0. -1.
         -2   -1    0    0    0  501 -0.00000000000E+00 -0.00000000000E+00 -0.10046199038E+03  0.10046199038E+03  0.00000000000E+00 0.  1.
         23    2    1    2    0    0  0.53214793732E+02  0.17582440171E+02 -0.57211602083E+02  0.12033538651E+03  0.89813592280E+02 0.  0.
         23    2    1    2    0    0 -0.51003553466E+02  0.55591798033E+01  0.41930054586E+03  0.43223694604E+03  0.91561797778E+02 0.  0.
        -11    1    3    3    0    0  0.25816594400E+02  0.37976911197E+02 -0.70122917885E+02  0.83821035207E+02  0.00000000000E+00 0.  1.
         11    1    3    3    0    0  0.27398199332E+02 -0.20394471026E+02  0.12911315802E+02  0.36514351299E+02  0.00000000000E+00 0. -1.
        -13    1    4    4    0    0 -0.72508212893E+02 -0.65651325373E+01  0.37006817856E+03  0.37716176726E+03  0.00000000000E+00 0. -1.
         13    1    4    4    0    0  0.21504659427E+02  0.12124312341E+02  0.49232367304E+02  0.55075178776E+02  0.00000000000E+00 0.  1.
         21    1    1    2  502  501 -0.22112402652E+01 -0.23141619975E+02  0.20660619520E+02  0.31101211512E+02  0.00000000000E+00 0. -1.
<scales pt_clust_5="13000.00000" pt_clust_6="13000.00000" pt_clust_7="13000.00000" pt_clust_8="13000.00000" pt_clust_9="23.24702"></scales>
<clustering>
<clus scale="   23.247">  1  9  2 -1</clus>
<clus scale="   89.814">  5  6 -1 -1</clus>
<clus scale="   91.562">  7  8 -1 -1</clus>
<clus scale="  105.535">  2  5  1 -1</clus>
<clus scale="   23.247">  1  5  2 -1</clus>
</clustering>
</event>
<event>
 9    1  0.1266593E-005  0.1056264E+03  0.7546771E-02  0.1280206E+00
         -1   -1    0    0    0  501 -0.00000000000E+00  0.00000000000E+00  0.33724771879E+02  0.33724771879E+02  0.00000000000E+00 0.  1.
          1   -1    0    0  502    0  0.00000000000E+00 -0.00000000000E+00 -0.47869542462E+03  0.47869542462E+03  0.00000000000E+00 0. -1.
         23    2    1    2    0    0 -0.16506918187E+02 -0.28286237265E+02 -0.16843627556E+03  0.19595249466E+03  0.94625639611E+02 0.  0.
         23    2    1    2    0    0  0.35405513573E+02  0.41194862840E+02 -0.27947578351E+03  0.29339301022E+03  0.70867325060E+02 0.  0.
        -11    1    3    3    0    0  0.21411554032E+02  0.12248036603E+02 -0.76052284405E+01  0.25812953073E+02  0.00000000000E+00 0.  1.
         11    1    3    3    0    0 -0.37918472220E+02 -0.40534273868E+02 -0.16083104712E+03  0.17013954159E+03  0.00000000000E+00 0. -1.
        -13    1    4    4    0    0  0.12649234299E+02  0.58689101948E+02 -0.17325051590E+03  0.18335799703E+03  0.00000000000E+00 0.  1.
         13    1    4    4    0    0  0.22756279274E+02 -0.17494239108E+02 -0.10622526761E+03  0.11003501319E+03  0.00000000000E+00 0. -1.
         21    1    1    2  502  501 -0.18898595385E+02 -0.12908625575E+02  0.29414063379E+01  0.23074691613E+02  0.00000000000E+00 0. -1.
<scales pt_clust_5="13000.00000" pt_clust_6="13000.00000" pt_clust_7="13000.00000" pt_clust_8="13000.00000" pt_clust_9="22.88645"></scales>
<clustering>
<clus scale="   22.886">  1  9  2 -1</clus>
<clus scale="   70.867">  7  8 -1 -1</clus>
<clus scale="   85.001">  2  7  1 -1</clus>
<clus scale="   94.626">  5  6 -1 -1</clus>
<clus scale="   85.001">  2  5  1 -1</clus>
</clustering>
</event>
<event>
 9    1  0.1266593E-005  0.9889498E+02  0.7546771E-02  0.1282639E+00
          2   -1    0    0  502    0  0.00000000000E+00  0.00000000000E+00  0.90244993041E+03  0.90244993041E+03  0.00000000000E+00 0. -1.
         -2   -1    0    0    0  501 -0.00000000000E+00 -0.00000000000E+00 -0.34477142329E+02  0.34477142329E+02  0.00000000000E+00 0.  1.
         23    2    1    2    0    0 -0.89747877276E+00  0.53161857151E+02  0.48388343021E+03  0.49515607866E+03  0.90605627180E+02 0.  0.
         23    2    1    2    0    0 -0.12514547854E+01 -0.26416757653E+02  0.39972345575E+03  0.41071711704E+03  0.90610694319E+02 0.  0.
        -11    1    3    3    0    0 -0.42248552133E+02  0.15552740304E+02  0.14945090692E+03  0.15608459715E+03  0.00000000000E+00 0.  1.
         11    1    3    3    0    0  0.41351073361E+02  0.37609116847E+02  0.33443252329E+03  0.33907148151E+03  0.00000000000E+00 0. -1.
        -11    1    4    4    0    0 -0.37888871481E+02 -0.38734259625E+02  0.19559408529E+03  0.20296047805E+03  0.00000000000E+00 0.  1.
         11    1    4    4    0    0  0.36637416696E+02  0.12317501972E+02  0.20412937047E+03  0.20775663899E+03  0.00000000000E+00 0. -1.
         21    1    1    2  502  501  0.21489335582E+01 -0.26745099498E+02 -0.15634097884E+02  0.31053877041E+02  0.00000000000E+00 0.  1.
<scales pt_clust_5="13000.00000" pt_clust_6="13000.00000" pt_clust_7="13000.00000" pt_clust_8="13000.00000" pt_clust_9="26.83129"></scales>
<clustering>
<clus scale="   26.831">  2  9  1 -1</clus>
<clus scale="   90.606">  5  6 -1 -1</clus>
<clus scale="   90.611">  7  8 -1 -1</clus>
<clus scale="   98.890">  2  5  1 -1</clus>
<clus scale="   98.895">  1  5  2 -1</clus>
</clustering>
</event>
<event>
 9    1  0.1266593E-005  0.1398848E+03  0.7546771E-02  0.1224031E+00
         -1   -1    0    0    0  501 -0.00000000000E+00  0.00000000000E+00  0.11666245720E+03  0.11666245720E+03  0.00000000000E+00 0.  1.
          1   -1    0    0  502    0  0.00000000000E+00 -0.00000000000E+00 -0.84566549180E+03  0.84566549180E+03  0.00000000000E+00 0. -1.
         23    2    1    2    0    0 -0.59623018224E+00  0.63283416491E+02  0.57829681133E+02  0.12608884302E+03  0.92460683654E+02 0.  0.
         23    2    1    2    0    0 -0.10677446074E+03 -0.14684810259E+02 -0.59302322430E+03  0.60940787187E+03  0.89916520293E+02 0.  0.
        -11    1    3    3    0    0 -0.24453380235E+02  0.57491476176E+02 -0.84879273788E+00  0.62481662005E+02  0.00000000000E+00 0. -1.
         11    1    3    3    0    0  0.23857150052E+02  0.57919403154E+01  0.58678473871E+02  0.63607181018E+02  0.00000000000E+00 0.  1.
        -13    1    4    4    0    0 -0.86391898699E+01 -0.26785923401E+02 -0.49308924087E+02  0.56775798442E+02  0.00000000000E+00 0.  1.
         13    1    4    4    0    0 -0.98135270874E+02  0.12101113142E+02 -0.54371430021E+03  0.55263207343E+03  0.00000000000E+00 0. -1.
         21    1    1    2  502  501  0.10737069093E+03 -0.48598606232E+02 -0.19380949144E+03  0.22683123411E+03  0.00000000000E+00 0.  1.
<scales pt_clust_5="13000.00000" pt_clust_6="13000.00000" pt_clust_7="13000.00000" pt_clust_8="13000.00000" pt_clust_9="107.15765"></scales>
<clustering>
<clus scale="   89.917">  7  8 -1 -1</clus>
<clus scale="   92.461">  5  6 -1 -1</clus>
<clus scale="  112.045">  1  5  2 -1</clus>
<clus scale="  107.158">  1  9  2 -1</clus>
<clus scale="  139.885">  2  5  1 -1</clus>
</clustering>
</event>
<event>
 9    1  0.1266593E-005  0.1328234E+03  0.7546771E-02  0.1226068E+00
         -2   -1    0    0    0  501 -0.00000000000E+00  0.00000000000E+00  0.27318306255E+03  0.27318306255E+03  0.00000000000E+00 0.  1.
          2   -1    0    0  502    0  0.00000000000E+00 -0.00000000000E+00 -0.54176360176E+03  0.54176360176E+03  0.00000000000E+00 0. -1.
         23    2    1    2    0    0 -0.96389041297E+02 -0.68188940472E-01 -0.97535595223E+02  0.15727757689E+03  0.77020724002E+02 0.  0.
         23    2    1    2    0    0  0.56667967693E+02  0.10304752440E+03 -0.38759922821E+03  0.41460887834E+03  0.88528579797E+02 0.  0.
        -11    1    3    3    0    0 -0.19629809498E+02  0.67834225149E+01  0.11513127061E+02  0.23746501567E+02  0.00000000000E+00 0.  1.
         11    1    3    3    0    0 -0.76759231799E+02 -0.68516114554E+01 -0.10904872228E+03  0.13353107533E+03  0.00000000000E+00 0. -1.
        -13    1    4    4    0    0  0.21678740536E+02 -0.10977925128E+02 -0.10677421277E+03  0.10950440696E+03  0.00000000000E+00 0.  1.
         13    1    4    4    0    0  0.34989227157E+02  0.11402544953E+03 -0.28082501544E+03  0.30510447138E+03  0.00000000000E+00 0. -1.
         21    1    1    2  502  501  0.39721073603E+02 -0.10297933546E+03  0.21655428422E+03  0.24306020907E+03  0.00000000000E+00 0.  1.
<scales pt_clust_5="13000.00000" pt_clust_6="13000.00000" pt_clust_7="13000.00000" pt_clust_8="13000.00000" pt_clust_9="110.37440"></scales>
<clustering>
<clus scale="   77.021">  5  6 -1 -1</clus>
<clus scale="   88.529">  7  8 -1 -1</clus>
<clus scale="  110.374">  1  9  2 -1</clus>
<clus scale="  125.447">  1  5  2 -1</clus>
<clus scale="  132.823">  2  5  1 -1</clus>
</clustering>
</event>
<event>
 9    1  0.1266593E-005  0.1440580E+03  0.7546771E-02  0.1210003E+00
         -2   -1    0    0    0  501 -0.00000000000E+00  0.00000000000E+00  0.87036453009E+02  0.87036453009E+02  0.00000000000E+00 0.  1.
          2   -1    0    0  502    0  0.00000000000E+00 -0.00000000000E+00 -0.33196223920E+03  0.33196223920E+03  0.00000000000E+00 0. -1.
         23    2    1    2    0    0  0.18519609260E+02  0.10349780695E+03 -0.11860078420E+03  0.18892337089E+03  0.10281596221E+03 0.  0.
         23    2    1    2    0    0 -0.40408337319E+02 -0.90326736153E+02 -0.14445406527E+03  0.19875030803E+03  0.94036987297E+02 0.  0.
        -13    1    3    3    0    0  0.41332095877E+01  0.68699824552E+02 -0.47278445358E+01  0.68986243766E+02  0.00000000000E+00 0.  1.
         13    1    3    3    0    0  0.14386399672E+02  0.34797982401E+02 -0.11387293967E+03  0.11993712713E+03  0.00000000000E+00 0. -1.
        -13    1    4    4    0    0 -0.29140642282E+02 -0.10761139859E+03 -0.13740817277E+03  0.17694743876E+03  0.00000000000E+00 0. -1.
         13    1    4    4    0    0 -0.11267695037E+02  0.17284662441E+02 -0.70458924958E+01  0.21802869266E+02  0.00000000000E+00 0.  1.
         21    1    1    2  502  501  0.21888728059E+02 -0.13171070800E+02  0.18129063282E+02  0.31325013289E+02  0.00000000000E+00 0.  1.
<scales pt_clust_5="13000.00000" pt_clust_6="13000.00000" pt_clust_7="13000.00000" pt_clust_8="13000.00000" pt_clust_9="25.54591"></scales>
<clustering>
<clus scale="   25.546">  1  9  2 -1</clus>
<clus scale="   94.037">  7  8 -1 -1</clus>
<clus scale="  102.816">  5  6 -1 -1</clus>
<clus scale="  137.930">  2  7  1 -1</clus>
<clus scale="  137.930">  2  5  1 -1</clus>
</clustering>
</event>
<event>
 9    1  0.1266593E-005  0.9645062E+02  0.7546771E-02  0.1298476E+00
          1   -1    0    0  502    0  0.00000000000E+00  0.00000000000E+00  0.42472241337E+03  0.42472241337E+03  0.00000000000E+00 0. -1.
         -1   -1    0    0    0  501 -0.00000000000E+00 -0.00000000000E+00 -0.29103285807E+02  0.29103285807E+02  0.00000000000E+00 0.  1.
         23    2    1    2    0    0 -0.26024321648E+02  0.10647801715E+00  0.91319756322E+02  0.13141755518E+03  0.90851523164E+02 0.  0.
         23    2    1    2    0    0  0.46099449351E+02 -0.25064924267E+01  0.23317623019E+03  0.24846714039E+03  0.72341715430E+02 0.  0.
        -11    1    3    3    0    0 -0.55243420958E+02  0.20390806828E+02  0.54866284127E+02  0.80485586885E+02  0.00000000000E+00 0.  1.
         11    1    3    3    0    0  0.29219099311E+02 -0.20284328811E+02  0.36453472195E+02  0.50931968300E+02  0.00000000000E+00 0. -1.
        -11    1    4    4    0    0  0.62299541634E+02  0.10948066170E+02  0.19308030729E+03  0.20317750393E+03  0.00000000000E+00 0. -1.
         11    1    4    4    0    0 -0.16200092283E+02 -0.13454558596E+02  0.40095922907E+02  0.45289636461E+02  0.00000000000E+00 0.  1.
         21    1    1    2  502  501 -0.20075127703E+02  0.24000144096E+01  0.71123141050E+02  0.73941003606E+02  0.00000000000E+00 0.  1.
<scales pt_clust_5="13000.00000" pt_clust_6="13000.00000" pt_clust_7="13000.00000" pt_clust_8="13000.00000" pt_clust_9="20.21808"></scales>
<clustering>
<clus scale="   20.218">  1  9  2 -1</clus>
<clus scale="   72.342">  7  8 -1 -1</clus>
<clus scale="   79.259">  1  7  2 -1</clus>
<clus scale="   90.852">  5  6 -1 -1</clus>
<clus scale="   20.218">  1  5  2 -1</clus>
</clustering>
</event>
<event>
 9    1  0.1266593E-005  0.1113876E+03  0.7546771E-02  0.1263070E+00
         -2   -1    0    0    0  501 -0.00000000000E+00  0.00000000000E+00  0.13535045439E+03  0.13535045439E+03  0.00000000000E+00 0.  1.
          2   -1    0    0  502    0  0.00000000000E+00 -0.00000000000E+00 -0.35952959939E+03  0.35952959939E+03  0.00000000000E+00 0. -1.
         23    2    1    2    0    0 -0.57787983208E+02  0.34948476901E+02  0.69768119890E+02  0.12567808227E+03  0.79790618307E+02 0.  0.
         23    2    1    2    0    0  0.39562499013E+02 -0.47045887981E+02 -0.31787583527E+03  0.33678142077E+03  0.92726327545E+02 0.  0.
        -11    1    3    3    0    0 -0.22070881797E+02  0.36529989745E+02 -0.48328420005E+01  0.42952535849E+02  0.00000000000E+00 0. -1.
         11    1    3    3    0    0 -0.35717101410E+02 -0.15815128441E+01  0.74600961891E+02  0.82725546424E+02  0.00000000000E+00 0.  1.
        -13    1    4    4    0    0  0.29014810363E+02  0.17454628460E+02 -0.45751564619E+02  0.56918616816E+02  0.00000000000E+00 0.  1.
         13    1    4    4    0    0  0.10547688649E+02 -0.64500516442E+02 -0.27212427065E+03  0.27986280395E+03  0.00000000000E+00 0. -1.
         21    1    1    2  502  501  0.18225484195E+02  0.12097411081E+02  0.23928570383E+02  0.32420550729E+02  0.00000000000E+00 0.  1.
<scales pt_clust_5="13000.00000" pt_clust_6="13000.00000" pt_clust_7="13000.00000" pt_clust_8="13000.00000" pt_clust_9="21.87500"></scales>
<clustering>
<clus scale="   21.875">  1  9  2 -1</clus>
<clus scale="   79.791">  5  6 -1 -1</clus>
<clus scale="   92.726">  7  8 -1 -1</clus>
<clus scale="  100.874">  1  5  2 -1</clus>
<clus scale="  111.388">  2  5  1 -1</clus>
</clustering>
</event>
<event>
 9    1  0.1266593E-005  0.1526265E+03  0.7546771E-02  0.1200436E+00
          2   -1    0    0  502    0  0.00000000000E+00  0.00000000000E+00  0.14137020637E+04  0.14137020637E+04  0.00000000000E+00 0. -1.
         -2   -1    0    0    0  501 -0.00000000000E+00 -0.00000000000E+00 -0.27101112939E+02  0.27101112939E+02  0.00000000000E+00 0.  1.
         23    2    1    2    0    0  0.11265513275E+03  0.83783947166E+01  0.55790655072E+03  0.57633499513E+03  0.90227106994E+02 0.  0.
         23    2    1    2    0    0 -0.10837437474E+03  0.14109165666E+02  0.82773473071E+03  0.84155669471E+03  0.10549318612E+03 0.  0.
        -13    1    3    3    0    0  0.22507479500E+02 -0.22369459614E+02  0.47547889047E+02  0.57164509179E+02  0.00000000000E+00 0.  1.
         13    1    3    3    0    0  0.90147653249E+02  0.30747854331E+02  0.51035866167E+03  0.51917048595E+03  0.00000000000E+00 0. -1.
        -13    1    4    4    0    0 -0.28843125843E+02  0.55122089521E+02  0.31832601225E+03  0.32434830158E+03  0.00000000000E+00 0. -1.
         13    1    4    4    0    0 -0.79531248901E+02 -0.41012923855E+02  0.50940871846E+03  0.51720839313E+03  0.00000000000E+00 0.  1.
         21    1    1    2  502  501 -0.42807580051E+01 -0.22487560382E+02  0.95966929249E+00  0.22911486774E+02  0.00000000000E+00 0.  1.
<scales pt_clust_5="13000.00000" pt_clust_6="13000.00000" pt_clust_7="13000.00000" pt_clust_8="13000.00000" pt_clust_9="22.89138"></scales>
<clustering>
<clus scale="   22.891">  2  9  1 -1</clus>
<clus scale="   90.227">  5  6 -1 -1</clus>
<clus scale="  105.493">  7  8 -1 -1</clus>
<clus scale="  142.502">  2  5  1 -1</clus>
<clus scale="  152.626">  1  5  2 -1</clus>
</clustering>
</event>
<event>
 9    1  0.1266593E-005  0.1122835E+03  0.7546771E-02  0.1258058E+00
         -4   -1    0    0    0  501 -0.00000000000E+00  0.00000000000E+00  0.13522398793E+03  0.13522398793E+03  0.00000000000E+00 0.  1.
          4   -1    0    0  502    0  0.00000000000E+00 -0.00000000000E+00 -0.24165641938E+03  0.24165641938E+03  0.00000000000E+00 0. -1.
         23    2    1    2    0    0  0.49302291349E+02 -0.66327128138E+02 -0.97312709114E+02  0.15583589141E+03  0.89359150835E+02 0.  0.
         23    2    1    2    0    0 -0.44843264655E+02  0.17261595471E+02 -0.81716122122E+02  0.13330885225E+03  0.93727500818E+02 0.  0.
        -11    1    4    4    0    0 -0.65192289516E+02  0.26968818569E+02 -0.29568412306E+02  0.76496031228E+02  0.00000000000E+00 0.  1.
         11    1    4    4    0    0  0.20349024861E+02 -0.97072230974E+01 -0.52147709816E+02  0.56812821019E+02  0.00000000000E+00 0. -1.
        -13    1    3    3    0    0 -0.17011292626E+02 -0.48603450171E+02 -0.29496344201E+02  0.59344028905E+02  0.00000000000E+00 0.  1.
         13    1    3    3    0    0  0.66313583975E+02 -0.17723677966E+02 -0.67816364913E+02  0.96491862508E+02  0.00000000000E+00 0. -1.
         21    1    1    2  502  501 -0.44590266936E+01  0.49065532666E+02  0.72596399782E+02  0.87735663650E+02  0.00000000000E+00 0.  1.
<scales pt_clust_5="13000.00000" pt_clust_6="13000.00000" pt_clust_7="13000.00000" pt_clust_8="13000.00000" pt_clust_9="49.26773"></scales>
<clustering>
<clus scale="   49.268">  1  9  2 -1</clus>
<clus scale="   89.359">  7  8 -1 -1</clus>
<clus scale="   93.728">  5  6 -1 -1</clus>
<clus scale="  108.664">  1  7  2 -1</clus>
<clus scale="  112.284">  2  5  1 -1</clus>
</clustering>
</event>
<event>
 9    1  0.1266593E-005  0.1357998E+03  0.7546771E-02  0.1220120E+00
         -1   -1    0    0    0  501 -0.00000000000E+00  0.00000000000E+00  0.10494421117E+03  0.10494421117E+03  0.00000000000E+00 0.  1.
          1   -1    0    0  502    0  0.00000000000E+00 -0.00000000000E+00 -0.58550157685E+03  0.58550157685E+03  0.00000000000E+00 0. -1.
         23    2    1    2    0    0 -0.10693520373E+03 -0.49423763163E+02  0.13898604655E+02  0.15040639661E+03  0.92471978285E+02 0.  0.
         23    2    1    2    0    0  0.87717552671E+02  0.42702588273E+02 -0.50153309949E+03  0.51848531844E+03  0.88168562760E+02 0.  0.
        -13    1    3    3    0    0 -0.10125539792E+03 -0.12912638393E+02  0.34934305225E+02  0.10788789329E+03  0.00000000000E+00 0.  1.
         13    1    3    3    0    0 -0.56798058155E+01 -0.36511124770E+02 -0.21035700570E+02  0.42518503319E+02  0.00000000000E+00 0. -1.
        -13    1    4    4    0    0  0.17730544381E+02 -0.26973385711E+02 -0.14316122547E+03  0.14675514376E+03  0.00000000000E+00 0.  1.
         13    1    4    4    0    0  0.69987008290E+02  0.69675973984E+02 -0.35837187402E+03  0.37173017468E+03  0.00000000000E+00 0. -1.
         21    1    1    2  502  501  0.19217651061E+02  0.67211748901E+01  0.70771291580E+01  0.21554072964E+02  0.00000000000E+00 0.  1.
<scales pt_clust_5="13000.00000" pt_clust_6="13000.00000" pt_clust_7="13000.00000" pt_clust_8="13000.00000" pt_clust_9="20.35908"></scales>
<clustering>
<clus scale="   20.359">  1  9  2 -1</clus>
<clus scale="   88.169">  7  8 -1 -1</clus>
<clus scale="   92.472">  5  6 -1 -1</clus>
<clus scale="  132.907">  2  7  1 -1</clus>
<clus scale="  132.907">  2  5  1 -1</clus>
</clustering>
</event>
<event>
 9    1  0.1266593E-005  0.1167871E+03  0.7546771E-02  0.1249238E+00
         -3   -1    0    0    0  501 -0.00000000000E+00  0.00000000000E+00  0.48937475252E+02  0.48937475252E+02  0.00000000000E+00 0.  1.
          3   -1    0    0  502    0  0.00000000000E+00 -0.00000000000E+00 -0.35028104689E+03  0.35028104689E+03  0.00000000000E+00 0. -1.
         23    2    1    2    0    0  0.29142666681E+01  0.72750956444E+02 -0.12650280629E+03  0.17059219101E+03  0.88303686327E+02 0.  0.
         23    2    1    2    0    0 -0.29108552151E+02 -0.71040707405E+02 -0.15724947335E+03  0.19702697833E+03  0.90543599455E+02 0.  0.
        -13    1    3    3    0    0 -0.25793569707E+02  0.59992882499E+01 -0.80130020666E+02  0.84392653174E+02  0.00000000000E+00 0.  1.
         13    1    3    3    0    0  0.28707836375E+02  0.66751668194E+02 -0.46372785628E+02  0.86199537835E+02  0.00000000000E+00 0. -1.
        -13    1    4    4    0    0 -0.46460909886E+02 -0.13951726841E+01 -0.53525296342E+02  0.70890902116E+02  0.00000000000E+00 0.  1.
         13    1    4    4    0    0  0.17352357736E+02 -0.69645534721E+02 -0.10372417701E+03  0.12613607621E+03  0.00000000000E+00 0. -1.
         21    1    1    2  502  501  0.26194285483E+02 -0.17102490389E+01 -0.17591291987E+02  0.31599352802E+02  0.00000000000E+00 0. -1.
<scales pt_clust_5="13000.00000" pt_clust_6="13000.00000" pt_clust_7="13000.00000" pt_clust_8="13000.00000" pt_clust_9="26.25006"></scales>
<clustering>
<clus scale="   26.250">  1  9  2 -1</clus>
<clus scale="   88.304">  5  6 -1 -1</clus>
<clus scale="   90.544">  7  8 -1 -1</clus>
<clus scale="  115.059">  1  5  2 -1</clus>
<clus scale="  116.787">  2  5  1 -1</clus>
</clustering>
</event>
<event>
 9    1  0.1266593E-005  0.9307382E+02  0.7546771E-02  0.1299777E+00
         -2   -1    0    0    0  501 -0.00000000000E+00  0.00000000000E+00  0.54344119804E+02  0.54344119804E+02  0.00000000000E+00 0.  1.
          2   -1    0    0  502    0  0.00000000000E+00 -0.00000000000E+00 -0.45329362573E+03  0.45329362573E+03  0.00000000000E+00 0. -1.
         23    2    1    2    0    0  0.31204380719E+02 -0.13826213831E+02 -0.62379598510E+02  0.11673126873E+03  0.92574819600E+02 0.  0.
         23    2    1    2    0    0 -0.15163375147E+01  0.60257355673E+01 -0.34779623630E+03  0.35822226302E+03  0.85570783383E+02 0.  0.
        -13    1    4    4    0    0  0.26378988667E+02 -0.30157004523E+02 -0.15688382501E+03  0.16191920983E+03  0.00000000000E+00 0.  1.
         13    1    4    4    0    0 -0.27895326181E+02  0.36182740090E+02 -0.19091241130E+03  0.19630305319E+03  0.00000000000E+00 0. -1.
        -13    1    3    3    0    0  0.51401167790E+02 -0.27652031440E+02 -0.10412256813E+02  0.59288531647E+02  0.00000000000E+00 0.  1.
         13    1    3    3    0    0 -0.20196787071E+02  0.13825817608E+02 -0.51967341697E+02  0.57442737083E+02  0.00000000000E+00 0. -1.
         21    1    1    2  502  501 -0.29688043204E+02  0.78004782641E+01  0.11226328886E+02  0.32684213784E+02  0.00000000000E+00 0. -1.
<scales pt_clust_5="13000.00000" pt_clust_6="13000.00000" pt_clust_7="13000.00000" pt_clust_8="13000.00000" pt_clust_9="30.69572"></scales>
<clustering>
<clus scale="   30.696">  1  9  2 -1</clus>
<clus scale="   85.571">  5  6 -1 -1</clus>
<clus scale="   86.110">  2  5  1 -1</clus>
<clus scale="   92.575">  7  8 -1 -1</clus>
<clus scale="   86.110">  2  5  1 -1</clus>
</clustering>
</event>
<event>
 9    1  0.1266593E-005  0.1212219E+03  0.7546771E-02  0.1241831E+00
          1   -1    0    0  502    0  0.00000000000E+00  0.00000000000E+00  0.25952690256E+03  0.25952690256E+03  0.00000000000E+00 0. -1.
         -1   -1    0    0    0  501 -0.00000000000E+00 -0.00000000000E+00 -0.13817803151E+03  0.13817803151E+03  0.00000000000E+00 0.  1.
         23    2    1    2    0    0 -0.27237437103E+02  0.47592047259E+02 -0.52215227961E+02  0.11910619248E+03  0.91940057181E+02 0.  0.
         23    2    1    2    0    0  0.32347727065E+02 -0.77433003915E+02  0.20245433039E+03  0.23675088350E+03  0.89559920747E+02 0.  0.
        -13    1    3    3    0    0  0.33297688123E+02  0.24504559355E+02 -0.28039413799E+02  0.49954160884E+02  0.00000000000E+00 0.  1.
         13    1    3    3    0    0 -0.60535125225E+02  0.23087487904E+02 -0.24175814163E+02  0.69152031599E+02  0.00000000000E+00 0. -1.
        -13    1    4    4    0    0 -0.21501305155E+02 -0.44312708594E+01  0.88054611957E+02  0.90749969541E+02  0.00000000000E+00 0. -1.
         13    1    4    4    0    0  0.53849032220E+02 -0.73001733056E+02  0.11439971843E+03  0.14600091396E+03  0.00000000000E+00 0.  1.
         21    1    1    2  502  501 -0.51102899619E+01  0.29840956656E+02 -0.28890231370E+02  0.41847858084E+02  0.00000000000E+00 0. -1.
<scales pt_clust_5="13000.00000" pt_clust_6="13000.00000" pt_clust_7="13000.00000" pt_clust_8="13000.00000" pt_clust_9="30.27537"></scales>
<clustering>
<clus scale="   30.275">  2  9  1 -1</clus>
<clus scale="   89.560">  7  8 -1 -1</clus>
<clus scale="   91.940">  5  6 -1 -1</clus>
<clus scale="  119.427">  1  7  2 -1</clus>
<clus scale="  119.427">  1  5  2 -1</clus>
</clustering>
</event>
<event>
 9    1  0.1266593E-005  0.1015748E+03  0.7546771E-02  0.1277165E+00
         -1   -1    0    0    0  501 -0.00000000000E+00  0.00000000000E+00  0.23845901181E+03  0.23845901181E+03  0.00000000000E+00 0.  1.
          1   -1    0    0  502    0  0.00000000000E+00 -0.00000000000E+00 -0.72239686468E+02  0.72239686468E+02  0.00000000000E+00 0. -1.
         23    2    1    2    0    0 -0.24446572461E+02  0.80983697399E+00  0.58239330767E+02  0.11144922524E+03  0.91819493672E+02 0.  0.
         23    2    1    2    0    0  0.53989917959E+02  0.30895008072E+02  0.39040373137E+02  0.11782049867E+03  0.92130919927E+02 0.  0.
        -13    1    4    4    0    0  0.59250999807E+02 -0.34264375708E+01 -0.74272358051E+01  0.59812919042E+02  0.00000000000E+00 0.  1.
         13    1    4    4    0    0 -0.52610818487E+01  0.34321445643E+02  0.46467608942E+02  0.58007579625E+02  0.00000000000E+00 0. -1.
        -13    1    3    3    0    0  0.20959350444E+02 -0.58849130539E+00 -0.14638783343E+02  0.25572146386E+02  0.00000000000E+00 0.  1.
         13    1    3    3    0    0 -0.45405922905E+02  0.13983282794E+01  0.72878114110E+02  0.85877078858E+02  0.00000000000E+00 0. -1.
         21    1    1    2  502  501 -0.29543345497E+02 -0.31704845046E+02  0.68939621435E+02  0.81428974365E+02  0.00000000000E+00 0.  1.
<scales pt_clust_5="13000.00000" pt_clust_6="13000.00000" pt_clust_7="13000.00000" pt_clust_8="13000.00000" pt_clust_9="43.33597"></scales>
<clustering>
<clus scale="   43.336">  1  9  2 -1</clus>
<clus scale="   91.819">  7  8 -1 -1</clus>
<clus scale="   92.131">  5  6 -1 -1</clus>
<clus scale="  101.292">  1  7  2 -1</clus>
<clus scale="  101.575">  2  5  1 -1</clus>
</clustering>
</event>
<event>
 9    1  0.1266593E-005  0.2088501E+03  0.7546771E-02  0.1143215E+00
          2   -1    0    0  502    0  0.00000000000E+00  0.00000000000E+00  0.10914094569E+04  0.10914094569E+04  0.00000000000E+00 0. -1.
         -2   -1    0    0    0  501 -0.00000000000E+00 -0.00000000000E+00 -0.49745149095E+02  0.49745149095E+02  0.00000000000E+00 0.  1.
         23    2    1    2    0    0 -0.16128032176E+03  0.78423158678E+02  0.38941032732E+03  0.43873093395E+03  0.93182055044E+02 0.  0.
         23    2    1    2    0    0  0.18913360976E+03 -0.45354421161E+02  0.58692764621E+03  0.62408545018E+03  0.84676096889E+02 0.  0.
        -11    1    3    3    0    0 -0.25979173644E+02 -0.17805679164E+02  0.10265233514E+03  0.10737533042E+03  0.00000000000E+00 0.  1.
         11    1    3    3    0    0 -0.13530114812E+03  0.96228837842E+02  0.28675799218E+03  0.33135560354E+03  0.00000000000E+00 0. -1.
        -11    1    4    4    0    0  0.77098808900E+02 -0.53051437469E+02  0.34318748855E+03  0.35571945920E+03  0.00000000000E+00 0. -1.
         11    1    4    4    0    0  0.11203480086E+03  0.76970163082E+01  0.24374015766E+03  0.26836599099E+03  0.00000000000E+00 0.  1.
         21    1    1    2  502  501 -0.27853287994E+02 -0.33068737518E+02  0.65326334243E+02  0.78338221825E+02  0.00000000000E+00 0. -1.
<scales pt_clust_5="13000.00000" pt_clust_6="13000.00000" pt_clust_7="13000.00000" pt_clust_8="13000.00000" pt_clust_9="43.23595"></scales>
<clustering>
<clus scale="   43.236">  2  9  1 -1</clus>
<clus scale="   84.676">  7  8 -1 -1</clus>
<clus scale="   93.182">  5  6 -1 -1</clus>
<clus scale="  205.196">  1  7  2 -1</clus>
<clus scale="  205.196">  1  5  2 -1</clus>
</clustering>
</event>
<event>
 9    1  0.1266593E-005  0.1267035E+03  0.7546771E-02  0.1233107E+00
          2   -1    0    0  502    0  0.00000000000E+00  0.00000000000E+00  0.93132029417E+03  0.93132029417E+03  0.00000000000E+00 0. -1.
         -2   -1    0    0    0  501 -0.00000000000E+00 -0.00000000000E+00 -0.40955408397E+02  0.40955408397E+02  0.00000000000E+00 0.  1.
         23    2    1    2    0    0 -0.69095385802E+02 -0.59963608563E+02  0.14606732954E+03  0.19563737356E+03  0.92566249166E+02 0.  0.
         23    2    1    2    0    0  0.97565086433E+02 -0.17319243863E+02  0.53987523873E+03  0.55624856739E+03  0.90157046456E+02 0.  0.
        -11    1    3    3    0    0 -0.27946065090E+02 -0.34270381200E+02  0.13991524247E+03  0.14673689603E+03  0.00000000000E+00 0. -1.
         11    1    3    3    0    0 -0.41149320712E+02 -0.25693227363E+02  0.61520870684E+01  0.48900477530E+02  0.00000000000E+00 0.  1.
        -11    1    4    4    0    0  0.22403479712E+02 -0.44570559008E+02  0.14442183424E+03  0.15279436128E+03  0.00000000000E+00 0.  1.
         11    1    4    4    0    0  0.75161606720E+02  0.27251315145E+02  0.39545340449E+03  0.40345420610E+03  0.00000000000E+00 0. -1.
         21    1    1    2  502  501 -0.28469700631E+02  0.77282852426E+02  0.20442231750E+03  0.22038976162E+03  0.00000000000E+00 0. -1.
<scales pt_clust_5="13000.00000" pt_clust_6="13000.00000" pt_clust_7="13000.00000" pt_clust_8="13000.00000" pt_clust_9="82.35996"></scales>
<clustering>
<clus scale="   82.360">  1  9  2 -1</clus>
<clus scale="   90.157">  7  8 -1 -1</clus>
<clus scale="   92.566">  5  6 -1 -1</clus>
<clus scale="  124.954">  1  7  2 -1</clus>
<clus scale="   82.360">  1  5  2 -1</clus>
</clustering>
</event>
<event>
 9    1  0.1266593E-005  0.1714113E+03  0.7546771E-02  0.1191680E+00
         -1   -1    0    0    0  501 -0.00000000000E+00  0.00000000000E+00  0.10919512035E+03  0.10919512035E+03  0.00000000000E+00 0.  1.
          1   -1    0    0  502    0  0.00000000000E+00 -0.00000000000E+00 -0.59857439965E+03  0.59857439965E+03  0.00000000000E+00 0. -1.
         23    2    1    2    0    0 -0.45169660206E+02 -0.66869587299E+02 -0.16670730234E+02  0.12296335733E+03  0.91270116091E+02 0.  0.
         23    2    1    2    0    0 -0.97045307090E+02 -0.63822846456E+02 -0.24248786552E+03  0.28429464492E+03  0.92368462402E+02 0.  0.
        -11    1    4    4    0    0 -0.13399623367E+02  0.22560295544E+02 -0.63061946627E+02  0.68303191389E+02  0.00000000000E+00 0. -1.
         11    1    4    4    0    0 -0.83645683723E+02 -0.86383142000E+02 -0.17942591889E+03  0.21599145353E+03  0.00000000000E+00 0.  1.
        -11    1    3    3    0    0 -0.11183990207E+02 -0.81979846379E+02 -0.21422900112E+02  0.85467640067E+02  0.00000000000E+00 0.  1.
         11    1    3    3    0    0 -0.33985669998E+02  0.15110259080E+02  0.47521698787E+01  0.37495717266E+02  0.00000000000E+00 0. -1.
         21    1    1    2  502  501  0.14221496730E+03  0.13069243375E+03 -0.23022068355E+03  0.30051151775E+03  0.00000000000E+00 0.  1.
<scales pt_clust_5="13000.00000" pt_clust_6="13000.00000" pt_clust_7="13000.00000" pt_clust_8="13000.00000" pt_clust_9="144.39494"></scales>
<clustering>
<clus scale="   91.270">  7  8 -1 -1</clus>
<clus scale="   92.368">  5  6 -1 -1</clus>
<clus scale="  121.828">  1  7  2 -1</clus>
<clus scale="  144.395">  1  9  2 -1</clus>
<clus scale="  171.411">  2  5  1 -1</clus>
</clustering>
</event>
<event>
 9    1  0.1266593E-005  0.9581616E+02  0.7546771E-02  0.1291932E+00
          1   -1    0    0  502    0  0.00000000000E+00  0.00000000000E+00  0.11308140192E+03  0.11308140192E+03  0.00000000000E+00 0. -1.
         -1   -1    0    0    0  501 -0.00000000000E+00 -0.00000000000E+00 -0.11982797911E+03  0.11982797911E+03  0.00000000000E+00 0.  1.
         23    2    1    2    0    0  0.15092752761E+02 -0.20837634292E+02 -0.18434360638E+02  0.94594139700E+02  0.89141614438E+02 0.  0.
         23    2    1    2    0    0 -0.21657352423E+02 -0.69466415464E+01 -0.16851909683E+02  0.97947258508E+02  0.93767701510E+02 0.  0.
        -11    1    3    3    0    0  0.31086316425E+02 -0.34684131799E+02  0.20026575757E+02  0.50699228831E+02  0.00000000000E+00 0.  1.
         11    1    3    3    0    0 -0.15993563664E+02  0.13846497507E+02 -0.38460936395E+02  0.43894910869E+02  0.00000000000E+00 0. -1.
        -13    1    4    4    0    0  0.24142606614E-01 -0.44995223222E+02 -0.27690966094E+02  0.52833325647E+02  0.00000000000E+00 0.  1.
         13    1    4    4    0    0 -0.21681495029E+02  0.38048581676E+02  0.10839056412E+02  0.45113932861E+02  0.00000000000E+00 0. -1.
         21    1    1    2  502  501  0.65645996617E+01  0.27784275838E+02  0.28539693137E+02  0.40367982820E+02  0.00000000000E+00 0.  1.
<scales pt_clust_5="13000.00000" pt_clust_6="13000.00000" pt_clust_7="13000.00000" pt_clust_8="13000.00000" pt_clust_9="28.54925"></scales>
<clustering>
<clus scale="   28.549">  1  9  2 -1</clus>
<clus scale="   89.142">  5  6 -1 -1</clus>
<clus scale="   91.294">  2  5  1 -1</clus>
<clus scale="   93.768">  7  8 -1 -1</clus>
<clus scale="   28.549">  1  5  2 -1</clus>
</clustering>
</event>
<event>
 9    1  0.1266593E-005  0.1358513E+03  0.7546771E-02  0.1219741E+00
          3   -1    0    0  502    0  0.00000000000E+00  0.00000000000E+00  0.43963649676E+02  0.43963649676E+02  0.00000000000E+00 0. -1.
         -3   -1    0    0    0  501 -0.00000000000E+00 -0.00000000000E+00 -0.63351207485E+03  0.63351207485E+03  0.00000000000E+00 0.  1.
         23    2    1    2    0    0 -0.10016331062E+02  0.71565496176E+02 -0.31519451568E+03  0.33595199558E+03  0.91072572669E+02 0.  0.
         23    2    1    2    0    0 -0.52803283628E+00 -0.11245818530E+03 -0.14805154635E+03  0.20834834620E+03  0.94035369554E+02 0.  0.
        -11    1    4    4    0    0  0.28973716371E+02 -0.45024418628E+00 -0.17633787740E+02  0.33920929089E+02  0.00000000000E+00 0. -1.
         11    1    4    4    0    0 -0.29501749207E+02 -0.11200794111E+03 -0.13041775861E+03  0.17442741711E+03  0.00000000000E+00 0.  1.
        -13    1    3    3    0    0 -0.35989931209E+02 -0.40302724050E+01 -0.10518197107E+03  0.11124192232E+03  0.00000000000E+00 0.  1.
         13    1    3    3    0    0  0.25973600147E+02  0.75595768581E+02 -0.21001254461E+03  0.22471007326E+03  0.00000000000E+00 0. -1.
         21    1    1    2  502  501  0.10544363898E+02  0.40892689119E+02 -0.12630236315E+03  0.13317538275E+03  0.00000000000E+00 0.  1.
<scales pt_clust_5="13000.00000" pt_clust_6="13000.00000" pt_clust_7="13000.00000" pt_clust_8="13000.00000" pt_clust_9="42.23027"></scales>
<clustering>
<clus scale="   42.230">  2  9  1 -1</clus>
<clus scale="   91.073">  7  8 -1 -1</clus>
<clus scale="   94.035">  5  6 -1 -1</clus>
<clus scale="  133.818">  2  7  1 -1</clus>
<clus scale="  135.851">  1  5  2 -1</clus>
</clustering>
</event>
<event>
 9    1  0.1266593E-005  0.1137373E+03  0.7546771E-02  0.1257169E+00
          2   -1    0    0  502    0  0.00000000000E+00  0.00000000000E+00  0.12434932599E+03  0.12434932599E+03  0.00000000000E+00 0. -1.
         -2   -1    0    0    0  501 -0.00000000000E+00 -0.00000000000E+00 -0.42547418526E+03  0.42547418526E+03  0.00000000000E+00 0.  1.
         23    2    1    2    0    0 -0.10371606223E+03 -0.13989869038E+02 -0.10280231695E+03  0.17218741098E+03  0.90152371749E+02 0.  0.
         23    2    1    2    0    0  0.44376947986E+02  0.44360205467E+01  0.52037265613E+02  0.12016291734E+03  0.98702876860E+02 0.  0.
        -11    1    3    3    0    0 -0.90947511630E+02 -0.38382617042E+02 -0.10554999240E+03  0.14451808212E+03  0.00000000000E+00 0.  1.
         11    1    3    3    0    0 -0.12768550595E+02  0.24392748004E+02  0.27476754550E+01  0.27669328866E+02  0.00000000000E+00 0. -1.
        -11    1    4    4    0    0  0.50687466476E+02  0.25314903711E+02  0.71295143949E+02  0.91066245988E+02  0.00000000000E+00 0. -1.
         11    1    4    4    0    0 -0.63105184899E+01 -0.20878883164E+02 -0.19257878336E+02  0.29096671353E+02  0.00000000000E+00 0.  1.
         21    1    1    2  502  501  0.59339114240E+02  0.95538484914E+01 -0.25035980794E+03  0.25747318293E+03  0.00000000000E+00 0.  1.
<scales pt_clust_5="13000.00000" pt_clust_6="13000.00000" pt_clust_7="13000.00000" pt_clust_8="13000.00000" pt_clust_9="60.10330"></scales>
<clustering>
<clus scale="   60.103">  2  9  1 -1</clus>
<clus scale="   90.152">  5  6 -1 -1</clus>
<clus scale="   98.703">  7  8 -1 -1</clus>
<clus scale="  106.402">  2  5  1 -1</clus>
<clus scale="  113.737">  1  5  2 -1</clus>
</clustering>
</event>
<event>
 9    1  0.1266593E-005  0.1036568E+03  0.7546771E-02  0.1274904E+00
         -3   -1    0    0    0  501 -0.00000000000E+00  0.00000000000E+00  0.33969784420E+03  0.33969784420E+03  0.00000000000E+00 0.  1.
          3   -1    0    0  502    0  0.00000000000E+00 -0.00000000000E+00 -0.52929016903E+02  0.52929016903E+02  0.00000000000E+00 0. -1.
         23    2    1    2    0    0 -0.32079356566E+02 -0.29481497512E+02  0.19281143011E+03  0.21928070681E+03  0.94918580813E+02 0.  0.
         23    2    1    2    0    0  0.75330685812E+01  0.42632816065E+02  0.31655457921E+02  0.10510387217E+03  0.90390551503E+02 0.  0.
        -11    1    4    4    0    0  0.25607469845E+01 -0.23274617263E+02 -0.11581975968E+02  0.26122928649E+02  0.00000000000E+00 0. -1.
         11    1    4    4    0    0  0.49723215967E+01  0.65907433329E+02  0.43237433889E+02  0.78980943520E+02  0.00000000000E+00 0.  1.
        -11    1    3    3    0    0 -0.11872635080E+02  0.27788910642E+02  0.20332812644E+02  0.36422606832E+02  0.00000000000E+00 0.  1.
         11    1    3    3    0    0 -0.20206721486E+02 -0.57270408155E+02  0.17247861747E+03  0.18285809998E+03  0.00000000000E+00 0. -1.
         21    1    1    2  502  501  0.24546287985E+02 -0.13151318553E+02  0.62301939261E+02  0.68242282121E+02  0.00000000000E+00 0. -1.
<scales pt_clust_5="13000.00000" pt_clust_6="13000.00000" pt_clust_7="13000.00000" pt_clust_8="13000.00000" pt_clust_9="27.84740"></scales>
<clustering>
<clus scale="   27.847">  1  9  2 -1</clus>
<clus scale="   90.391">  5  6 -1 -1</clus>
<clus scale="   94.919">  7  8 -1 -1</clus>
<clus scale="   99.527">  2  5  1 -1</clus>
<clus scale="   99.527">  2  5  1 -1</clus>
</clustering>
</event>
<event>
 9    1  0.1266593E-005  0.1558251E+03  0.7546771E-02  0.1213471E+00
          2   -1    0    0  502    0  0.00000000000E+00  0.00000000000E+00  0.15073345002E+03  0.15073345002E+03  0.00000000000E+00 0. -1.
         -2   -1    0    0    0  501 -0.00000000000E+00 -0.00000000000E+00 -0.51050699611E+03  0.51050699611E+03  0.00000000000E+00 0.  1.
         23    2    1    2    0    0  0.86398830286E+02  0.95313634294E+02 -0.39921507882E+03  0.42937424563E+03  0.91870108827E+02 0.  0.
         23    2    1    2    0    0  0.13288806844E+02 -0.40266127509E+02 -0.20343814330E+02  0.10324994677E+03  0.91916958799E+02 0.  0.
        -13    1    4    4    0    0 -0.27155360485E+02  0.16251126451E+02 -0.44504660164E+01  0.31958087580E+02  0.00000000000E+00 0.  1.
         13    1    4    4    0    0  0.40444167329E+02 -0.56517253961E+02 -0.15893348314E+02  0.71291859191E+02  0.00000000000E+00 0. -1.
        -13    1    3    3    0    0  0.39545972182E+02  0.15869445879E+01 -0.44727458674E+02  0.59723930450E+02  0.00000000000E+00 0. -1.
         13    1    3    3    0    0  0.46852858104E+02  0.93726689706E+02 -0.35448762015E+03  0.36965031518E+03  0.00000000000E+00 0.  1.
         21    1    1    2  502  501 -0.99687637130E+02 -0.55047506784E+02  0.59785347060E+02  0.12861625373E+03  0.00000000000E+00 0. -1.
<scales pt_clust_5="13000.00000" pt_clust_6="13000.00000" pt_clust_7="13000.00000" pt_clust_8="13000.00000" pt_clust_9="125.86246"></scales>
<clustering>
<clus scale="   91.870">  7  8 -1 -1</clus>
<clus scale="   91.917">  5  6 -1 -1</clus>
<clus scale="  101.226">  1  5  2 -1</clus>
<clus scale="  125.862">  1  9  2 -1</clus>
<clus scale="  101.226">  1  5  2 -1</clus>
</clustering>
</event>
<event>
 9    1  0.1266593E-005  0.9958837E+02  0.7546771E-02  0.1284315E+00
         -2   -1    0    0    0  501 -0.00000000000E+00  0.00000000000E+00  0.29360665619E+03  0.29360665619E+03  0.00000000000E+00 0.  1.
          2   -1    0    0  502    0  0.00000000000E+00 -0.00000000000E+00 -0.44970945475E+02  0.44970945475E+02  0.00000000000E+00 0. -1.
         23    2    1    2    0    0 -0.39629158435E+01 -0.14085197312E+02  0.10768222421E+03  0.14193569927E+03  0.91302704403E+02 0.  0.
         23    2    1    2    0    0  0.30414310447E+02  0.90073433187E+01  0.79462387054E+02  0.12951056702E+03  0.97224243374E+02 0.  0.
        -13    1    3    3    0    0 -0.20315181467E+02  0.23334552540E+02  0.48822262678E+01  0.31321623100E+02  0.00000000000E+00 0.  1.
         13    1    3    3    0    0  0.16352265624E+02 -0.37419749852E+02  0.10279999794E+03  0.11061407617E+03  0.00000000000E+00 0. -1.
        -13    1    4    4    0    0  0.65746452275E+02  0.75142808565E+01  0.58978907861E+02  0.88642946567E+02  0.00000000000E+00 0. -1.
         13    1    4    4    0    0 -0.35332141827E+02  0.14930624622E+01  0.20483479193E+02  0.40867620453E+02  0.00000000000E+00 0.  1.
         21    1    1    2  502  501 -0.26451394604E+02  0.50778539928E+01  0.61491099445E+02  0.67131335370E+02  0.00000000000E+00 0.  1.
<scales pt_clust_5="13000.00000" pt_clust_6="13000.00000" pt_clust_7="13000.00000" pt_clust_8="13000.00000" pt_clust_9="26.93438"></scales>
<clustering>
<clus scale="   26.934">  1  9  2 -1</clus>
<clus scale="   91.303">  5  6 -1 -1</clus>
<clus scale="   93.816">  1  5  2 -1</clus>
<clus scale="   97.224">  7  8 -1 -1</clus>
<clus scale="   99.588">  2  5  1 -1</clus>
</clustering>
</event>
<event>
 9    1  0.1266593E-005  0.5168095E+03  0.7546771E-02  0.1009502E+00
          1   -1    0    0  502    0  0.00000000000E+00  0.00000000000E+00  0.10886279153E+04  0.10886279153E+04  0.00000000000E+00 0. -1.
         -1   -1    0    0    0  501 -0.00000000000E+00 -0.00000000000E+00 -0.26971130970E+03  0.26971130970E+03  0.00000000000E+00 0.  1.
         23    2    1    2    0    0 -0.30225433683E+03  0.42747807817E+03  0.33716851858E+03  0.62917993291E+03  0.89942129223E+02 0.  0.
         23    2    1    2    0    0  0.29021719884E+03 -0.40419297441E+03  0.48717233275E+03  0.70239156543E+03  0.91755361322E+02 0.  0.
        -11    1    3    3    0    0 -0.44627817106E+02  0.11089580412E+03  0.10790504947E+03  0.16103732838E+03  0.00000000000E+00 0. -1.
         11    1    3    3    0    0 -0.25762651973E+03  0.31658227405E+03  0.22926346910E+03  0.46814260453E+03  0.00000000000E+00 0.  1.
        -13    1    4    4    0    0  0.27352480100E+03 -0.33390818959E+03  0.43840829620E+03  0.61523355729E+03  0.00000000000E+00 0. -1.
         13    1    4    4    0    0  0.16692397833E+02 -0.70284784824E+02  0.48764036552E+02  0.87158008146E+02  0.00000000000E+00 0.  1.
         21    1    1    2  502  501  0.12037137994E+02 -0.23285103760E+02 -0.54242457322E+01  0.26767726649E+02  0.00000000000E+00 0. -1.
<scales pt_clust_5="13000.00000" pt_clust_6="13000.00000" pt_clust_7="13000.00000" pt_clust_8="13000.00000" pt_clust_9="26.21238"></scales>
<clustering>
<clus scale="   26.212">  2  9  1 -1</clus>
<clus scale="   89.942">  5  6 -1 -1</clus>
<clus scale="   91.755">  7  8 -1 -1</clus>
<clus scale="  516.491">  2  5  1 -1</clus>
<clus scale="  516.809">  1  5  2 -1</clus>
</clustering>
</event>
<event>
 9    1  0.1266593E-005  0.1123241E+03  0.7546771E-02  0.1256457E+00
          2   -1    0    0  502    0  0.00000000000E+00  0.00000000000E+00  0.54838006595E+03  0.54838006595E+03  0.00000000000E+00 0. -1.
         -2   -1    0    0    0  501 -0.00000000000E+00 -0.00000000000E+00 -0.70338265458E+02  0.70338265458E+02  0.00000000000E+00 0.  1.
         23    2    1    2    0    0 -0.57886074996E+02 -0.10109629530E+02  0.12708481563E+03  0.16759028305E+03  0.92102933282E+02 0.  0.
         23    2    1    2    0    0  0.24720914260E+02  0.73846162340E+02  0.35902325942E+03  0.37882771443E+03  0.92457325913E+02 0.  0.
        -11    1    3    3    0    0 -0.80053053531E+02 -0.15775213206E+02  0.11687001448E+03  0.14253402757E+03  0.00000000000E+00 0.  1.
         11    1    3    3    0    0  0.22166978535E+02  0.56655836762E+01  0.10214801153E+02  0.25056255473E+02  0.00000000000E+00 0. -1.
        -13    1    4    4    0    0 -0.25880884888E+02  0.29420076079E+02  0.22975929018E+03  0.23307658076E+03  0.00000000000E+00 0.  1.
         13    1    4    4    0    0  0.50601799147E+02  0.44426086261E+02  0.12926396925E+03  0.14575113366E+03  0.00000000000E+00 0. -1.
         21    1    1    2  502  501  0.33165160737E+02 -0.63736532809E+02 -0.80662745708E+01  0.72300333932E+02  0.00000000000E+00 0.  1.
<scales pt_clust_5="13000.00000" pt_clust_6="13000.00000" pt_clust_7="13000.00000" pt_clust_8="13000.00000" pt_clust_9="71.84896"></scales>
<clustering>
<clus scale="   71.849">  2  9  1 -1</clus>
<clus scale="   92.103">  5  6 -1 -1</clus>
<clus scale="   92.457">  7  8 -1 -1</clus>
<clus scale="  112.033">  2  5  1 -1</clus>
<clus scale="  112.324">  1  5  2 -1</clus>
</clustering>
</event>
<event>
 9    1  0.1266593E-005  0.1815081E+03  0.7546771E-02  0.1166664E+00
          1   -1    0    0  502    0  0.00000000000E+00  0.00000000000E+00  0.40537652710E+03  0.40537652710E+03  0.00000000000E+00 0. -1.
         -1   -1    0    0    0  501 -0.00000000000E+00 -0.00000000000E+00 -0.12881766751E+03  0.12881766751E+03  0.00000000000E+00 0.  1.
         23    2    1    2    0    0  0.75416084315E+01  0.15545010924E+03  0.77018511360E+02  0.19606876803E+03  0.91046682436E+02 0.  0.
         23    2    1    2    0    0 -0.32070860399E+02 -0.15279438067E+03  0.23354945141E+03  0.29610928451E+03  0.93598607169E+02 0.  0.
        -11    1    3    3    0    0  0.48282404716E+01  0.89973960502E+02 -0.59991307542E+01  0.90302907175E+02  0.00000000000E+00 0.  1.
         11    1    3    3    0    0  0.27133679599E+01  0.65476148738E+02  0.83017642114E+02  0.10576586085E+03  0.00000000000E+00 0. -1.
        -13    1    4    4    0    0  0.91265225073E+00 -0.14773609342E+03  0.17818629126E+03  0.23146736406E+03  0.00000000000E+00 0. -1.
         13    1    4    4    0    0 -0.32983512649E+02 -0.50582872529E+01  0.55363160154E+02  0.64641920445E+02  0.00000000000E+00 0.  1.
         21    1    1    2  502  501  0.24529251967E+02 -0.26557285686E+01 -0.34009103176E+02  0.42016142078E+02  0.00000000000E+00 0.  1.
<scales pt_clust_5="13000.00000" pt_clust_6="13000.00000" pt_clust_7="13000.00000" pt_clust_8="13000.00000" pt_clust_9="24.67260"></scales>
<clustering>
<clus scale="   24.673">  2  9  1 -1</clus>
<clus scale="   91.047">  5  6 -1 -1</clus>
<clus scale="   93.599">  7  8 -1 -1</clus>
<clus scale="  180.205">  2  5  1 -1</clus>
<clus scale="  181.508">  1  5  2 -1</clus>
</clustering>
</event>
<event>
 9    1  0.1266593E-005  0.1150911E+03  0.7546771E-02  0.1254182E+00
         -1   -1    0    0    0  501 -0.00000000000E+00  0.00000000000E+00  0.17663440287E+03  0.17663440287E+03  0.00000000000E+00 0.  1.
          1   -1    0    0  502    0  0.00000000000E+00 -0.00000000000E+00 -0.14517621818E+03  0.14517621818E+03  0.00000000000E+00 0. -1.
         23    2    1    2    0    0 -0.33155588466E+02 -0.16319751269E+02  0.95036895242E+02  0.13438720824E+03  0.87534467232E+02 0.  0.
         23    2    1    2    0    0  0.69336046016E+02  0.21381068541E+02 -0.83451306867E+02  0.14583540341E+03  0.95074743761E+02 0.  0.
        -13    1    3    3    0    0 -0.41205167474E+02  0.27695627654E+02  0.57620111531E+02  0.76059127464E+02  0.00000000000E+00 0.  1.
         13    1    3    3    0    0  0.80495790078E+01 -0.44015378923E+02  0.37416783711E+02  0.58328080777E+02  0.00000000000E+00 0. -1.
        -13    1    4    4    0    0  0.43125101734E+02  0.89981092892E+01  0.12343518193E+02  0.45750440564E+02  0.00000000000E+00 0.  1.
         13    1    4    4    0    0  0.26210944281E+02  0.12382959252E+02 -0.95794825060E+02  0.10008496285E+03  0.00000000000E+00 0. -1.
         21    1    1    2  502  501 -0.36180457550E+02 -0.50613172721E+01  0.19872596316E+02  0.41588009394E+02  0.00000000000E+00 0.  1.
<scales pt_clust_5="13000.00000" pt_clust_6="13000.00000" pt_clust_7="13000.00000" pt_clust_8="13000.00000" pt_clust_9="36.53276"></scales>
<clustering>
<clus scale="   36.533">  1  9  2 -1</clus>
<clus scale="   87.534">  5  6 -1 -1</clus>
<clus scale="   95.075">  7  8 -1 -1</clus>
<clus scale="  108.945">  1  5  2 -1</clus>
<clus scale="  115.091">  2  5  1 -1</clus>
</clustering>
</event>
<event>
 9    1  0.1266593E-005  0.1137797E+03  0.7546771E-02  0.1256936E+00
          1   -1    0    0  502    0  0.00000000000E+00  0.00000000000E+00  0.94016867771E+02  0.94016867771E+02  0.00000000000E+00 0. -1.
         -1   -1    0    0    0  501 -0.00000000000E+00 -0.00000000000E+00 -0.24388600146E+03  0.24388600146E+03  0.00000000000E+00 0.  1.
         23    2    1    2    0    0 -0.40040363687E+02 -0.17447553289E+02 -0.16611094059E+03  0.19946756938E+03  0.10142395581E+03 0.  0.
         23    2    1    2    0    0  0.53836972736E+02  0.19914879527E+01  0.31836478059E+02  0.11250404177E+03  0.93494451287E+02 0.  0.
        -11    1    3    3    0    0 -0.57447303861E+01 -0.57052962444E+02 -0.75583255545E+02  0.94872920107E+02  0.00000000000E+00 0. -1.
         11    1    3    3    0    0 -0.34295633300E+02  0.39605409154E+02 -0.90527685046E+02  0.10459464928E+03  0.00000000000E+00 0.  1.
        -11    1    4    4    0    0  0.24407396580E+02  0.31633665295E+02 -0.21010543024E+02  0.45142581959E+02  0.00000000000E+00 0.  1.
         11    1    4    4    0    0  0.29429576156E+02 -0.29642177342E+02  0.52847021083E+02  0.67361459810E+02  0.00000000000E+00 0. -1.
         21    1    1    2  502  501 -0.13796609049E+02  0.15456065337E+02 -0.15594671154E+02  0.25931258075E+02  0.00000000000E+00 0. -1.
<scales pt_clust_5="13000.00000" pt_clust_6="13000.00000" pt_clust_7="13000.00000" pt_clust_8="13000.00000" pt_clust_9="20.71802"></scales>
<clustering>
<clus scale="   20.718">  2  9  1 -1</clus>
<clus scale="   93.494">  7  8 -1 -1</clus>
<clus scale="  101.424">  5  6 -1 -1</clus>
<clus scale="  106.772">  1  7  2 -1</clus>
<clus scale="  106.772">  1  5  2 -1</clus>
</clustering>
</event>
<event>
 9    1  0.1266593E-005  0.1238668E+03  0.7546771E-02  0.1239811E+00
          2   -1    0    0  502    0  0.00000000000E+00  0.00000000000E+00  0.52910734138E+03  0.52910734138E+03  0.00000000000E+00 0. -1.
         -2   -1    0    0    0  501 -0.00000000000E+00 -0.00000000000E+00 -0.41734348201E+02  0.41734348201E+02  0.00000000000E+00 0.  1.
         23    2    1    2    0    0  0.94767873036E+02  0.25308865063E+02  0.16527881218E+03  0.21125228034E+03  0.87686668208E+02 0.  0.
         23    2    1    2    0    0 -0.63867089778E+02 -0.18520868281E+02  0.29612294915E+03  0.31865726796E+03  0.97116557252E+02 0.  0.
        -11    1    4    4    0    0 -0.36647355823E+02  0.32917472437E+02  0.20262532116E+03  0.20852723912E+03  0.00000000000E+00 0. -1.
         11    1    4    4    0    0 -0.27219733955E+02 -0.51438340718E+02  0.93497627992E+02  0.11013002884E+03  0.00000000000E+00 0.  1.
        -13    1    3    3    0    0  0.51933308768E+02  0.47005927888E+02  0.49100082505E+02  0.85542059352E+02  0.00000000000E+00 0.  1.
         13    1    3    3    0    0  0.42834564268E+02 -0.21697062825E+02  0.11617872967E+03  0.12571022098E+03  0.00000000000E+00 0. -1.
         21    1    1    2  502  501 -0.30900783258E+02 -0.67879967816E+01  0.25971231851E+02  0.40932141285E+02  0.00000000000E+00 0. -1.
<scales pt_clust_5="13000.00000" pt_clust_6="13000.00000" pt_clust_7="13000.00000" pt_clust_8="13000.00000" pt_clust_9="31.63756"></scales>
<clustering>
<clus scale="   31.638">  2  9  1 -1</clus>
<clus scale="   87.687">  7  8 -1 -1</clus>
<clus scale="   97.117">  5  6 -1 -1</clus>
<clus scale="  116.620">  2  7  1 -1</clus>
<clus scale="  123.867">  1  5  2 -1</clus>
</clustering>
</event>
<event>
 9    1  0.1266593E-005  0.1284067E+03  0.7546771E-02  0.1232080E+00
         -1   -1    0    0    0  501 -0.00000000000E+00  0.00000000000E+00  0.36356660853E+03  0.36356660853E+03  0.00000000000E+00 0.  1.
          1   -1    0    0  502    0  0.00000000000E+00 -0.00000000000E+00 -0.54154438120E+02  0.54154438120E+02  0.00000000000E+00 0. -1.
         23    2    1    2    0    0 -0.83078554493E+02 -0.55653506688E+02  0.14009645283E+03  0.19282577972E+03  0.86921839647E+02 0.  0.
         23    2    1    2    0    0  0.61366011827E+02  0.41975189003E+02  0.12493133057E+03  0.17362632219E+03  0.94923961679E+02 0.  0.
        -11    1    4    4    0    0  0.59636484261E+02  0.97891428427E+01  0.12769656729E+03  0.14127544327E+03  0.00000000000E+00 0.  1.
         11    1    4    4    0    0  0.17295275664E+01  0.32186046161E+02 -0.27652367216E+01  0.32350878925E+02  0.00000000000E+00 0. -1.
        -13    1    3    3    0    0 -0.28894421668E+02  0.18535630455E+02  0.67527244229E+02  0.75752134710E+02  0.00000000000E+00 0.  1.
         13    1    3    3    0    0 -0.54184132825E+02 -0.74189137144E+02  0.72569208597E+02  0.11707364501E+03  0.00000000000E+00 0. -1.
         21    1    1    2  502  501  0.21712542666E+02  0.13678317685E+02  0.44384387015E+02  0.51268944736E+02  0.00000000000E+00 0. -1.
<scales pt_clust_5="13000.00000" pt_clust_6="13000.00000" pt_clust_7="13000.00000" pt_clust_8="13000.00000" pt_clust_9="25.66186"></scales>
<clustering>
<clus scale="   25.662">  1  9  2 -1</clus>
<clus scale="   86.922">  7  8 -1 -1</clus>
<clus scale="   94.924">  5  6 -1 -1</clus>
<clus scale="  122.610">  1  7  2 -1</clus>
<clus scale="  128.407">  2  5  1 -1</clus>
</clustering>
</event>
<event>
 9    1  0.1266593E-005  0.9853882E+02  0.7546771E-02  0.1284034E+00
         -1   -1    0    0    0  501 -0.00000000000E+00  0.00000000000E+00  0.12697539381E+03  0.12697539381E+03  0.00000000000E+00 0.  1.
          1   -1    0    0  502    0  0.00000000000E+00 -0.00000000000E+00 -0.43608117051E+03  0.43608117051E+03  0.00000000000E+00 0. -1.
         23    2    1    2    0    0 -0.51859746999E+02 -0.18629241158E+02  0.78656824863E+02  0.13177143129E+03  0.90223788553E+02 0.  0.
         23    2    1    2    0    0  0.27373847655E+02  0.22930011604E+02 -0.39366636872E+03  0.40573302235E+03  0.91492964767E+02 0.  0.
        -11    1    4    4    0    0 -0.18948881721E+02  0.39420750245E+02 -0.25220786099E+03  0.25597238291E+03  0.00000000000E+00 0. -1.
         11    1    4    4    0    0  0.46322729376E+02 -0.16490738641E+02 -0.14145850773E+03  0.14976063944E+03  0.00000000000E+00 0.  1.
        -11    1    3    3    0    0 -0.22940423079E+02 -0.43110939517E+02  0.51905859138E+01  0.49109655865E+02  0.00000000000E+00 0. -1.
         11    1    3    3    0    0 -0.28919323920E+02  0.24481698358E+02  0.73466238949E+02  0.82661775422E+02  0.00000000000E+00 0.  1.
         21    1    1    2  502  501  0.24485899344E+02 -0.43007704462E+01  0.59037671535E+01  0.25552110671E+02  0.00000000000E+00 0.  1.
<scales pt_clust_5="13000.00000" pt_clust_6="13000.00000" pt_clust_7="13000.00000" pt_clust_8="13000.00000" pt_clust_9="24.86073"></scales>
<clustering>
<clus scale="   24.861">  1  9  2 -1</clus>
<clus scale="   90.224">  7  8 -1 -1</clus>
<clus scale="   91.493">  5  6 -1 -1</clus>
<clus scale="   97.362">  1  7  2 -1</clus>
<clus scale="   98.539">  2  5  1 -1</clus>
</clustering>
</event>
<event>
 9    1  0.1266593E-005  0.1639849E+03  0.7546771E-02  0.1216195E+00
          2   -1    0    0  502    0  0.00000000000E+00  0.00000000000E+00  0.24923364823E+03  0.24923364823E+03  0.00000000000E+00 0. -1.
         -2   -1    0    0    0  501 -0.00000000000E+00 -0.00000000000E+00 -0.20096730127E+03  0.20096730127E+03  0.00000000000E+00 0.  1.
         23    2    1    2    0    0  0.14788617429E+03 -0.20165863652E+01 -0.12259083279E+02  0.17404632452E+03  0.90925523303E+02 0.  0.
         23    2    1    2    0    0 -0.17761451987E+02  0.32552196460E+01  0.10977944170E+03  0.13701464075E+03  0.79971371931E+02 0.  0.
        -11    1    4    4    0    0  0.14493986910E+02 -0.30829292378E+02  0.35895272161E+02  0.49487286130E+02  0.00000000000E+00 0.  1.
         11    1    4    4    0    0 -0.32255438897E+02  0.34084512024E+02  0.73884169539E+02  0.87527354620E+02  0.00000000000E+00 0. -1.
        -13    1    3    3    0    0  0.12334223430E+02  0.21681861119E+02 -0.25661127236E+02  0.35787282940E+02  0.00000000000E+00 0. -1.
         13    1    3    3    0    0  0.13555195086E+03 -0.23698447484E+02  0.13402043957E+02  0.13825904158E+03  0.00000000000E+00 0.  1.
         21    1    1    2  502  501 -0.13012472231E+03 -0.12386332808E+01 -0.49254011458E+02  0.13913998423E+03  0.00000000000E+00 0. -1.
<scales pt_clust_5="13000.00000" pt_clust_6="13000.00000" pt_clust_7="13000.00000" pt_clust_8="13000.00000" pt_clust_9="136.46831"></scales>
<clustering>
<clus scale="   79.971">  5  6 -1 -1</clus>
<clus scale="   81.985">  1  5  2 -1</clus>
<clus scale="   90.926">  7  8 -1 -1</clus>
<clus scale="  136.468">  2  9  1 -1</clus>
<clus scale="   81.985">  1  5  2 -1</clus>
</clustering>
</event>
<event>
 9    1  0.2173382E-005  0.9255467E+02  0.7546771E-02  0.1296911E+00
         -1   -1    0    0    0  501 -0.00000000000E+00  0.00000000000E+00  0.46721325183E+03  0.46721325183E+03  0.00000000000E+00 0.  1.
          1   -1    0    0  502    0  0.00000000000E+00 -0.00000000000E+00 -0.43904820926E+02  0.43904820926E+02  0.00000000000E+00 0. -1.
         23    2    1    2    0    0 -0.22132343185E+02  0.13122649491E+02  0.35647968674E+03  0.36893779696E+03  0.91516590967E+02 0.  0.
         23    2    1    2    0    0  0.10440847819E+02  0.41982400388E+01  0.25522452308E+02  0.95888656415E+02  0.91742042351E+02 0.  0.
        -11    1    4    4    0    0 -0.23933264362E+02 -0.31782449122E+02 -0.38337805980E+00  0.39787839775E+02  0.00000000000E+00 0.  1.
         11    1    4    4    0    0  0.34374112181E+02  0.35980689160E+02  0.25905830367E+02  0.56100816641E+02  0.00000000000E+00 0. -1.
        -11    1    3    3    0    0 -0.38984314680E+02 -0.26454103055E+02  0.24414320768E+03  0.24864734508E+03  0.00000000000E+00 0. -1.
         11    1    3    3    0    0  0.16851971496E+02  0.39576752546E+02  0.11233647905E+03  0.12029045187E+03  0.00000000000E+00 0.  1.
         21    1    1    2  502  501  0.11691495366E+02 -0.17320889529E+02  0.41306291860E+02  0.46291619384E+02  0.00000000000E+00 0. -1.
<scales pt_clust_5="13000.00000" pt_clust_6="13000.00000" pt_clust_7="13000.00000" pt_clust_8="13000.00000" pt_clust_9="20.89747"></scales>
<clustering>
<clus scale="   20.897">  1  9  2 -1</clus>
<clus scale="   91.517">  7  8 -1 -1</clus>
<clus scale="   91.742">  5  6 -1 -1</clus>
<clus scale="   92.331">  1  7  2 -1</clus>
<clus scale="   92.555">  2  5  1 -1</clus>
</clustering>
</event>
<event>
 9    1  0.1266593E-005  0.1313258E+03  0.7546771E-02  0.1226614E+00
         -1   -1    0    0    0  501 -0.00000000000E+00  0.00000000000E+00  0.17614629462E+03  0.17614629462E+03  0.00000000000E+00 0.  1.
          1   -1    0    0  502    0  0.00000000000E+00 -0.00000000000E+00 -0.16082842885E+03  0.16082842885E+03  0.00000000000E+00 0. -1.
         23    2    1    2    0    0  0.78368845515E+01  0.98725003263E+02  0.99566008592E+02  0.16832014586E+03  0.92791370325E+02 0.  0.
         23    2    1    2    0    0 -0.20827116764E+02 -0.74174576818E+02 -0.59993978159E+02  0.13178000541E+03  0.88493252697E+02 0.  0.
        -11    1    4    4    0    0  0.26330732512E+02 -0.25234683796E+02 -0.51762562730E+02  0.63320294071E+02  0.00000000000E+00 0. -1.
         11    1    4    4    0    0 -0.47157849276E+02 -0.48939893022E+02 -0.82314154290E+01  0.68459711344E+02  0.00000000000E+00 0.  1.
        -11    1    3    3    0    0  0.43619696552E+02  0.85290722530E+02  0.58633053367E+02  0.11231660707E+03  0.00000000000E+00 0.  1.
         11    1    3    3    0    0 -0.35782812000E+02  0.13434280734E+02  0.40932955225E+02  0.56003538789E+02  0.00000000000E+00 0. -1.
         21    1    1    2  502  501  0.12990232212E+02 -0.24550426445E+02 -0.24254164662E+02  0.36874572201E+02  0.00000000000E+00 0. -1.
<scales pt_clust_5="13000.00000" pt_clust_6="13000.00000" pt_clust_7="13000.00000" pt_clust_8="13000.00000" pt_clust_9="27.77534"></scales>
<clustering>
<clus scale="   27.775">  2  9  1 -1</clus>
<clus scale="   88.493">  5  6 -1 -1</clus>
<clus scale="   92.791">  7  8 -1 -1</clus>
<clus scale="  128.325">  2  5  1 -1</clus>
<clus scale="   27.775">  2  5  1 -1</clus>
</clustering>
</event>
<event>
 9    1  0.1266593E-005  0.2723610E+03  0.7546771E-02  0.1099959E+00
          1   -1    0    0  502    0  0.00000000000E+00  0.00000000000E+00  0.21576134297E+04  0.21576134297E+04  0.00000000000E+00 0. -1.
         -1   -1    0    0    0  501 -0.00000000000E+00 -0.00000000000E+00 -0.64144550040E+02  0.64144550040E+02  0.00000000000E+00 0.  1.
         23    2    1    2    0    0  0.17167744525E+03 -0.24665235461E+03  0.92179071519E+03  0.97379557115E+03  0.90934935734E+02 0.  0.
         23    2    1    2    0    0 -0.94011786287E+02  0.21516185583E+03  0.11232595674E+04  0.11511741519E+04  0.91416803931E+02 0.  0.
        -11    1    4    4    0    0 -0.28128909013E+02  0.14937880506E+03  0.81909479888E+03  0.83307955951E+03  0.00000000000E+00 0. -1.
         11    1    4    4    0    0 -0.65882877274E+02  0.65783050766E+02  0.30416476850E+03  0.31809459235E+03  0.00000000000E+00 0.  1.
        -13    1    3    3    0    0  0.12746633676E+03 -0.16804808037E+03  0.75822188592E+03  0.78701223155E+03  0.00000000000E+00 0. -1.
         13    1    3    3    0    0  0.44211108492E+02 -0.78604274241E+02  0.16356882928E+03  0.18678333960E+03  0.00000000000E+00 0.  1.
         21    1    1    2  502  501 -0.77665658961E+02  0.31490498788E+02  0.48418597081E+02  0.96788256721E+02  0.00000000000E+00 0.  1.
<scales pt_clust_5="13000.00000" pt_clust_6="13000.00000" pt_clust_7="13000.00000" pt_clust_8="13000.00000" pt_clust_9="83.80696"></scales>
<clustering>
<clus scale="   83.807">  2  9  1 -1</clus>
<clus scale="   90.935">  7  8 -1 -1</clus>
<clus scale="   91.417">  5  6 -1 -1</clus>
<clus scale="  272.200">  2  7  1 -1</clus>
<clus scale="  272.361">  1  5  2 -1</clus>
</clustering>
</event>
<event>
 9    1  0.1266593E-005  0.8848960E+02  0.7546771E-02  0.1308800E+00
         -1   -1    0    0    0  501 -0.00000000000E+00  0.00000000000E+00  0.93553458715E+02  0.93553458715E+02  0.00000000000E+00 0.  1.
          1   -1    0    0  502    0  0.00000000000E+00 -0.00000000000E+00 -0.19396984195E+03  0.19396984195E+03  0.00000000000E+00 0. -1.
         23    2    1    2    0    0 -0.26735350467E+02  0.43455617063E+01  0.16264350656E+02  0.93135057784E+02  0.87612482073E+02 0.  0.
         23    2    1    2    0    0  0.35259390822E+01  0.12842896220E+02 -0.13544521274E+03  0.15994661793E+03  0.84024655319E+02 0.  0.
        -11    1    4    4    0    0  0.18172281007E+02 -0.26229442837E+02 -0.10074061639E+03  0.10567349365E+03  0.00000000000E+00 0. -1.
         11    1    4    4    0    0 -0.14646341924E+02  0.39072339057E+02 -0.34704596349E+02  0.54273124278E+02  0.00000000000E+00 0.  1.
        -13    1    3    3    0    0 -0.54004751367E+02  0.13511327612E+02  0.27696167794E+02  0.62178347152E+02  0.00000000000E+00 0. -1.
         13    1    3    3    0    0  0.27269400900E+02 -0.91657659057E+01 -0.11431817138E+02  0.30956710632E+02  0.00000000000E+00 0.  1.
         21    1    1    2  502  501  0.23209411385E+02 -0.17188457926E+02  0.18764478853E+02  0.34441624952E+02  0.00000000000E+00 0.  1.
<scales pt_clust_5="13000.00000" pt_clust_6="13000.00000" pt_clust_7="13000.00000" pt_clust_8="13000.00000" pt_clust_9="28.88113"></scales>
<clustering>
<clus scale="   28.881">  1  9  2 -1</clus>
<clus scale="   84.025">  5  6 -1 -1</clus>
<clus scale="   84.939">  2  5  1 -1</clus>
<clus scale="   87.612">  7  8 -1 -1</clus>
<clus scale="   84.939">  2  5  1 -1</clus>
</clustering>
</event>
<event>
 9    1  0.1266593E-005  0.1756873E+03  0.7546771E-02  0.1174824E+00
          2   -1    0    0  502    0  0.00000000000E+00  0.00000000000E+00  0.12411135261E+03  0.12411135261E+03  0.00000000000E+00 0. -1.
         -2   -1    0    0    0  501 -0.00000000000E+00 -0.00000000000E+00 -0.30111003199E+03  0.30111003199E+03  0.00000000000E+00 0.  1.
         23    2    1    2    0    0  0.12224516955E+03  0.24155647363E+02 -0.13503802761E+03  0.21395539077E+03  0.10960959612E+03 0.  0.
         23    2    1    2    0    0 -0.13720904017E+03 -0.44422632443E+02 -0.10623363389E+02  0.17105786342E+03  0.91368735419E+02 0.  0.
        -11    1    4    4    0    0 -0.11952993836E+03 -0.54518977988E+02 -0.38165791707E+02  0.13680772194E+03  0.00000000000E+00 0.  1.
         11    1    4    4    0    0 -0.17679101808E+02  0.10096345546E+02  0.27542428318E+02  0.34250141485E+02  0.00000000000E+00 0. -1.
        -13    1    3    3    0    0  0.46688086374E+02  0.64145746776E+02 -0.52569964199E+02  0.95173816644E+02  0.00000000000E+00 0.  1.
         13    1    3    3    0    0  0.75557083181E+02 -0.39990099413E+02 -0.82468063412E+02  0.11878157413E+03  0.00000000000E+00 0. -1.
         21    1    1    2  502  501  0.14963870610E+02  0.20266985080E+02 -0.31337288380E+02  0.40208130408E+02  0.00000000000E+00 0. -1.
<scales pt_clust_5="13000.00000" pt_clust_6="13000.00000" pt_clust_7="13000.00000" pt_clust_8="13000.00000" pt_clust_9="25.19262"></scales>
<clustering>
<clus scale="   25.193">  2  9  1 -1</clus>
<clus scale="   91.369">  5  6 -1 -1</clus>
<clus scale="  109.610">  7  8 -1 -1</clus>
<clus scale="  164.924">  1  5  2 -1</clus>
<clus scale="  164.924">  1  5  2 -1</clus>
</clustering>
</event>
<event>
 9    1  0.1266593E-005  0.1606994E+03  0.7546771E-02  0.1188269E+00
          2   -1    0    0  502    0  0.00000000000E+00  0.00000000000E+00  0.23975118879E+03  0.23975118879E+03  0.00000000000E+00 0. -1.
         -2   -1    0    0    0  501 -0.00000000000E+00 -0.00000000000E+00 -0.24885037058E+03  0.24885037058E+03  0.00000000000E+00 0.  1.
         23    2    1    2    0    0 -0.88615589908E+01  0.76825190719E+02 -0.51948220893E+02  0.13021083126E+03  0.90970356533E+02 0.  0.
         23    2    1    2    0    0  0.21556159010E+02 -0.15581134690E+03  0.14163664536E+03  0.23127284232E+03  0.93189830301E+02 0.  0.
        -11    1    4    4    0    0  0.53679203460E+02 -0.55940423207E+02  0.52779682707E+02  0.93789566260E+02  0.00000000000E+00 0.  1.
         11    1    4    4    0    0 -0.32123044449E+02 -0.99870923690E+02  0.88856962653E+02  0.13748327606E+03  0.00000000000E+00 0. -1.
        -13    1    3    3    0    0 -0.44303840658E+02  0.64123653862E+02 -0.49817451420E+02  0.92501090522E+02  0.00000000000E+00 0.  1.
         13    1    3    3    0    0  0.35442281667E+02  0.12701536857E+02 -0.21307694732E+01  0.37709740742E+02  0.00000000000E+00 0. -1.
         21    1    1    2  502  501 -0.12694600019E+02  0.78986156178E+02 -0.98787606255E+02  0.12711788579E+03  0.00000000000E+00 0.  1.
<scales pt_clust_5="13000.00000" pt_clust_6="13000.00000" pt_clust_7="13000.00000" pt_clust_8="13000.00000" pt_clust_9="79.99979"></scales>
<clustering>
<clus scale="   80.000">  2  9  1 -1</clus>
<clus scale="   90.970">  7  8 -1 -1</clus>
<clus scale="   93.190">  5  6 -1 -1</clus>
<clus scale="  159.423">  2  7  1 -1</clus>
<clus scale="  160.699">  1  5  2 -1</clus>
</clustering>
</event>
<event>
 9    1  0.1266593E-005  0.1468166E+03  0.7546771E-02  0.1205179E+00
         -2   -1    0    0    0  501 -0.00000000000E+00  0.00000000000E+00  0.48333040484E+02  0.48333040484E+02  0.00000000000E+00 0.  1.
          2   -1    0    0  502    0  0.00000000000E+00 -0.00000000000E+00 -0.70619152044E+03  0.70619152044E+03  0.00000000000E+00 0. -1.
         23    2    1    2    0    0  0.57100227418E+02 -0.73976562786E+02 -0.13803637224E+03  0.18989030587E+03  0.90946799777E+02 0.  0.
         23    2    1    2    0    0 -0.80570466239E+02  0.89601558964E+02 -0.51333144274E+03  0.53570120566E+03  0.94586321617E+02 0.  0.
        -11    1    4    4    0    0 -0.57992666134E+02  0.66310595800E+02 -0.48405397437E+03  0.49200456761E+03  0.00000000000E+00 0. -1.
         11    1    4    4    0    0 -0.22577800105E+02  0.23290963164E+02 -0.29277468366E+02  0.43696638047E+02  0.00000000000E+00 0.  1.
        -11    1    3    3    0    0  0.95836225065E+01 -0.77295834054E+02 -0.59402489252E+02  0.97954823831E+02  0.00000000000E+00 0.  1.
         11    1    3    3    0    0  0.47516604912E+02  0.33192712684E+01 -0.78633882985E+02  0.91935482037E+02  0.00000000000E+00 0. -1.
         21    1    1    2  502  501  0.23470238821E+02 -0.15624996178E+02 -0.64906649836E+01  0.28933049404E+02  0.00000000000E+00 0.  1.
<scales pt_clust_5="13000.00000" pt_clust_6="13000.00000" pt_clust_7="13000.00000" pt_clust_8="13000.00000" pt_clust_9="28.19561"></scales>
<clustering>
<clus scale="   28.196">  1  9  2 -1</clus>
<clus scale="   90.947">  7  8 -1 -1</clus>
<clus scale="   94.586">  5  6 -1 -1</clus>
<clus scale="  144.499">  1  7  2 -1</clus>
<clus scale="  146.817">  2  5  1 -1</clus>
</clustering>
</event>
<event>
 9    1  0.1266593E-005  0.1167914E+03  0.7546771E-02  0.1248793E+00
         -1   -1    0    0    0  501 -0.00000000000E+00  0.00000000000E+00  0.11330528959E+03  0.11330528959E+03  0.00000000000E+00 0.  1.
          1   -1    0    0  502    0  0.00000000000E+00 -0.00000000000E+00 -0.41565886127E+03  0.41565886127E+03  0.00000000000E+00 0. -1.
         23    2    1    2    0    0 -0.79449808870E+02  0.33253053063E+02  0.11183190034E+02  0.12743809172E+03  0.93259668742E+02 0.  0.
         23    2    1    2    0    0  0.68667451838E+02  0.12134362278E+02 -0.33181832957E+03  0.35142124483E+03  0.92363552253E+02 0.  0.
        -13    1    3    3    0    0 -0.71051634268E+02 -0.17307309079E+02  0.19087273871E+02  0.75579108909E+02  0.00000000000E+00 0.  1.
         13    1    3    3    0    0 -0.83981746017E+01  0.50560362143E+02 -0.79040838367E+01  0.51858982808E+02  0.00000000000E+00 0. -1.
        -13    1    4    4    0    0 -0.14508615216E+02  0.25063621211E+02 -0.56009553406E+02  0.63053589085E+02  0.00000000000E+00 0.  1.
         13    1    4    4    0    0  0.83176067054E+02 -0.12929258934E+02 -0.27580877617E+03  0.28836765574E+03  0.00000000000E+00 0. -1.
         21    1    1    2  502  501  0.10782357032E+02 -0.45387415341E+02  0.18281567861E+02  0.50104814319E+02  0.00000000000E+00 0. -1.
<scales pt_clust_5="13000.00000" pt_clust_6="13000.00000" pt_clust_7="13000.00000" pt_clust_8="13000.00000" pt_clust_9="46.65058"></scales>
<clustering>
<clus scale="   46.651">  1  9  2 -1</clus>
<clus scale="   92.364">  7  8 -1 -1</clus>
<clus scale="   93.260">  5  6 -1 -1</clus>
<clus scale="  116.077">  2  7  1 -1</clus>
<clus scale="  116.077">  2  5  1 -1</clus>
</clustering>
</event>
<event>
 9    1  0.1266593E-005  0.1035961E+03  0.7546771E-02  0.1274172E+00
         -2   -1    0    0    0  501 -0.00000000000E+00  0.00000000000E+00  0.15214879029E+03  0.15214879029E+03  0.00000000000E+00 0.  1.
          2   -1    0    0  502    0  0.00000000000E+00 -0.00000000000E+00 -0.12337371298E+03  0.12337371298E+03  0.00000000000E+00 0. -1.
         23    2    1    2    0    0 -0.25486870040E+01 -0.32632184682E+02  0.57809644622E+02  0.11455421794E+03  0.93323944162E+02 0.  0.
         23    2    1    2    0    0 -0.12327897025E+02  0.48023886953E+02 -0.62906596519E+02  0.12089919982E+03  0.90559957309E+02 0.  0.
        -11    1    3    3    0    0  0.25346625816E+02 -0.52039822882E+02  0.55975455441E+02  0.80522333658E+02  0.00000000000E+00 0.  1.
         11    1    3    3    0    0 -0.27895312820E+02  0.19407638201E+02  0.18341891809E+01  0.34031884282E+02  0.00000000000E+00 0. -1.
        -11    1    4    4    0    0  0.17810161493E+02 -0.19119854760E+02 -0.35930577162E+01  0.26375760884E+02  0.00000000000E+00 0.  1.
         11    1    4    4    0    0 -0.30138058518E+02  0.67143741713E+02 -0.59313538803E+02  0.94523438934E+02  0.00000000000E+00 0. -1.
         21    1    1    2  502  501  0.14876584029E+02 -0.15391702271E+02  0.33872029206E+02  0.40069085512E+02  0.00000000000E+00 0.  1.
<scales pt_clust_5="13000.00000" pt_clust_6="13000.00000" pt_clust_7="13000.00000" pt_clust_8="13000.00000" pt_clust_9="21.40601"></scales>
<clustering>
<clus scale="   21.406">  1  9  2 -1</clus>
<clus scale="   90.560">  7  8 -1 -1</clus>
<clus scale="   93.324">  5  6 -1 -1</clus>
<clus scale="  101.113">  2  7  1 -1</clus>
<clus scale="  101.113">  2  5  1 -1</clus>
</clustering>
</event>
<event>
 9    1  0.1266593E-005  0.1657396E+03  0.7546771E-02  0.1182643E+00
         -1   -1    0    0    0  501 -0.00000000000E+00  0.00000000000E+00  0.14922088067E+03  0.14922088067E+03  0.00000000000E+00 0.  1.
          1   -1    0    0  502    0  0.00000000000E+00 -0.00000000000E+00 -0.24654896980E+03  0.24654896980E+03  0.00000000000E+00 0. -1.
         23    2    1    2    0    0  0.11351660025E+03 -0.89093163472E+02  0.34441103413E+02  0.17517962140E+03  0.93156319372E+02 0.  0.
         23    2    1    2    0    0 -0.89754023809E+02  0.82182584941E+02 -0.11441716166E+03  0.19036591583E+03  0.91313377820E+02 0.  0.
        -11    1    4    4    0    0 -0.62609685771E+02  0.32706522119E+02 -0.95525386037E+01  0.71280715030E+02  0.00000000000E+00 0.  1.
         11    1    4    4    0    0 -0.27144338039E+02  0.49476062821E+02 -0.10486462306E+03  0.11908520080E+03  0.00000000000E+00 0. -1.
        -11    1    3    3    0    0  0.92807720593E+02 -0.10600985960E+03  0.42648685191E+02  0.14720826635E+03  0.00000000000E+00 0.  1.
         11    1    3    3    0    0  0.20708879660E+02  0.16916696126E+02 -0.82075817782E+01  0.27971355048E+02  0.00000000000E+00 0. -1.
         21    1    1    2  502  501 -0.23762576443E+02  0.69105785313E+01 -0.17352030880E+02  0.30224313235E+02  0.00000000000E+00 0. -1.
<scales pt_clust_5="13000.00000" pt_clust_6="13000.00000" pt_clust_7="13000.00000" pt_clust_8="13000.00000" pt_clust_9="24.74704"></scales>
<clustering>
<clus scale="   24.747">  2  9  1 -1</clus>
<clus scale="   91.313">  5  6 -1 -1</clus>
<clus scale="   93.156">  7  8 -1 -1</clus>
<clus scale="  164.711">  2  5  1 -1</clus>
<clus scale="   24.747">  2  5  1 -1</clus>
</clustering>
</event>
<event>
 9    1  0.1266593E-005  0.1125175E+03  0.7546771E-02  0.1256082E+00
          1   -1    0    0  502    0  0.00000000000E+00  0.00000000000E+00  0.21364691943E+03  0.21364691943E+03  0.00000000000E+00 0. -1.
         -1   -1    0    0    0  501 -0.00000000000E+00 -0.00000000000E+00 -0.63694028029E+03  0.63694028029E+03  0.00000000000E+00 0.  1.
         23    2    1    2    0    0 -0.41131863680E+02  0.10745219980E+02 -0.28165681663E+03  0.29908908106E+03  0.91194441146E+02 0.  0.
         23    2    1    2    0    0  0.33561018256E+02 -0.58983974414E+02  0.18728913031E+03  0.21896782755E+03  0.90907865361E+02 0.  0.
        -11    1    4    4    0    0  0.45576180045E+02 -0.28074664087E+02  0.17596252957E+03  0.18392440503E+03  0.00000000000E+00 0.  1.
         11    1    4    4    0    0 -0.12015161789E+02 -0.30909310327E+02  0.11326600739E+02  0.35043422521E+02  0.00000000000E+00 0. -1.
        -11    1    3    3    0    0 -0.82234252478E+01 -0.26221398257E+02 -0.23283257767E+02  0.36018003021E+02  0.00000000000E+00 0. -1.
         11    1    3    3    0    0 -0.32908438432E+02  0.36966618237E+02 -0.25837355886E+03  0.26307107804E+03  0.00000000000E+00 0.  1.
         21    1    1    2  502  501  0.75708454241E+01  0.48238754435E+02 -0.32892567454E+03  0.33253029111E+03  0.00000000000E+00 0.  1.
<scales pt_clust_5="13000.00000" pt_clust_6="13000.00000" pt_clust_7="13000.00000" pt_clust_8="13000.00000" pt_clust_9="48.82924"></scales>
<clustering>
<clus scale="   48.829">  2  9  1 -1</clus>
<clus scale="   90.908">  5  6 -1 -1</clus>
<clus scale="   91.194">  7  8 -1 -1</clus>
<clus scale="  112.285">  1  5  2 -1</clus>
<clus scale="  112.285">  1  5  2 -1</clus>
</clustering>
</event>
<event>
 9    1  0.1266593E-005  0.2279693E+03  0.7546771E-02  0.1128090E+00
          2   -1    0    0  502    0  0.00000000000E+00  0.00000000000E+00  0.26064763049E+03  0.26064763049E+03  0.00000000000E+00 0.  1.
         -2   -1    0    0    0  501 -0.00000000000E+00 -0.00000000000E+00 -0.87410299188E+03  0.87410299188E+03  0.00000000000E+00 0. -1.
         23    2    1    2    0    0 -0.20847701208E+03  0.30215950532E+02 -0.79165641835E+03  0.82422055188E+03  0.90796284031E+02 0.  0.
         23    2    1    2    0    0  0.18470760900E+03 -0.26107362363E+02  0.19210138074E+03  0.28268973966E+03  0.90620379810E+02 0.  0.
        -13    1    4    4    0    0  0.17368597116E+03  0.55704845565E+01  0.16375953146E+03  0.23877820465E+03  0.00000000000E+00 0.  1.
         13    1    4    4    0    0  0.11021637846E+02 -0.31677846920E+02  0.28341849281E+02  0.43911535010E+02  0.00000000000E+00 0. -1.
        -13    1    3    3    0    0 -0.16436005397E+03  0.60633941834E+02 -0.63067003449E+03  0.65454976483E+03  0.00000000000E+00 0. -1.
         13    1    3    3    0    0 -0.44116958113E+02 -0.30417991302E+02 -0.16098638386E+03  0.16967078704E+03  0.00000000000E+00 0.  1.
         21    1    1    2  502  501  0.23769403079E+02 -0.41085881691E+01 -0.13900323781E+02  0.27840330830E+02  0.00000000000E+00 0.  1.
<scales pt_clust_5="13000.00000" pt_clust_6="13000.00000" pt_clust_7="13000.00000" pt_clust_8="13000.00000" pt_clust_9="24.12188"></scales>
<clustering>
<clus scale="   24.122">  1  9  2 -1</clus>
<clus scale="   90.620">  5  6 -1 -1</clus>
<clus scale="   90.796">  7  8 -1 -1</clus>
<clus scale="  227.899">  1  5  2 -1</clus>
<clus scale="   24.122">  1  5  2 -1</clus>
</clustering>
</event>
<event>
 9    1  0.1266593E-005  0.1627471E+03  0.7546771E-02  0.1185982E+00
         -1   -1    0    0    0  501 -0.00000000000E+00  0.00000000000E+00  0.47395846963E+02  0.47395846963E+02  0.00000000000E+00 0.  1.
          1   -1    0    0  502    0  0.00000000000E+00 -0.00000000000E+00 -0.80757088442E+03  0.80757088442E+03  0.00000000000E+00 0. -1.
         23    2    1    2    0    0 -0.71173046442E+02 -0.10196923553E+03 -0.20754916562E+03  0.25814606294E+03  0.89996700657E+02 0.  0.
         23    2    1    2    0    0  0.69321299077E+02  0.12306871769E+03 -0.55104945433E+03  0.57558150160E+03  0.87676747698E+02 0.  0.
        -11    1    4    4    0    0  0.55833745535E+02  0.97843700139E+02 -0.52481086462E+03  0.53676553580E+03  0.00000000000E+00 0. -1.
         11    1    4    4    0    0  0.13487553542E+02  0.25225017555E+02 -0.26238589709E+02  0.38815965802E+02  0.00000000000E+00 0.  1.
        -13    1    3    3    0    0 -0.42628803396E+02  0.16551077935E+01 -0.85243671589E+02  0.95322808429E+02  0.00000000000E+00 0. -1.
         13    1    3    3    0    0 -0.28544243045E+02 -0.10362434333E+03 -0.12230549403E+03  0.16282325452E+03  0.00000000000E+00 0.  1.
         21    1    1    2  502  501  0.18517473644E+01 -0.21099482162E+02 -0.15764175056E+01  0.21239166838E+02  0.00000000000E+00 0.  1.
<scales pt_clust_5="13000.00000" pt_clust_6="13000.00000" pt_clust_7="13000.00000" pt_clust_8="13000.00000" pt_clust_9="21.18058"></scales>
<clustering>
<clus scale="   21.181">  1  9  2 -1</clus>
<clus scale="   87.677">  5  6 -1 -1</clus>
<clus scale="   89.997">  7  8 -1 -1</clus>
<clus scale="  161.476">  2  5  1 -1</clus>
<clus scale="  161.476">  2  5  1 -1</clus>
</clustering>
</event>
<event>
 9    1  0.1266593E-005  0.1489670E+03  0.7546771E-02  0.1221168E+00
         -1   -1    0    0    0  501 -0.00000000000E+00  0.00000000000E+00  0.15488425277E+03  0.15488425277E+03  0.00000000000E+00 0.  1.
          1   -1    0    0  502    0  0.00000000000E+00 -0.00000000000E+00 -0.24567671422E+03  0.24567671422E+03  0.00000000000E+00 0. -1.
         23    2    1    2    0    0 -0.29518355561E+02 -0.96266136777E+01  0.21667837478E+02  0.10085340299E+03  0.93476781648E+02 0.  0.
         23    2    1    2    0    0  0.71517816581E+02  0.10603623910E+03 -0.11468518870E+03  0.19452334116E+03  0.91258729202E+02 0.  0.
        -11    1    3    3    0    0 -0.13044575816E+02 -0.37471254622E+02  0.45722742966E+02  0.60537798981E+02  0.00000000000E+00 0.  1.
         11    1    3    3    0    0 -0.16473779745E+02  0.27844640944E+02 -0.24054905488E+02  0.40315604007E+02  0.00000000000E+00 0. -1.
        -11    1    4    4    0    0 -0.97619472418E+01  0.42203697718E+02 -0.69127805869E+02  0.81578803984E+02  0.00000000000E+00 0. -1.
         11    1    4    4    0    0  0.81279763823E+02  0.63832541386E+02 -0.45557382833E+02  0.11294453717E+03  0.00000000000E+00 0.  1.
         21    1    1    2  502  501 -0.41999461020E+02 -0.96409625426E+02  0.22248897714E+01  0.10518422284E+03  0.00000000000E+00 0.  1.
<scales pt_clust_5="13000.00000" pt_clust_6="13000.00000" pt_clust_7="13000.00000" pt_clust_8="13000.00000" pt_clust_9="117.74135"></scales>
<clustering>
<clus scale="   91.259">  7  8 -1 -1</clus>
<clus scale="   93.477">  5  6 -1 -1</clus>
<clus scale="   98.498">  1  5  2 -1</clus>
<clus scale="  117.741">  1  9  2 -1</clus>
<clus scale="  148.967">  2  5  1 -1</clus>
</clustering>
</event>
<event>
 9    1  0.1266593E-005  0.9201147E+02  0.7546771E-02  0.1301114E+00
          1   -1    0    0  502    0  0.00000000000E+00  0.00000000000E+00  0.58647364548E+02  0.58647364548E+02  0.00000000000E+00 0. -1.
         -1   -1    0    0    0  501 -0.00000000000E+00 -0.00000000000E+00 -0.25900627489E+03  0.25900627489E+03  0.00000000000E+00 0.  1.
         23    2    1    2    0    0  0.54714401215E+01  0.74311051006E+01 -0.11901443294E+03  0.15016802671E+03  0.91108962336E+02 0.  0.
         23    2    1    2    0    0 -0.16511678915E+02  0.40658056042E+02 -0.47115240717E+02  0.10743484308E+03  0.86003991403E+02 0.  0.
        -11    1    4    4    0    0 -0.34601817088E+02 -0.80887840483E+01 -0.42258598011E+02  0.55213252748E+02  0.00000000000E+00 0.  1.
         11    1    4    4    0    0  0.18090138174E+02  0.48746840091E+02 -0.48566427062E+01  0.52221590328E+02  0.00000000000E+00 0. -1.
        -13    1    3    3    0    0  0.79001296360E+01 -0.41656805817E+02 -0.53276716746E+02  0.68088986381E+02  0.00000000000E+00 0.  1.
         13    1    3    3    0    0 -0.24286895145E+01  0.49087910918E+02 -0.65737716191E+02  0.82079040327E+02  0.00000000000E+00 0. -1.
         21    1    1    2  502  501  0.11040238793E+02 -0.48089161143E+02 -0.34229236692E+02  0.60050769659E+02  0.00000000000E+00 0.  1.
<scales pt_clust_5="13000.00000" pt_clust_6="13000.00000" pt_clust_7="13000.00000" pt_clust_8="13000.00000" pt_clust_9="49.34019"></scales>
<clustering>
<clus scale="   49.340">  1  9  2 -1</clus>
<clus scale="   86.004">  5  6 -1 -1</clus>
<clus scale="   86.959">  1  5  2 -1</clus>
<clus scale="   91.109">  7  8 -1 -1</clus>
<clus scale="   49.340">  1  5  2 -1</clus>
</clustering>
</event>
<event>
 9    1  0.1266593E-005  0.2267516E+03  0.7546771E-02  0.1130189E+00
          2   -1    0    0  502    0  0.00000000000E+00  0.00000000000E+00  0.25423205657E+03  0.25423205657E+03  0.00000000000E+00 0. -1.
         -2   -1    0    0    0  501 -0.00000000000E+00 -0.00000000000E+00 -0.27612799241E+03  0.27612799241E+03  0.00000000000E+00 0.  1.
         23    2    1    2    0    0 -0.18992755620E+03  0.19987126813E+02 -0.12031956929E+03  0.23850191566E+03  0.77035077601E+02 0.  0.
         23    2    1    2    0    0  0.21150561207E+03 -0.14140231493E+02  0.11949596938E+03  0.26113612131E+03  0.94753454135E+02 0.  0.
        -13    1    3    3    0    0 -0.60650723757E+02 -0.75931675341E+01 -0.20954213596E+01  0.61160095455E+02  0.00000000000E+00 0.  1.
         13    1    3    3    0    0 -0.12927683244E+03  0.27580294347E+02 -0.11822414793E+03  0.17734182021E+03  0.00000000000E+00 0. -1.
        -13    1    4    4    0    0  0.17695495492E+03 -0.13185397238E+02  0.51350446870E+02  0.18472622760E+03  0.00000000000E+00 0.  1.
         13    1    4    4    0    0  0.34550657149E+02 -0.95483425528E+00  0.68145522509E+02  0.76409893704E+02  0.00000000000E+00 0. -1.
         21    1    1    2  502  501 -0.21578055871E+02 -0.58468953193E+01 -0.21072335940E+02  0.30722012011E+02  0.00000000000E+00 0. -1.
<scales pt_clust_5="13000.00000" pt_clust_6="13000.00000" pt_clust_7="13000.00000" pt_clust_8="13000.00000" pt_clust_9="22.35618"></scales>
<clustering>
<clus scale="   22.356">  2  9  1 -1</clus>
<clus scale="   77.035">  5  6 -1 -1</clus>
<clus scale="   94.753">  7  8 -1 -1</clus>
<clus scale="  219.937">  2  5  1 -1</clus>
<clus scale="  226.752">  1  5  2 -1</clus>
</clustering>
</event>
<event>
 9    1  0.1266593E-005  0.1201278E+03  0.7546771E-02  0.1243555E+00
          1   -1    0    0  502    0  0.00000000000E+00  0.00000000000E+00  0.14432287393E+03  0.14432287393E+03  0.00000000000E+00 0. -1.
         -1   -1    0    0    0  501 -0.00000000000E+00 -0.00000000000E+00 -0.36236695686E+03  0.36236695686E+03  0.00000000000E+00 0.  1.
         23    2    1    2    0    0 -0.34468470728E+02 -0.86830404501E+02 -0.72984912471E+02  0.15065228358E+03  0.92960843794E+02 0.  0.
         23    2    1    2    0    0  0.41202412921E+02  0.58624703581E+02  0.72498839353E+02  0.13655544048E+03  0.90867001250E+02 0.  0.
        -11    1    4    4    0    0  0.70474561321E+02  0.40364796746E+02  0.50319651874E+02  0.95540818368E+02  0.00000000000E+00 0. -1.
         11    1    4    4    0    0 -0.29272148400E+02  0.18259906836E+02  0.22179187479E+02  0.41014622110E+02  0.00000000000E+00 0.  1.
        -11    1    3    3    0    0 -0.65889504637E+02 -0.69713066637E+02 -0.55583555658E+02  0.11086419684E+03  0.00000000000E+00 0.  1.
         11    1    3    3    0    0  0.31421033909E+02 -0.17117337863E+02 -0.17401356812E+02  0.39788086739E+02  0.00000000000E+00 0. -1.
         21    1    1    2  502  501 -0.67339421926E+01  0.28205700919E+02 -0.21755800981E+03  0.21948210673E+03  0.00000000000E+00 0.  1.
<scales pt_clust_5="13000.00000" pt_clust_6="13000.00000" pt_clust_7="13000.00000" pt_clust_8="13000.00000" pt_clust_9="28.99841"></scales>
<clustering>
<clus scale="   28.998">  2  9  1 -1</clus>
<clus scale="   90.867">  5  6 -1 -1</clus>
<clus scale="   92.961">  7  8 -1 -1</clus>
<clus scale="  118.515">  1  5  2 -1</clus>
<clus scale="  118.515">  1  5  2 -1</clus>
</clustering>
</event>
<event>
 9    1  0.1266593E-005  0.9798691E+02  0.7546771E-02  0.1285351E+00
         -2   -1    0    0    0  501 -0.00000000000E+00  0.00000000000E+00  0.18823678237E+03  0.18823678237E+03  0.00000000000E+00 0.  1.
          2   -1    0    0  502    0  0.00000000000E+00 -0.00000000000E+00 -0.10595642138E+03  0.10595642138E+03  0.00000000000E+00 0. -1.
         23    2    1    2    0    0  0.31214198266E+02  0.62799938195E+01  0.20883175928E+02  0.10060638054E+03  0.93122351087E+02 0.  0.
         23    2    1    2    0    0 -0.27968331264E+02  0.17944384478E+02 -0.27582895757E+02  0.10131109000E+03  0.91645470869E+02 0.  0.
        -13    1    3    3    0    0  0.10927005162E+02 -0.38384091765E+02  0.30980281044E+02  0.50522428247E+02  0.00000000000E+00 0.  1.
         13    1    3    3    0    0  0.20287193104E+02  0.44664085585E+02 -0.10097105116E+02  0.50083952289E+02  0.00000000000E+00 0. -1.
        -13    1    4    4    0    0 -0.61425463018E+02  0.79200564779E+01 -0.23083564770E+02  0.66095883110E+02  0.00000000000E+00 0. -1.
         13    1    4    4    0    0  0.33457131754E+02  0.10024328000E+02 -0.44993309873E+01  0.35215206891E+02  0.00000000000E+00 0.  1.
         21    1    1    2  502  501 -0.32458670021E+01 -0.24224378298E+02  0.88980080817E+02  0.92275733206E+02  0.00000000000E+00 0.  1.
<scales pt_clust_5="13000.00000" pt_clust_6="13000.00000" pt_clust_7="13000.00000" pt_clust_8="13000.00000" pt_clust_9="24.44087"></scales>
<clustering>
<clus scale="   24.441">  1  9  2 -1</clus>
<clus scale="   91.645">  7  8 -1 -1</clus>
<clus scale="   93.122">  5  6 -1 -1</clus>
<clus scale="   96.584">  2  7  1 -1</clus>
<clus scale="   96.584">  2  5  1 -1</clus>
</clustering>
</event>
<event>
 9    1  0.1266593E-005  0.1078164E+03  0.7546771E-02  0.1267937E+00
         -1   -1    0    0    0  501 -0.00000000000E+00  0.00000000000E+00  0.79424025442E+02  0.79424025442E+02  0.00000000000E+00 0.  1.
          1   -1    0    0  502    0  0.00000000000E+00 -0.00000000000E+00 -0.18287061929E+03  0.18287061929E+03  0.00000000000E+00 0. -1.
         23    2    1    2    0    0 -0.26127446080E+02 -0.17878254444E+02 -0.43123867370E+02  0.11175788634E+03  0.98121770277E+02 0.  0.
         23    2    1    2    0    0  0.40008908073E+02  0.40016398313E+02 -0.63212153806E+02  0.12424719408E+03  0.90772044094E+02 0.  0.
        -11    1    3    3    0    0  0.23551429618E+02 -0.34142409572E+02 -0.42635109165E+02  0.59482152802E+02  0.00000000000E+00 0.  1.
         11    1    3    3    0    0 -0.49678875699E+02  0.16264155129E+02 -0.48875820552E+00  0.52275733542E+02  0.00000000000E+00 0. -1.
        -13    1    4    4    0    0  0.12016761237E+02  0.44665052332E+02 -0.79170861723E+02  0.91691846946E+02  0.00000000000E+00 0. -1.
         13    1    4    4    0    0  0.27992146836E+02 -0.46486540190E+01  0.15958707917E+02  0.32555347134E+02  0.00000000000E+00 0.  1.
         21    1    1    2  502  501 -0.13881461993E+02 -0.22138143869E+02  0.28894273316E+01  0.26289564305E+02  0.00000000000E+00 0.  1.
<scales pt_clust_5="13000.00000" pt_clust_6="13000.00000" pt_clust_7="13000.00000" pt_clust_8="13000.00000" pt_clust_9="26.13030"></scales>
<clustering>
<clus scale="   26.130">  1  9  2 -1</clus>
<clus scale="   90.772">  7  8 -1 -1</clus>
<clus scale="   98.122">  5  6 -1 -1</clus>
<clus scale="  101.173">  2  7  1 -1</clus>
<clus scale="  101.173">  2  5  1 -1</clus>
</clustering>
</event>
<event>
 9    1  0.1266593E-005  0.1667439E+03  0.7546771E-02  0.1181349E+00
          2   -1    0    0  502    0  0.00000000000E+00  0.00000000000E+00  0.42859155511E+03  0.42859155511E+03  0.00000000000E+00 0. -1.
         -2   -1    0    0    0  501 -0.00000000000E+00 -0.00000000000E+00 -0.13662320157E+03  0.13662320157E+03  0.00000000000E+00 0.  1.
         23    2    1    2    0    0 -0.48224650691E+02  0.59243816797E+02 -0.40601213276E+01  0.11940084175E+03  0.91676767298E+02 0.  0.
         23    2    1    2    0    0  0.37324649931E+02 -0.17620580583E+03  0.24569174965E+03  0.31801445170E+03  0.91253165114E+02 0.  0.
        -11    1    3    3    0    0 -0.55422949641E+02  0.23797036525E+02  0.32040262381E+02  0.68297735744E+02  0.00000000000E+00 0.  1.
         11    1    3    3    0    0  0.71982989505E+01  0.35446780272E+02 -0.36100383709E+02  0.51103106005E+02  0.00000000000E+00 0. -1.
        -13    1    4    4    0    0  0.67528068941E+02 -0.13003752811E+03  0.17179952131E+03  0.22579830454E+03  0.00000000000E+00 0. -1.
         13    1    4    4    0    0 -0.30203419010E+02 -0.46168277721E+02  0.73892228347E+02  0.92216147163E+02  0.00000000000E+00 0.  1.
         21    1    1    2  502  501  0.10900000760E+02  0.11696198903E+03  0.50336725219E+02  0.12779946323E+03  0.00000000000E+00 0.  1.
<scales pt_clust_5="13000.00000" pt_clust_6="13000.00000" pt_clust_7="13000.00000" pt_clust_8="13000.00000" pt_clust_9="117.46879"></scales>
<clustering>
<clus scale="   91.253">  7  8 -1 -1</clus>
<clus scale="   91.677">  5  6 -1 -1</clus>
<clus scale="  117.469">  2  9  1 -1</clus>
<clus scale="  166.511">  1  7  2 -1</clus>
<clus scale="  166.511">  1  5  2 -1</clus>
</clustering>
</event>
<event>
 9    1  0.1266593E-005  0.1043848E+03  0.7546771E-02  0.1271960E+00
         -2   -1    0    0    0  501 -0.00000000000E+00  0.00000000000E+00  0.14465451883E+03  0.14465451883E+03  0.00000000000E+00 0.  1.
          2   -1    0    0  502    0  0.00000000000E+00 -0.00000000000E+00 -0.29307898808E+03  0.29307898808E+03  0.00000000000E+00 0. -1.
         23    2    1    2    0    0  0.11243396492E+02  0.49527053524E+02  0.98573617859E+02  0.14509875247E+03  0.93581765509E+02 0.  0.
         23    2    1    2    0    0 -0.56874192766E+00  0.10823525544E+02 -0.15476887597E+03  0.18189917736E+03  0.94954902889E+02 0.  0.
        -11    1    4    4    0    0 -0.23234861712E+00 -0.41850462785E+02 -0.82044508127E+02  0.92102207004E+02  0.00000000000E+00 0. -1.
         11    1    4    4    0    0 -0.33639331053E+00  0.52673988329E+02 -0.72724367844E+02  0.89796970357E+02  0.00000000000E+00 0.  1.
        -13    1    3    3    0    0 -0.31977376583E+02  0.47103404798E+02  0.30935557010E+02  0.64794228479E+02  0.00000000000E+00 0. -1.
         13    1    3    3    0    0  0.43220773075E+02  0.24236487254E+01  0.67638060848E+02  0.80304523992E+02  0.00000000000E+00 0.  1.
         21    1    1    2  502  501 -0.10674654564E+02 -0.60350579068E+02 -0.92229211135E+02  0.11073557708E+03  0.00000000000E+00 0. -1.
<scales pt_clust_5="13000.00000" pt_clust_6="13000.00000" pt_clust_7="13000.00000" pt_clust_8="13000.00000" pt_clust_9="61.28736"></scales>
<clustering>
<clus scale="   61.287">  2  9  1 -1</clus>
<clus scale="   93.582">  7  8 -1 -1</clus>
<clus scale="   94.955">  5  6 -1 -1</clus>
<clus scale="  103.137">  1  7  2 -1</clus>
<clus scale="   61.287">  2  5  1 -1</clus>
</clustering>
</event>
<event>
 9    1  0.1266593E-005  0.1438842E+03  0.7546771E-02  0.1208985E+00
          1   -1    0    0  502    0  0.00000000000E+00  0.00000000000E+00  0.79496055514E+02  0.79496055514E+02  0.00000000000E+00 0. -1.
         -1   -1    0    0    0  501 -0.00000000000E+00 -0.00000000000E+00 -0.37495594156E+03  0.37495594156E+03  0.00000000000E+00 0.  1.
         23    2    1    2    0    0 -0.88991804061E+02  0.25056460649E+02 -0.13180954590E+03  0.18695979212E+03  0.95041254568E+02 0.  0.
         23    2    1    2    0    0  0.10673005696E+03 -0.55737729957E+02 -0.68468220805E+02  0.16592635565E+03  0.91354576458E+02 0.  0.
        -11    1    4    4    0    0  0.60188433881E+02  0.12033517471E+02 -0.41077203291E+01  0.61516879652E+02  0.00000000000E+00 0. -1.
         11    1    4    4    0    0  0.46541623077E+02 -0.67771247428E+02 -0.64360500476E+02  0.10440947600E+03  0.00000000000E+00 0.  1.
        -11    1    3    3    0    0 -0.24908139299E+02 -0.33399773057E+02 -0.22293064864E+02  0.47254004959E+02  0.00000000000E+00 0. -1.
         11    1    3    3    0    0 -0.64083664762E+02  0.58456233706E+02 -0.10951648104E+03  0.13970578716E+03  0.00000000000E+00 0.  1.
         21    1    1    2  502  501 -0.17738252898E+02  0.30681269308E+02 -0.95182119343E+02  0.10156584930E+03  0.00000000000E+00 0.  1.
<scales pt_clust_5="13000.00000" pt_clust_6="13000.00000" pt_clust_7="13000.00000" pt_clust_8="13000.00000" pt_clust_9="35.43989"></scales>
<clustering>
<clus scale="   35.440">  2  9  1 -1</clus>
<clus scale="   91.355">  5  6 -1 -1</clus>
<clus scale="   95.041">  7  8 -1 -1</clus>
<clus scale="  141.476">  1  5  2 -1</clus>
<clus scale="  141.476">  1  5  2 -1</clus>
</clustering>
</event>
<event>
 9    1  0.1266593E-005  0.1019586E+03  0.7546771E-02  0.1277372E+00
         -1   -1    0    0    0  501 -0.00000000000E+00  0.00000000000E+00  0.11341244020E+03  0.11341244020E+03  0.00000000000E+00 0.  1.
          1   -1    0    0  502    0  0.00000000000E+00 -0.00000000000E+00 -0.46564066058E+03  0.46564066058E+03  0.00000000000E+00 0. -1.
         23    2    1    2    0    0 -0.38709997729E+01 -0.15469786590E+02  0.51352608376E+02  0.10752519652E+03  0.93114330605E+02 0.  0.
         23    2    1    2    0    0 -0.33874027230E+02  0.28299211815E+02 -0.41733833391E+03  0.42935504376E+03  0.90698255434E+02 0.  0.
        -11    1    3    3    0    0 -0.34150712408E+02 -0.41796303571E+02  0.34139181359E+02  0.63864589986E+02  0.00000000000E+00 0. -1.
         11    1    3    3    0    0  0.30279712635E+02  0.26326516980E+02  0.17213427017E+02  0.43660606538E+02  0.00000000000E+00 0.  1.
        -13    1    4    4    0    0  0.24637872784E+02 -0.14231619811E+02 -0.11027986024E+03  0.11389122597E+03  0.00000000000E+00 0.  1.
         13    1    4    4    0    0 -0.58511900014E+02  0.42530831626E+02 -0.30705847367E+03  0.31546381779E+03  0.00000000000E+00 0. -1.
         21    1    1    2  502  501  0.37745027003E+02 -0.12829425224E+02  0.13757505158E+02  0.42172860505E+02  0.00000000000E+00 0.  1.
<scales pt_clust_5="13000.00000" pt_clust_6="13000.00000" pt_clust_7="13000.00000" pt_clust_8="13000.00000" pt_clust_9="39.86579"></scales>
<clustering>
<clus scale="   39.866">  1  9  2 -1</clus>
<clus scale="   90.698">  7  8 -1 -1</clus>
<clus scale="   93.114">  5  6 -1 -1</clus>
<clus scale="   99.757">  2  7  1 -1</clus>
<clus scale="   99.757">  2  5  1 -1</clus>
</clustering>
</event>
<event>
 9    1  0.1266593E-005  0.1172451E+03  0.7546771E-02  0.1250034E+00
          2   -1    0    0  502    0  0.00000000000E+00  0.00000000000E+00  0.44491290578E+03  0.44491290578E+03  0.00000000000E+00 0. -1.
         -2   -1    0    0    0  501 -0.00000000000E+00 -0.00000000000E+00 -0.37913874539E+02  0.37913874539E+02  0.00000000000E+00 0.  1.
         23    2    1    2    0    0  0.10569123677E+02 -0.75486129357E+02  0.19861391166E+03  0.23329907095E+03  0.95765904676E+02 0.  0.
         23    2    1    2    0    0  0.44277757233E+01  0.61357582906E+02  0.19965365365E+03  0.22715001258E+03  0.89169437716E+02 0.  0.
        -11    1    4    4    0    0  0.30722317561E+02 -0.99084513304E+01  0.55419835094E+02  0.64135764796E+02  0.00000000000E+00 0.  1.
         11    1    4    4    0    0 -0.26294541838E+02  0.71266034237E+02  0.14423381855E+03  0.16301424779E+03  0.00000000000E+00 0. -1.
        -11    1    3    3    0    0  0.24864105882E+02 -0.19238190450E+02  0.58361791056E+01  0.31974876382E+02  0.00000000000E+00 0.  1.
         11    1    3    3    0    0 -0.14294982205E+02 -0.56247938907E+02  0.19277773256E+03  0.20132419456E+03  0.00000000000E+00 0. -1.
         21    1    1    2  502  501 -0.14996899401E+02  0.14128546451E+02  0.87314659328E+01  0.22377696793E+02  0.00000000000E+00 0.  1.
<scales pt_clust_5="13000.00000" pt_clust_6="13000.00000" pt_clust_7="13000.00000" pt_clust_8="13000.00000" pt_clust_9="20.60395"></scales>
<clustering>
<clus scale="   20.604">  2  9  1 -1</clus>
<clus scale="   89.169">  5  6 -1 -1</clus>
<clus scale="   95.766">  7  8 -1 -1</clus>
<clus scale="  111.922">  1  5  2 -1</clus>
<clus scale="  111.922">  1  5  2 -1</clus>
</clustering>
</event>
<event>
 9    1  0.1266593E-005  0.1497131E+03  0.7546771E-02  0.1201534E+00
          4   -1    0    0  502    0  0.00000000000E+00  0.00000000000E+00  0.31746003192E+03  0.31746003192E+03  0.00000000000E+00 0. -1.
         -4   -1    0    0    0  501 -0.00000000000E+00 -0.00000000000E+00 -0.23499482747E+03  0.23499482747E+03  0.00000000000E+00 0.  1.
         23    2    1    2    0    0 -0.67166360084E+02  0.78292857031E+02  0.36687353280E+02  0.14310637959E+03  0.92154124163E+02 0.  0.
         23    2    1    2    0    0  0.39791510715E+02 -0.11736537642E+03  0.19648830970E+03  0.25126721444E+03  0.95757826286E+02 0.  0.
        -11    1    4    4    0    0 -0.36188233752E+01 -0.95861383504E+02  0.79308537942E+02  0.12446824864E+03  0.00000000000E+00 0.  1.
         11    1    4    4    0    0  0.43410334090E+02 -0.21503992918E+02  0.11717977176E+03  0.12679896579E+03  0.00000000000E+00 0. -1.
        -11    1    3    3    0    0 -0.47327815916E+02 -0.83342118785E+01  0.32900187482E+01  0.48168511192E+02  0.00000000000E+00 0.  1.
         11    1    3    3    0    0 -0.19838544168E+02  0.86627068910E+02  0.33397334532E+02  0.94937868400E+02  0.00000000000E+00 0. -1.
         21    1    1    2  502  501  0.27374849369E+02  0.39072519391E+02 -0.15071045853E+03  0.15808126537E+03  0.00000000000E+00 0.  1.
<scales pt_clust_5="13000.00000" pt_clust_6="13000.00000" pt_clust_7="13000.00000" pt_clust_8="13000.00000" pt_clust_9="47.70790"></scales>
<clustering>
<clus scale="   47.708">  2  9  1 -1</clus>
<clus scale="   92.154">  7  8 -1 -1</clus>
<clus scale="   95.758">  5  6 -1 -1</clus>
<clus scale="  147.434">  2  7  1 -1</clus>
<clus scale="  149.713">  1  5  2 -1</clus>
</clustering>
</event>
<event>
 9    1  0.1266593E-005  0.1162142E+03  0.7546771E-02  0.1250515E+00
         -1   -1    0    0    0  501 -0.00000000000E+00  0.00000000000E+00  0.39016306873E+03  0.39016306873E+03  0.00000000000E+00 0.  1.
          1   -1    0    0  502    0  0.00000000000E+00 -0.00000000000E+00 -0.62791500373E+02  0.62791500373E+02  0.00000000000E+00 0. -1.
         23    2    1    2    0    0 -0.17251351376E+02  0.46315525542E+02  0.27375121365E+03  0.29345279209E+03  0.93445584064E+02 0.  0.
         23    2    1    2    0    0  0.17636555732E+02 -0.71931005010E+02  0.22265261893E+02  0.11901174100E+03  0.90459576768E+02 0.  0.
        -11    1    4    4    0    0 -0.30684383093E+02 -0.23376066382E+02  0.31615239263E+02  0.49874795227E+02  0.00000000000E+00 0.  1.
         11    1    4    4    0    0  0.48320938825E+02 -0.48554938628E+02 -0.93499773700E+01  0.69136945773E+02  0.00000000000E+00 0. -1.
        -13    1    3    3    0    0 -0.30704809902E+01  0.72305723649E+02  0.22563484275E+03  0.23695701675E+03  0.00000000000E+00 0.  1.
         13    1    3    3    0    0 -0.14180870385E+02 -0.25990198106E+02  0.48116370899E+02  0.56495775338E+02  0.00000000000E+00 0. -1.
         21    1    1    2  502  501 -0.38520435598E+00  0.25615479468E+02  0.31355092814E+02  0.40490036011E+02  0.00000000000E+00 0.  1.
<scales pt_clust_5="13000.00000" pt_clust_6="13000.00000" pt_clust_7="13000.00000" pt_clust_8="13000.00000" pt_clust_9="25.61838"></scales>
<clustering>
<clus scale="   25.618">  1  9  2 -1</clus>
<clus scale="   90.460">  5  6 -1 -1</clus>
<clus scale="   93.446">  7  8 -1 -1</clus>
<clus scale="  113.827">  2  5  1 -1</clus>
<clus scale="  113.827">  2  5  1 -1</clus>
</clustering>
</event>
<event>
 9    1  0.1266593E-005  0.1353364E+03  0.7546771E-02  0.1220704E+00
          1   -1    0    0  502    0  0.00000000000E+00  0.00000000000E+00  0.37577104429E+03  0.37577104429E+03  0.00000000000E+00 0. -1.
         -1   -1    0    0    0  501 -0.00000000000E+00 -0.00000000000E+00 -0.60726626733E+02  0.60726626733E+02  0.00000000000E+00 0.  1.
         23    2    1    2    0    0  0.98937416726E+02  0.83006369085E+01  0.13473037319E+03  0.19028669988E+03  0.90549664220E+02 0.  0.
         23    2    1    2    0    0 -0.94483263039E+02  0.22596836453E+02  0.15610599932E+03  0.20670751825E+03  0.94452162849E+02 0.  0.
        -11    1    3    3    0    0  0.10229953760E+03  0.33580006753E+02  0.98135486240E+02  0.14568248318E+03  0.00000000000E+00 0. -1.
         11    1    3    3    0    0 -0.33621208721E+01 -0.25279369845E+02  0.36594886950E+02  0.44604216700E+02  0.00000000000E+00 0.  1.
        -11    1    4    4    0    0 -0.66393177120E+02  0.47350432969E+02  0.53621426791E+02  0.97598027037E+02  0.00000000000E+00 0.  1.
         11    1    4    4    0    0 -0.28090085920E+02 -0.24753596516E+02  0.10248457252E+03  0.10910949121E+03  0.00000000000E+00 0. -1.
         21    1    1    2  502  501 -0.44541536868E+01 -0.30897473361E+02  0.24208045054E+02  0.39503452894E+02  0.00000000000E+00 0.  1.
<scales pt_clust_5="13000.00000" pt_clust_6="13000.00000" pt_clust_7="13000.00000" pt_clust_8="13000.00000" pt_clust_9="31.21688"></scales>
<clustering>
<clus scale="   31.217">  2  9  1 -1</clus>
<clus scale="   90.550">  5  6 -1 -1</clus>
<clus scale="   94.452">  7  8 -1 -1</clus>
<clus scale="  132.642">  2  5  1 -1</clus>
<clus scale="  135.336">  1  5  2 -1</clus>
</clustering>
</event>
<event>
 9    1  0.1266593E-005  0.1003900E+03  0.7546771E-02  0.1283964E+00
         -2   -1    0    0    0  501 -0.00000000000E+00  0.00000000000E+00  0.31572087628E+03  0.31572087628E+03  0.00000000000E+00 0.  1.
          2   -1    0    0  502    0  0.00000000000E+00 -0.00000000000E+00 -0.15605334106E+03  0.15605334106E+03  0.00000000000E+00 0. -1.
         23    2    1    2    0    0 -0.24276094018E+02 -0.22563186736E+02  0.11706020729E+03  0.15095037150E+03  0.89356009238E+02 0.  0.
         23    2    1    2    0    0  0.22033920144E+02 -0.79674740574E+01 -0.11931315487E+03  0.15603491617E+03  0.97786971819E+02 0.  0.
        -11    1    3    3    0    0 -0.10092379861E+02  0.33052737245E+02  0.25743298237E+02  0.43093583916E+02  0.00000000000E+00 0. -1.
         11    1    3    3    0    0 -0.14183714157E+02 -0.55615923980E+02  0.91316909058E+02  0.10785678758E+03  0.00000000000E+00 0.  1.
        -13    1    4    4    0    0 -0.22751822072E+02  0.29636923609E+02 -0.24638787412E+02  0.44755586173E+02  0.00000000000E+00 0.  1.
         13    1    4    4    0    0  0.44785742216E+02 -0.37604397666E+02 -0.94674367460E+02  0.11127932999E+03  0.00000000000E+00 0. -1.
         21    1    1    2  502  501  0.22421738734E+01  0.30530660793E+02  0.16192048280E+03  0.16478892968E+03  0.00000000000E+00 0. -1.
<scales pt_clust_5="13000.00000" pt_clust_6="13000.00000" pt_clust_7="13000.00000" pt_clust_8="13000.00000" pt_clust_9="30.61288"></scales>
<clustering>
<clus scale="   30.613">  1  9  2 -1</clus>
<clus scale="   89.356">  5  6 -1 -1</clus>
<clus scale="   92.197">  1  5  2 -1</clus>
<clus scale="   97.787">  7  8 -1 -1</clus>
<clus scale="  100.390">  2  5  1 -1</clus>
</clustering>
</event>
<event>
 9    1  0.1266593E-005  0.9496325E+02  0.7546771E-02  0.1293550E+00
         -1   -1    0    0    0  501 -0.00000000000E+00  0.00000000000E+00  0.29059305156E+03  0.29059305156E+03  0.00000000000E+00 0.  1.
          1   -1    0    0  502    0  0.00000000000E+00 -0.00000000000E+00 -0.38301117404E+02  0.38301117404E+02  0.00000000000E+00 0. -1.
         23    2    1    2    0    0 -0.38237910187E+02  0.55051100022E+01  0.13440434582E+03  0.16654573995E+03  0.90446179071E+02 0.  0.
         23    2    1    2    0    0  0.22329573487E+02  0.79507498545E+01  0.84920536532E+02  0.12334891817E+03  0.86264904882E+02 0.  0.
        -13    1    4    4    0    0 -0.28026010218E+02 -0.17160440485E+02  0.36501002953E+02  0.49114775607E+02  0.00000000000E+00 0. -1.
         13    1    4    4    0    0  0.50355583705E+02  0.25111190340E+02  0.48419533579E+02  0.74234142566E+02  0.00000000000E+00 0.  1.
        -13    1    3    3    0    0 -0.76291956009E+01  0.20041039639E+02 -0.58730771689E+01  0.22233779048E+02  0.00000000000E+00 0. -1.
         13    1    3    3    0    0 -0.30608714586E+02 -0.14535929637E+02  0.14027742298E+03  0.14431196090E+03  0.00000000000E+00 0.  1.
         21    1    1    2  502  501  0.15908336700E+02 -0.13455859857E+02  0.32967051803E+02  0.38999510839E+02  0.00000000000E+00 0. -1.
<scales pt_clust_5="13000.00000" pt_clust_6="13000.00000" pt_clust_7="13000.00000" pt_clust_8="13000.00000" pt_clust_9="20.83591"></scales>
<clustering>
<clus scale="   20.836">  1  9  2 -1</clus>
<clus scale="   86.265">  5  6 -1 -1</clus>
<clus scale="   90.446">  7  8 -1 -1</clus>
<clus scale="   90.990">  2  5  1 -1</clus>
<clus scale="   90.990">  2  5  1 -1</clus>
</clustering>
</event>
<event>
 9    1  0.1266593E-005  0.1225527E+03  0.7546771E-02  0.1239428E+00
         -1   -1    0    0    0  501 -0.00000000000E+00  0.00000000000E+00  0.34293370136E+03  0.34293370136E+03  0.00000000000E+00 0.  1.
          1   -1    0    0  502    0  0.00000000000E+00 -0.00000000000E+00 -0.11483650069E+03  0.11483650069E+03  0.00000000000E+00 0. -1.
         23    2    1    2    0    0 -0.83415622603E+02 -0.21225727645E+02  0.49078794514E+02  0.13507511600E+03  0.91803383831E+02 0.  0.
         23    2    1    2    0    0  0.19774923319E+02  0.10317420500E+03  0.30927708787E+02  0.14187322289E+03  0.90197139828E+02 0.  0.
        -11    1    4    4    0    0 -0.96257207949E+00  0.11287370450E+03  0.14743506055E+02  0.11383659642E+03  0.00000000000E+00 0. -1.
         11    1    4    4    0    0  0.20737495398E+02 -0.96994995025E+01  0.16184202732E+02  0.28036626474E+02  0.00000000000E+00 0.  1.
        -11    1    3    3    0    0 -0.83528839777E+02  0.48832082017E+01  0.49709606992E+01  0.83818990969E+02  0.00000000000E+00 0. -1.
         11    1    3    3    0    0  0.11321717443E+00 -0.26108935846E+02  0.44107833815E+02  0.51256125029E+02  0.00000000000E+00 0.  1.
         21    1    1    2  502  501  0.63640699284E+02 -0.81948477355E+02  0.14809069737E+03  0.18082186315E+03  0.00000000000E+00 0.  1.
<scales pt_clust_5="13000.00000" pt_clust_6="13000.00000" pt_clust_7="13000.00000" pt_clust_8="13000.00000" pt_clust_9="103.75785"></scales>
<clustering>
<clus scale="   90.197">  5  6 -1 -1</clus>
<clus scale="   91.803">  7  8 -1 -1</clus>
<clus scale="  103.758">  1  9  2 -1</clus>
<clus scale="  121.354">  2  5  1 -1</clus>
<clus scale="  121.354">  2  5  1 -1</clus>
</clustering>
</event>
<event>
 9    1  0.1266593E-005  0.1349028E+03  0.7546771E-02  0.1220803E+00
         -4   -1    0    0    0  501 -0.00000000000E+00  0.00000000000E+00  0.90214360310E+03  0.90214360310E+03  0.00000000000E+00 0. -1.
          4   -1    0    0  502    0  0.00000000000E+00 -0.00000000000E+00 -0.28718972476E+02  0.28718972476E+02  0.00000000000E+00 0.  1.
         23    2    1    2    0    0  0.89912062288E+02 -0.38288792249E+02  0.36829068691E+03  0.39189174853E+03  0.91601866491E+02 0.  0.
         23    2    1    2    0    0 -0.65595028656E+02  0.78409982384E+02  0.33525618257E+03  0.36273382255E+03  0.93425290730E+02 0.  0.
        -11    1    4    4    0    0  0.19532334806E+02  0.71972774210E+01  0.10601152107E+03  0.10803589915E+03  0.00000000000E+00 0.  1.
         11    1    4    4    0    0 -0.85127363462E+02  0.71212704963E+02  0.22924466149E+03  0.25469792339E+03  0.00000000000E+00 0. -1.
        -11    1    3    3    0    0 -0.36555860302E+01  0.21698319115E+02  0.78229129740E+02  0.81264857728E+02  0.00000000000E+00 0. -1.
         11    1    3    3    0    0  0.93567648318E+02 -0.59987111364E+02  0.29006155717E+03  0.31062689080E+03  0.00000000000E+00 0.  1.
         21    1    1    2  502  501 -0.24317033632E+02 -0.40121190135E+02  0.16987776115E+03  0.17623700450E+03  0.00000000000E+00 0.  1.
<scales pt_clust_5="13000.00000" pt_clust_6="13000.00000" pt_clust_7="13000.00000" pt_clust_8="13000.00000" pt_clust_9="46.91512"></scales>
<clustering>
<clus scale="   46.915">  1  9  2 -1</clus>
<clus scale="   91.602">  7  8 -1 -1</clus>
<clus scale="   93.425">  5  6 -1 -1</clus>
<clus scale="  133.646">  1  7  2 -1</clus>
<clus scale="  134.903">  2  5  1 -1</clus>
</clustering>
</event>
<event>
 9    1  0.1266593E-005  0.9611209E+02  0.7546771E-02  0.1288767E+00
         -1   -1    0    0    0  501 -0.00000000000E+00  0.00000000000E+00  0.27888357560E+03  0.27888357560E+03  0.00000000000E+00 0.  1.
          1   -1    0    0  502    0  0.00000000000E+00 -0.00000000000E+00 -0.12796243563E+03  0.12796243563E+03  0.00000000000E+00 0. -1.
         23    2    1    2    0    0 -0.13844135673E+02  0.12665901090E+02  0.23032213086E+03  0.24821747060E+03  0.90617567860E+02 0.  0.
         23    2    1    2    0    0  0.33162479736E+02  0.22450888937E+01 -0.89955589246E+02  0.13204028032E+03  0.90762531391E+02 0.  0.
        -11    1    4    4    0    0  0.35327189482E+01  0.42746812200E+02 -0.59466629498E+02  0.73321552631E+02  0.00000000000E+00 0.  1.
         11    1    4    4    0    0  0.29629760788E+02 -0.40501723306E+02 -0.30488959749E+02  0.58718727691E+02  0.00000000000E+00 0. -1.
        -11    1    3    3    0    0 -0.23303063071E+02 -0.26987476515E+02  0.40028803805E+02  0.53606545973E+02  0.00000000000E+00 0. -1.
         11    1    3    3    0    0  0.94589273978E+01  0.39653377605E+02  0.19029332706E+03  0.19461092463E+03  0.00000000000E+00 0.  1.
         21    1    1    2  502  501 -0.19318344063E+02 -0.14910989984E+02  0.10554598357E+02  0.26588260306E+02  0.00000000000E+00 0. -1.
<scales pt_clust_5="13000.00000" pt_clust_6="13000.00000" pt_clust_7="13000.00000" pt_clust_8="13000.00000" pt_clust_9="24.40361"></scales>
<clustering>
<clus scale="   24.404">  1  9  2 -1</clus>
<clus scale="   90.618">  7  8 -1 -1</clus>
<clus scale="   90.763">  5  6 -1 -1</clus>
<clus scale="   95.975">  1  7  2 -1</clus>
<clus scale="   96.112">  2  5  1 -1</clus>
</clustering>
</event>
<event>
 9    1  0.1266593E-005  0.1377418E+03  0.7546771E-02  0.1216859E+00
         -1   -1    0    0    0  501 -0.00000000000E+00  0.00000000000E+00  0.68884197329E+02  0.68884197329E+02  0.00000000000E+00 0.  1.
          1   -1    0    0  502    0  0.00000000000E+00 -0.00000000000E+00 -0.32716628624E+03  0.32716628624E+03  0.00000000000E+00 0. -1.
         23    2    1    2    0    0 -0.92812735543E+02 -0.42077963508E+01 -0.10934666931E+03  0.17074573820E+03  0.92550005915E+02 0.  0.
         23    2    1    2    0    0  0.10564717690E+03  0.22251731494E+02 -0.14256149494E+03  0.20226275336E+03  0.94498550336E+02 0.  0.
        -11    1    3    3    0    0 -0.48701111612E+02  0.34189624338E+02 -0.92320325270E+02  0.10983519993E+03  0.00000000000E+00 0. -1.
         11    1    3    3    0    0 -0.44111623931E+02 -0.38397420689E+02 -0.17026344037E+02  0.60910538272E+02  0.00000000000E+00 0.  1.
        -11    1    4    4    0    0 -0.45495169134E-01  0.26664592520E+02 -0.67434712075E+02  0.72515122262E+02  0.00000000000E+00 0.  1.
         11    1    4    4    0    0  0.10569267207E+03 -0.44128610259E+01 -0.75126782862E+02  0.12974763110E+03  0.00000000000E+00 0. -1.
         21    1    1    2  502  501 -0.12834441358E+02 -0.18043935143E+02 -0.63739246698E+01  0.23041992017E+02  0.00000000000E+00 0. -1.
<scales pt_clust_5="13000.00000" pt_clust_6="13000.00000" pt_clust_7="13000.00000" pt_clust_8="13000.00000" pt_clust_9="22.14287"></scales>
<clustering>
<clus scale="   22.143">  1  9  2 -1</clus>
<clus scale="   92.550">  5  6 -1 -1</clus>
<clus scale="   94.499">  7  8 -1 -1</clus>
<clus scale="  136.412">  1  5  2 -1</clus>
<clus scale="  137.742">  2  5  1 -1</clus>
</clustering>
</event>
<event>
 9    1  0.1266593E-005  0.9859537E+02  0.7546771E-02  0.1285389E+00
         -3   -1    0    0    0  501 -0.00000000000E+00  0.00000000000E+00  0.14594493304E+03  0.14594493304E+03  0.00000000000E+00 0.  1.
          3   -1    0    0  502    0  0.00000000000E+00 -0.00000000000E+00 -0.29749317746E+03  0.29749317746E+03  0.00000000000E+00 0. -1.
         23    2    1    2    0    0  0.15280592842E+02  0.40879500451E+01  0.78128763430E+01  0.88816758338E+02  0.87046927986E+02 0.  0.
         23    2    1    2    0    0  0.47920094165E+02 -0.10271098285E+02 -0.23443655530E+03  0.25629089385E+03  0.91228794368E+02 0.  0.
        -11    1    4    4    0    0  0.21625288683E+02  0.29962601889E+02 -0.17964305425E+03  0.18340402821E+03  0.00000000000E+00 0.  1.
         11    1    4    4    0    0  0.26294805482E+02 -0.40233700174E+02 -0.54793501052E+02  0.72886865638E+02  0.00000000000E+00 0. -1.
        -13    1    3    3    0    0 -0.45747157482E+00 -0.29203530498E+02 -0.25791144307E+02  0.38964581333E+02  0.00000000000E+00 0. -1.
         13    1    3    3    0    0  0.15738064417E+02  0.33291480543E+02  0.33604020650E+02  0.49852177005E+02  0.00000000000E+00 0.  1.
         21    1    1    2  502  501 -0.63200687007E+02  0.61831482403E+01  0.75075434543E+02  0.98330458314E+02  0.00000000000E+00 0.  1.
<scales pt_clust_5="13000.00000" pt_clust_6="13000.00000" pt_clust_7="13000.00000" pt_clust_8="13000.00000" pt_clust_9="63.50243"></scales>
<clustering>
<clus scale="   63.502">  1  9  2 -1</clus>
<clus scale="   87.047">  7  8 -1 -1</clus>
<clus scale="   91.229">  5  6 -1 -1</clus>
<clus scale="   94.739">  1  7  2 -1</clus>
<clus scale="   98.595">  2  5  1 -1</clus>
</clustering>
</event>
<event>
 9    1  0.1266593E-005  0.1175729E+03  0.7546771E-02  0.1248188E+00
         -2   -1    0    0    0  501 -0.00000000000E+00  0.00000000000E+00  0.13463433976E+03  0.13463433976E+03  0.00000000000E+00 0.  1.
          2   -1    0    0  502    0  0.00000000000E+00 -0.00000000000E+00 -0.33950825010E+03  0.33950825010E+03  0.00000000000E+00 0. -1.
         23    2    1    2    0    0  0.66868840902E+02 -0.47029835941E+01  0.25695990567E+02  0.11411977504E+03  0.88710085029E+02 0.  0.
         23    2    1    2    0    0 -0.69975868502E+02  0.26920230512E+02 -0.28091755496E+03  0.30490343574E+03  0.91815638402E+02 0.  0.
        -13    1    3    3    0    0  0.28612442627E+02 -0.34557440476E+02  0.43441319182E+02  0.62450274440E+02  0.00000000000E+00 0.  1.
         13    1    3    3    0    0  0.38256398275E+02  0.29854456882E+02 -0.17745328615E+02  0.51669500601E+02  0.00000000000E+00 0. -1.
        -13    1    4    4    0    0 -0.75432434216E+02  0.52104005268E+02 -0.20067337026E+03  0.22062339184E+03  0.00000000000E+00 0. -1.
         13    1    4    4    0    0  0.54565657139E+01 -0.25183774756E+02 -0.80244184700E+02  0.84280043893E+02  0.00000000000E+00 0.  1.
         21    1    1    2  502  501  0.31070275998E+01 -0.22217246918E+02  0.50347654058E+02  0.55119379081E+02  0.00000000000E+00 0.  1.
<scales pt_clust_5="13000.00000" pt_clust_6="13000.00000" pt_clust_7="13000.00000" pt_clust_8="13000.00000" pt_clust_9="22.43345"></scales>
<clustering>
<clus scale="   22.433">  1  9  2 -1</clus>
<clus scale="   88.710">  5  6 -1 -1</clus>
<clus scale="   91.816">  7  8 -1 -1</clus>
<clus scale="  115.164">  1  5  2 -1</clus>
<clus scale="  117.573">  2  5  1 -1</clus>
</clustering>
</event>
<event>
 9    1  0.1266593E-005  0.1105287E+03  0.7546771E-02  0.1261178E+00
          1   -1    0    0  502    0  0.00000000000E+00  0.00000000000E+00  0.46924400155E+02  0.46924400155E+02  0.00000000000E+00 0. -1.
         -1   -1    0    0    0  501 -0.00000000000E+00 -0.00000000000E+00 -0.37761959718E+03  0.37761959718E+03  0.00000000000E+00 0.  1.
         23    2    1    2    0    0  0.82850288902E+01  0.51214036686E+02 -0.16177841054E+03  0.19031618332E+03  0.85769902982E+02 0.  0.
         23    2    1    2    0    0 -0.18393349830E+02 -0.69258593967E+02 -0.73271925921E+02  0.13637218796E+03  0.89964050397E+02 0.  0.
        -11    1    3    3    0    0 -0.34984434036E+02  0.29246445380E+02 -0.11138241661E+03  0.12035492480E+03  0.00000000000E+00 0.  1.
         11    1    3    3    0    0  0.43269462926E+02  0.21967591306E+02 -0.50395993926E+02  0.69961258519E+02  0.00000000000E+00 0. -1.
        -13    1    4    4    0    0 -0.50713651354E+02 -0.22978124207E+02 -0.51585580552E+02  0.75900861304E+02  0.00000000000E+00 0.  1.
         13    1    4    4    0    0  0.32320301524E+02 -0.46280469760E+02 -0.21686345369E+02  0.60471326654E+02  0.00000000000E+00 0. -1.
         21    1    1    2  502  501  0.10108320940E+02  0.18044557282E+02 -0.95644860566E+02  0.97855626064E+02  0.00000000000E+00 0.  1.
<scales pt_clust_5="13000.00000" pt_clust_6="13000.00000" pt_clust_7="13000.00000" pt_clust_8="13000.00000" pt_clust_9="20.68294"></scales>
<clustering>
<clus scale="   20.683">  2  9  1 -1</clus>
<clus scale="   85.770">  5  6 -1 -1</clus>
<clus scale="   89.964">  7  8 -1 -1</clus>
<clus scale="  107.143">  2  5  1 -1</clus>
<clus scale="  110.529">  1  5  2 -1</clus>
</clustering>
</event>
<event>
 9    1  0.1266593E-005  0.9714948E+02  0.7546771E-02  0.1287178E+00
          3   -1    0    0  502    0  0.00000000000E+00  0.00000000000E+00  0.10891561178E+03  0.10891561178E+03  0.00000000000E+00 0. -1.
         -3   -1    0    0    0  501 -0.00000000000E+00 -0.00000000000E+00 -0.16459836324E+03  0.16459836324E+03  0.00000000000E+00 0.  1.
         23    2    1    2    0    0  0.11904917985E+02  0.22707454188E+02 -0.10219762858E+03  0.13969284962E+03  0.91719035095E+02 0.  0.
         23    2    1    2    0    0 -0.35286411256E+02 -0.18877013795E+02  0.41671098337E+02  0.10963789373E+03  0.93180013068E+02 0.  0.
        -13    1    4    4    0    0 -0.12409331696E+02 -0.26046965013E+02 -0.25382071901E+02  0.38427665470E+02  0.00000000000E+00 0.  1.
         13    1    4    4    0    0 -0.22877079560E+02  0.71699512177E+01  0.67053170237E+02  0.71210228258E+02  0.00000000000E+00 0. -1.
        -13    1    3    3    0    0 -0.38817124947E+02 -0.15474878533E+01 -0.45823054214E+02  0.60074255761E+02  0.00000000000E+00 0. -1.
         13    1    3    3    0    0  0.50722042932E+02  0.24254942042E+02 -0.56374574366E+02  0.79618593855E+02  0.00000000000E+00 0.  1.
         21    1    1    2  502  501  0.23381493271E+02 -0.38304403932E+01  0.48437787880E+01  0.24183231672E+02  0.00000000000E+00 0.  1.
<scales pt_clust_5="13000.00000" pt_clust_6="13000.00000" pt_clust_7="13000.00000" pt_clust_8="13000.00000" pt_clust_9="23.69317"></scales>
<clustering>
<clus scale="   23.693">  1  9  2 -1</clus>
<clus scale="   91.719">  7  8 -1 -1</clus>
<clus scale="   93.180">  5  6 -1 -1</clus>
<clus scale="   95.749">  2  7  1 -1</clus>
<clus scale="   23.693">  1  5  2 -1</clus>
</clustering>
</event>
<event>
 9    1  0.1266593E-005  0.1066066E+03  0.7546771E-02  0.1268370E+00
          1   -1    0    0  502    0  0.00000000000E+00  0.00000000000E+00  0.34762720800E+03  0.34762720800E+03  0.00000000000E+00 0. -1.
         -1   -1    0    0    0  501 -0.00000000000E+00 -0.00000000000E+00 -0.90139822708E+02  0.90139822708E+02  0.00000000000E+00 0.  1.
         23    2    1    2    0    0 -0.22563045393E+02 -0.55980429943E+01  0.35242892410E+02  0.99058947012E+02  0.89611296246E+02 0.  0.
         23    2    1    2    0    0  0.29682254781E+02  0.59412611126E+02  0.25210507474E+03  0.27675370344E+03  0.92869527019E+02 0.  0.
        -13    1    4    4    0    0  0.11642922720E+02 -0.25105315498E+02  0.65633373187E+02  0.71229026328E+02  0.00000000000E+00 0.  1.
         13    1    4    4    0    0  0.18039332060E+02  0.84517926624E+02  0.18647170155E+03  0.20552467711E+03  0.00000000000E+00 0. -1.
        -13    1    3    3    0    0  0.25180085074E+02  0.15185506722E+02 -0.89778225869E+01  0.30744716573E+02  0.00000000000E+00 0. -1.
         13    1    3    3    0    0 -0.47743130467E+02 -0.20783549716E+02  0.44220714997E+02  0.68314230439E+02  0.00000000000E+00 0.  1.
         21    1    1    2  502  501 -0.71192093876E+01 -0.53814568131E+02 -0.29860581849E+02  0.61954380264E+02  0.00000000000E+00 0.  1.
<scales pt_clust_5="13000.00000" pt_clust_6="13000.00000" pt_clust_7="13000.00000" pt_clust_8="13000.00000" pt_clust_9="54.28343"></scales>
<clustering>
<clus scale="   54.283">  2  9  1 -1</clus>
<clus scale="   89.611">  7  8 -1 -1</clus>
<clus scale="   92.870">  5  6 -1 -1</clus>
<clus scale="  103.781">  2  7  1 -1</clus>
<clus scale="  106.607">  1  5  2 -1</clus>
</clustering>
</event>
<event>
 9    1  0.1266593E-005  0.1278245E+03  0.7546771E-02  0.1230881E+00
         -4   -1    0    0    0  501 -0.00000000000E+00  0.00000000000E+00  0.48447860610E+03  0.48447860610E+03  0.00000000000E+00 0.  1.
          4   -1    0    0  502    0  0.00000000000E+00 -0.00000000000E+00 -0.96919721829E+02  0.96919721829E+02  0.00000000000E+00 0. -1.
         23    2    1    2    0    0  0.58568337917E+02 -0.82773093551E+02  0.15167330719E+03  0.20384304785E+03  0.90915129753E+02 0.  0.
         23    2    1    2    0    0 -0.84940433764E+02  0.31036484673E+02 -0.68261770960E+01  0.12799334438E+03  0.90319205283E+02 0.  0.
        -13    1    4    4    0    0  0.55686503935E+01  0.28644947642E+02  0.17776703922E+02  0.34169490703E+02  0.00000000000E+00 0.  1.
         13    1    4    4    0    0 -0.90509084158E+02  0.23915370314E+01 -0.24602881018E+02  0.93823853677E+02  0.00000000000E+00 0. -1.
        -13    1    3    3    0    0 -0.18865934596E+02 -0.43278846251E+02  0.37197616665E+02  0.60105280188E+02  0.00000000000E+00 0. -1.
         13    1    3    3    0    0  0.77434272513E+02 -0.39494247300E+02  0.11447569053E+03  0.14373776766E+03  0.00000000000E+00 0.  1.
         21    1    1    2  502  501  0.26372095847E+02  0.51736608878E+02  0.24271175417E+03  0.24956193570E+03  0.00000000000E+00 0.  1.
<scales pt_clust_5="13000.00000" pt_clust_6="13000.00000" pt_clust_7="13000.00000" pt_clust_8="13000.00000" pt_clust_9="58.07034"></scales>
<clustering>
<clus scale="   58.070">  1  9  2 -1</clus>
<clus scale="   90.319">  5  6 -1 -1</clus>
<clus scale="   90.915">  7  8 -1 -1</clus>
<clus scale="  127.401">  2  5  1 -1</clus>
<clus scale="  127.401">  2  5  1 -1</clus>
</clustering>
</event>
<event>
 9    1  0.1266593E-005  0.1522485E+03  0.7546771E-02  0.1198516E+00
         -1   -1    0    0    0  501 -0.00000000000E+00  0.00000000000E+00  0.10016776055E+03  0.10016776055E+03  0.00000000000E+00 0.  1.
          1   -1    0    0  502    0  0.00000000000E+00 -0.00000000000E+00 -0.40194562323E+03  0.40194562323E+03  0.00000000000E+00 0. -1.
         23    2    1    2    0    0  0.63469170636E+02 -0.11035800057E+03 -0.11622507372E+03  0.19308795126E+03  0.86991179157E+02 0.  0.
         23    2    1    2    0    0 -0.11173602056E+03  0.58852034762E+02 -0.18018285859E+03  0.23823426451E+03  0.91330181048E+02 0.  0.
        -11    1    3    3    0    0 -0.30178596236E+01 -0.55014550187E+02 -0.98376403372E+01  0.55968628502E+02  0.00000000000E+00 0.  1.
         11    1    3    3    0    0  0.66487030260E+02 -0.55343450384E+02 -0.10638743338E+03  0.13711932276E+03  0.00000000000E+00 0. -1.
        -11    1    4    4    0    0 -0.54447382986E+02 -0.12042768527E+02 -0.32085690727E+02  0.64335350603E+02  0.00000000000E+00 0.  1.
         11    1    4    4    0    0 -0.57288637578E+02  0.70894803290E+02 -0.14809716787E+03  0.17389891391E+03  0.00000000000E+00 0. -1.
         21    1    1    2  502  501  0.48266849927E+02  0.51505965808E+02 -0.53699303693E+01  0.70791168008E+02  0.00000000000E+00 0. -1.
<scales pt_clust_5="13000.00000" pt_clust_6="13000.00000" pt_clust_7="13000.00000" pt_clust_8="13000.00000" pt_clust_9="70.58720"></scales>
<clustering>
<clus scale="   70.587">  1  9  2 -1</clus>
<clus scale="   86.991">  5  6 -1 -1</clus>
<clus scale="   91.330">  7  8 -1 -1</clus>
<clus scale="  149.686">  1  5  2 -1</clus>
<clus scale="  152.248">  2  5  1 -1</clus>
</clustering>
</event>
<event>
 9    1  0.1266593E-005  0.1090378E+03  0.7546771E-02  0.1265270E+00
          1   -1    0    0  502    0  0.00000000000E+00  0.00000000000E+00  0.11007474085E+03  0.11007474085E+03  0.00000000000E+00 0. -1.
         -1   -1    0    0    0  501 -0.00000000000E+00 -0.00000000000E+00 -0.54520880794E+03  0.54520880794E+03  0.00000000000E+00 0.  1.
         23    2    1    2    0    0 -0.20629067858E+02 -0.68535604106E+02 -0.11392365193E+02  0.11414243349E+03  0.88181753600E+02 0.  0.
         23    2    1    2    0    0  0.76582835966E+02  0.14512940847E+02 -0.18631514925E+01  0.11215302269E+03  0.80618068372E+02 0.  0.
        -13    1    4    4    0    0  0.55519778177E+02  0.45776333597E+02 -0.12383862302E+02  0.73015604715E+02  0.00000000000E+00 0.  1.
         13    1    4    4    0    0  0.21063057789E+02 -0.31263392751E+02  0.10520710809E+02  0.39137417973E+02  0.00000000000E+00 0. -1.
        -13    1    3    3    0    0 -0.25163823761E+02  0.73690383901E+01  0.18866893189E+02  0.32302947415E+02  0.00000000000E+00 0.  1.
         13    1    3    3    0    0  0.45347559033E+01 -0.75904642496E+02 -0.30259258382E+02  0.81839486077E+02  0.00000000000E+00 0. -1.
         21    1    1    2  502  501 -0.55953768108E+02  0.54022663260E+02 -0.42187855041E+03  0.42898809261E+03  0.00000000000E+00 0.  1.
<scales pt_clust_5="13000.00000" pt_clust_6="13000.00000" pt_clust_7="13000.00000" pt_clust_8="13000.00000" pt_clust_9="77.77707"></scales>
<clustering>
<clus scale="   77.777">  2  9  1 -1</clus>
<clus scale="   80.618">  5  6 -1 -1</clus>
<clus scale="   88.182">  7  8 -1 -1</clus>
<clus scale="  103.017">  1  5  2 -1</clus>
<clus scale="  103.017">  1  5  2 -1</clus>
</clustering>
</event>
<event>
 9    1  0.1266593E-005  0.1454260E+03  0.7546771E-02  0.1228912E+00
          2   -1    0    0  502    0  0.00000000000E+00  0.00000000000E+00  0.45164884127E+03  0.45164884127E+03  0.00000000000E+00 0. -1.
         -2   -1    0    0    0  501 -0.00000000000E+00 -0.00000000000E+00 -0.18871168252E+03  0.18871168252E+03  0.00000000000E+00 0.  1.
         23    2    1    2    0    0  0.10128222146E+03 -0.32360161867E+02  0.11922088476E+02  0.14004957135E+03  0.90368566330E+02 0.  0.
         23    2    1    2    0    0  0.51586811693E+01 -0.16316104922E+02  0.34098187547E+03  0.35268618914E+03  0.88465141932E+02 0.  0.
        -11    1    3    3    0    0  0.18360615377E+02 -0.50293460914E+02 -0.41547647158E+01  0.53701084510E+02  0.00000000000E+00 0.  1.
         11    1    3    3    0    0  0.82921606087E+02  0.17933299046E+02  0.16076853191E+02  0.86348486839E+02  0.00000000000E+00 0. -1.
        -13    1    4    4    0    0  0.38828235962E+01  0.34758431530E+02  0.89995854798E+02  0.96552984223E+02  0.00000000000E+00 0.  1.
         13    1    4    4    0    0  0.12758575731E+01 -0.51074536452E+02  0.25098602068E+03  0.25613320492E+03  0.00000000000E+00 0. -1.
         21    1    1    2  502  501 -0.10644090263E+03  0.48676266789E+02 -0.89966805196E+02  0.14762476330E+03  0.00000000000E+00 0.  1.
<scales pt_clust_5="13000.00000" pt_clust_6="13000.00000" pt_clust_7="13000.00000" pt_clust_8="13000.00000" pt_clust_9="113.93970"></scales>
<clustering>
<clus scale="   88.465">  7  8 -1 -1</clus>
<clus scale="   90.105">  1  7  2 -1</clus>
<clus scale="   90.369">  5  6 -1 -1</clus>
<clus scale="  113.940">  2  9  1 -1</clus>
<clus scale="   90.105">  1  5  2 -1</clus>
</clustering>
</event>
<event>
 9    1  0.1266593E-005  0.1112427E+03  0.7546771E-02  0.1259162E+00
         -3   -1    0    0    0  501 -0.00000000000E+00  0.00000000000E+00  0.46368154451E+03  0.46368154451E+03  0.00000000000E+00 0.  1.
          3   -1    0    0  502    0  0.00000000000E+00 -0.00000000000E+00 -0.47151031715E+02  0.47151031715E+02  0.00000000000E+00 0. -1.
         23    2    1    2    0    0  0.79069646160E+02 -0.62128490651E+02  0.19656220465E+03  0.23874334349E+03  0.90827999350E+02 0.  0.
         23    2    1    2    0    0 -0.33894676639E+02  0.26678189831E+02  0.10719752334E+03  0.14553982893E+03  0.88487049212E+02 0.  0.
        -13    1    3    3    0    0  0.40394583935E+02 -0.43718831197E+02  0.18505358296E+03  0.19439106764E+03  0.00000000000E+00 0.  1.
         13    1    3    3    0    0  0.38675062224E+02 -0.18409659454E+02  0.11508621694E+02  0.44352275844E+02  0.00000000000E+00 0. -1.
        -13    1    4    4    0    0  0.21419389539E+02  0.36034208332E+02  0.52564927980E+02  0.67233370225E+02  0.00000000000E+00 0.  1.
         13    1    4    4    0    0 -0.55314066178E+02 -0.93560185018E+01  0.54632595361E+02  0.78306458707E+02  0.00000000000E+00 0. -1.
         21    1    1    2  502  501 -0.45174969520E+02  0.35450300820E+02  0.11277078480E+03  0.12654940380E+03  0.00000000000E+00 0.  1.
<scales pt_clust_5="13000.00000" pt_clust_6="13000.00000" pt_clust_7="13000.00000" pt_clust_8="13000.00000" pt_clust_9="57.42388"></scales>
<clustering>
<clus scale="   57.424">  1  9  2 -1</clus>
<clus scale="   88.487">  7  8 -1 -1</clus>
<clus scale="   90.828">  5  6 -1 -1</clus>
<clus scale="  109.340">  2  7  1 -1</clus>
<clus scale="  109.340">  2  5  1 -1</clus>
</clustering>
</event>
<event>
 9    1  0.1266593E-005  0.9272161E+02  0.7546771E-02  0.1298094E+00
          2   -1    0    0  502    0  0.00000000000E+00  0.00000000000E+00  0.56396174920E+03  0.56396174920E+03  0.00000000000E+00 0. -1.
         -2   -1    0    0    0  501 -0.00000000000E+00 -0.00000000000E+00 -0.63391367226E+02  0.63391367226E+02  0.00000000000E+00 0.  1.
         23    2    1    2    0    0  0.46630021269E+02 -0.48679624170E+02  0.12156908450E+03  0.16670609953E+03  0.92020740171E+02 0.  0.
         23    2    1    2    0    0  0.14711449505E+02  0.19982879471E+01  0.37248769563E+03  0.38328843498E+03  0.89120822971E+02 0.  0.
        -13    1    3    3    0    0 -0.73007262597E+01 -0.31195252894E+02  0.10170640027E+03  0.10663318556E+03  0.00000000000E+00 0.  1.
         13    1    3    3    0    0  0.53930747529E+02 -0.17484371276E+02  0.19862684231E+02  0.60072913969E+02  0.00000000000E+00 0. -1.
        -13    1    4    4    0    0 -0.35696376507E+02 -0.11750681885E+02  0.17642083934E+03  0.18037910736E+03  0.00000000000E+00 0.  1.
         13    1    4    4    0    0  0.50407826012E+02  0.13748969833E+02  0.19606685629E+03  0.20290932761E+03  0.00000000000E+00 0. -1.
         21    1    1    2  502  501 -0.61341470773E+02  0.46681336222E+02  0.65136018424E+01  0.77358581923E+02  0.00000000000E+00 0.  1.
<scales pt_clust_5="13000.00000" pt_clust_6="13000.00000" pt_clust_7="13000.00000" pt_clust_8="13000.00000" pt_clust_9="77.08387"></scales>
<clustering>
<clus scale="   77.084">  2  9  1 -1</clus>
<clus scale="   89.121">  7  8 -1 -1</clus>
<clus scale="   89.844">  1  7  2 -1</clus>
<clus scale="   92.021">  5  6 -1 -1</clus>
<clus scale="   89.844">  1  5  2 -1</clus>
</clustering>
</event>
<event>
 9    1  0.1266593E-005  0.9575219E+02  0.7546771E-02  0.1290086E+00
          1   -1    0    0  502    0  0.00000000000E+00  0.00000000000E+00  0.28261540304E+03  0.28261540304E+03  0.00000000000E+00 0. -1.
         -1   -1    0    0    0  501 -0.00000000000E+00 -0.00000000000E+00 -0.51926116097E+02  0.51926116097E+02  0.00000000000E+00 0.  1.
         23    2    1    2    0    0  0.11091840205E+02 -0.34589513944E+02  0.96272512823E+02  0.13739057688E+03  0.91040158700E+02 0.  0.
         23    2    1    2    0    0  0.12700359852E+02  0.19676089279E+02  0.13929775162E+03  0.16865001315E+03  0.92143994385E+02 0.  0.
        -13    1    4    4    0    0  0.46713613211E+02  0.29563816386E+02  0.58817790773E+02  0.80719969090E+02  0.00000000000E+00 0.  1.
         13    1    4    4    0    0 -0.34013253359E+02 -0.98877271071E+01  0.80479960843E+02  0.87930044062E+02  0.00000000000E+00 0. -1.
        -13    1    3    3    0    0  0.16869038571E+02 -0.64868831227E+02  0.69613001114E+02  0.96635912844E+02  0.00000000000E+00 0.  1.
         13    1    3    3    0    0 -0.57771983657E+01  0.30279317283E+02  0.26659511709E+02  0.40754664036E+02  0.00000000000E+00 0. -1.
         21    1    1    2  502  501 -0.23792200057E+02  0.14913424665E+02 -0.48809774926E+01  0.28500929109E+02  0.00000000000E+00 0. -1.
<scales pt_clust_5="13000.00000" pt_clust_6="13000.00000" pt_clust_7="13000.00000" pt_clust_8="13000.00000" pt_clust_9="28.07987"></scales>
<clustering>
<clus scale="   28.080">  2  9  1 -1</clus>
<clus scale="   91.040">  7  8 -1 -1</clus>
<clus scale="   92.144">  5  6 -1 -1</clus>
<clus scale="   94.690">  2  7  1 -1</clus>
<clus scale="   95.752">  1  5  2 -1</clus>
</clustering>
</event>
<event>
 9    1  0.1266593E-005  0.1670018E+03  0.7546771E-02  0.1181467E+00
         -3   -1    0    0    0  501 -0.00000000000E+00  0.00000000000E+00  0.62939366593E+02  0.62939366593E+02  0.00000000000E+00 0.  1.
          3   -1    0    0  502    0  0.00000000000E+00 -0.00000000000E+00 -0.10911649108E+04  0.10911649108E+04  0.00000000000E+00 0. -1.
         23    2    1    2    0    0 -0.14329965635E+03 -0.62415362290E+02 -0.44336842802E+03  0.47839701031E+03  0.88643485667E+02 0.  0.
         23    2    1    2    0    0  0.11970360241E+03  0.50317625157E+02 -0.61519675136E+03  0.63541306818E+03  0.91770956709E+02 0.  0.
        -11    1    4    4    0    0  0.84743744460E+02  0.75403285677E+02 -0.39087492351E+03  0.40700167512E+03  0.00000000000E+00 0.  1.
         11    1    4    4    0    0  0.34959857946E+02 -0.25085660519E+02 -0.22432182785E+03  0.22841139306E+03  0.00000000000E+00 0. -1.
        -11    1    3    3    0    0 -0.71529860295E+02  0.14972043421E+02 -0.15630277607E+03  0.17254344614E+03  0.00000000000E+00 0.  1.
         11    1    3    3    0    0 -0.71769796051E+02 -0.77387405712E+02 -0.28706565195E+03  0.30585356417E+03  0.00000000000E+00 0. -1.
         21    1    1    2  502  501  0.23596053941E+02  0.12097737133E+02  0.30339635156E+02  0.40294198922E+02  0.00000000000E+00 0. -1.
<scales pt_clust_5="13000.00000" pt_clust_6="13000.00000" pt_clust_7="13000.00000" pt_clust_8="13000.00000" pt_clust_9="26.51658"></scales>
<clustering>
<clus scale="   26.517">  1  9  2 -1</clus>
<clus scale="   88.643">  7  8 -1 -1</clus>
<clus scale="   91.771">  5  6 -1 -1</clus>
<clus scale="  165.304">  1  7  2 -1</clus>
<clus scale="  167.002">  2  5  1 -1</clus>
</clustering>
</event>
<event>
 9    1  0.1266593E-005  0.1235826E+03  0.7546771E-02  0.1238982E+00
          2   -1    0    0  502    0  0.00000000000E+00  0.00000000000E+00  0.46624601464E+03  0.46624601464E+03  0.00000000000E+00 0. -1.
         -2   -1    0    0    0  501 -0.00000000000E+00 -0.00000000000E+00 -0.67531715090E+02  0.67531715090E+02  0.00000000000E+00 0.  1.
         23    2    1    2    0    0 -0.53789072093E+01  0.78779473418E+02  0.15931682778E+03  0.20003393048E+03  0.91632874306E+02 0.  0.
         23    2    1    2    0    0 -0.18000100330E+02 -0.74310831284E+02  0.26885874037E+03  0.29586883254E+03  0.96990930180E+02 0.  0.
        -11    1    4    4    0    0 -0.57171768592E+02 -0.30835141748E+02  0.14456267278E+03  0.15848590931E+03  0.00000000000E+00 0.  1.
         11    1    4    4    0    0  0.39171668262E+02 -0.43475689536E+02  0.12429606759E+03  0.13738292323E+03  0.00000000000E+00 0. -1.
        -13    1    3    3    0    0 -0.15681420872E+02  0.18462440708E+02 -0.49643671362E+01  0.24726779380E+02  0.00000000000E+00 0.  1.
         13    1    3    3    0    0  0.10302513663E+02  0.60317032710E+02  0.16428119491E+03  0.17530715109E+03  0.00000000000E+00 0. -1.
         21    1    1    2  502  501  0.23379007539E+02 -0.44686421345E+01 -0.29461268600E+02  0.37874966714E+02  0.00000000000E+00 0.  1.
<scales pt_clust_5="13000.00000" pt_clust_6="13000.00000" pt_clust_7="13000.00000" pt_clust_8="13000.00000" pt_clust_9="23.80224"></scales>
<clustering>
<clus scale="   23.802">  2  9  1 -1</clus>
<clus scale="   91.633">  7  8 -1 -1</clus>
<clus scale="   96.991">  5  6 -1 -1</clus>
<clus scale="  119.424">  2  7  1 -1</clus>
<clus scale="  123.583">  1  5  2 -1</clus>
</clustering>
</event>
<event>
 9    1  0.1266593E-005  0.1001282E+03  0.7546771E-02  0.1281189E+00
         -2   -1    0    0    0  501 -0.00000000000E+00  0.00000000000E+00  0.49226793610E+02  0.49226793610E+02  0.00000000000E+00 0.  1.
          2   -1    0    0  502    0  0.00000000000E+00 -0.00000000000E+00 -0.31942430049E+03  0.31942430049E+03  0.00000000000E+00 0. -1.
         23    2    1    2    0    0 -0.20604937330E+02 -0.48384075291E+02 -0.12704869791E+03  0.16463864418E+03  0.90547939402E+02 0.  0.
         23    2    1    2    0    0 -0.10953506712E+01  0.26925237466E+02 -0.14400424501E+03  0.17348187523E+03  0.92911626003E+02 0.  0.
        -13    1    4    4    0    0  0.19369594492E+02 -0.23138244873E+02 -0.97796108864E+02  0.10234568127E+03  0.00000000000E+00 0.  1.
         13    1    4    4    0    0 -0.20464945163E+02  0.50063482340E+02 -0.46208136151E+02  0.71136193959E+02  0.00000000000E+00 0. -1.
        -13    1    3    3    0    0  0.91530932196E+01 -0.54659537280E+02 -0.30174232484E+02  0.63102523224E+02  0.00000000000E+00 0.  1.
         13    1    3    3    0    0 -0.29758030550E+02  0.62754619897E+01 -0.96874465431E+02  0.10153612095E+03  0.00000000000E+00 0. -1.
         21    1    1    2  502  501  0.21700288002E+02  0.21458837824E+02  0.85543605057E+00  0.30530574691E+02  0.00000000000E+00 0.  1.
<scales pt_clust_5="13000.00000" pt_clust_6="13000.00000" pt_clust_7="13000.00000" pt_clust_8="13000.00000" pt_clust_9="30.51859"></scales>
<clustering>
<clus scale="   30.519">  1  9  2 -1</clus>
<clus scale="   90.548">  7  8 -1 -1</clus>
<clus scale="   92.912">  5  6 -1 -1</clus>
<clus scale="   97.939">  1  7  2 -1</clus>
<clus scale="  100.128">  2  5  1 -1</clus>
</clustering>
</event>
<event>
 9    1  0.1266593E-005  0.1419376E+03  0.7546771E-02  0.1210980E+00
          3   -1    0    0  502    0  0.00000000000E+00  0.00000000000E+00  0.25678611899E+03  0.25678611899E+03  0.00000000000E+00 0. -1.
         -3   -1    0    0    0  501 -0.00000000000E+00 -0.00000000000E+00 -0.13739229739E+03  0.13739229739E+03  0.00000000000E+00 0.  1.
         23    2    1    2    0    0 -0.84851683607E+02 -0.78907334760E+02  0.75650722450E+02  0.16545932075E+03  0.90706004900E+02 0.  0.
         23    2    1    2    0    0  0.54081599631E+02  0.88727015186E+02  0.95040367273E+02  0.16810033691E+03  0.91802773467E+02 0.  0.
        -11    1    4    4    0    0  0.69803556003E+02  0.32606964131E+02  0.35655101348E+02  0.84894268315E+02  0.00000000000E+00 0.  1.
         11    1    4    4    0    0 -0.15721956372E+02  0.56120051055E+02  0.59385265925E+02  0.83206068598E+02  0.00000000000E+00 0. -1.
        -13    1    3    3    0    0  0.27078491635E+01 -0.53348742767E+02  0.43013227455E+02  0.68582494399E+02  0.00000000000E+00 0.  1.
         13    1    3    3    0    0 -0.87559532770E+02 -0.25558591993E+02  0.32637494995E+02  0.96876826347E+02  0.00000000000E+00 0. -1.
         21    1    1    2  502  501  0.30770083976E+02 -0.98196804266E+01 -0.51297268126E+02  0.60618758720E+02  0.00000000000E+00 0. -1.
<scales pt_clust_5="13000.00000" pt_clust_6="13000.00000" pt_clust_7="13000.00000" pt_clust_8="13000.00000" pt_clust_9="32.29898"></scales>
<clustering>
<clus scale="   32.299">  2  9  1 -1</clus>
<clus scale="   90.706">  7  8 -1 -1</clus>
<clus scale="   91.803">  5  6 -1 -1</clus>
<clus scale="  141.231">  2  7  1 -1</clus>
<clus scale="  141.938">  1  5  2 -1</clus>
</clustering>
</event>
<event>
 9    1  0.1266593E-005  0.9439450E+02  0.7546771E-02  0.1293619E+00
          1   -1    0    0  502    0  0.00000000000E+00  0.00000000000E+00  0.18473480193E+03  0.18473480193E+03  0.00000000000E+00 0. -1.
         -1   -1    0    0    0  501 -0.00000000000E+00 -0.00000000000E+00 -0.78593702740E+02  0.78593702740E+02  0.00000000000E+00 0.  1.
         23    2    1    2    0    0 -0.29556621529E+02 -0.57620292611E+01  0.32608829120E+02  0.10051325059E+03  0.90181943591E+02 0.  0.
         23    2    1    2    0    0 -0.87252585413E+01  0.29345440796E+02  0.65635348338E+02  0.11716395602E+03  0.92098363759E+02 0.  0.
        -11    1    3    3    0    0 -0.43906343158E+02  0.19314337984E+02 -0.10033515468E+02  0.49004918671E+02  0.00000000000E+00 0.  1.
         11    1    3    3    0    0  0.14349721629E+02 -0.25076367245E+02  0.42642344588E+02  0.51508331918E+02  0.00000000000E+00 0. -1.
        -13    1    4    4    0    0  0.18414429798E+02 -0.27096481580E+02  0.12613798546E+02  0.35105817931E+02  0.00000000000E+00 0.  1.
         13    1    4    4    0    0 -0.27139688340E+02  0.56441922376E+02  0.53021549792E+02  0.82058138091E+02  0.00000000000E+00 0. -1.
         21    1    1    2  502  501  0.38281880070E+02 -0.23583411535E+02  0.78969217271E+01  0.45651298055E+02  0.00000000000E+00 0. -1.
<scales pt_clust_5="13000.00000" pt_clust_6="13000.00000" pt_clust_7="13000.00000" pt_clust_8="13000.00000" pt_clust_9="44.96309"></scales>
<clustering>
<clus scale="   44.963">  2  9  1 -1</clus>
<clus scale="   90.182">  5  6 -1 -1</clus>
<clus scale="   92.098">  7  8 -1 -1</clus>
<clus scale="   92.526">  2  5  1 -1</clus>
<clus scale="   94.394">  1  5  2 -1</clus>
</clustering>
</event>
<event>
 9    1  0.1266593E-005  0.1557647E+03  0.7546771E-02  0.1194188E+00
          2   -1    0    0  502    0  0.00000000000E+00  0.00000000000E+00  0.56405805324E+03  0.56405805324E+03  0.00000000000E+00 0. -1.
         -2   -1    0    0    0  501 -0.00000000000E+00 -0.00000000000E+00 -0.41958857549E+03  0.41958857549E+03  0.00000000000E+00 0.  1.
         23    2    1    2    0    0  0.59799822154E+02  0.10987393338E+03 -0.21782555934E+03  0.26826951881E+03  0.94192677271E+02 0.  0.
         23    2    1    2    0    0 -0.32167204193E+02 -0.11992249491E+03  0.52653983255E+03  0.54852122002E+03  0.90637739041E+02 0.  0.
        -11    1    3    3    0    0 -0.13842579293E+02  0.72745737896E+02 -0.10697297063E+03  0.13010294320E+03  0.00000000000E+00 0.  1.
         11    1    3    3    0    0  0.73642401447E+02  0.37128195483E+02 -0.11085258871E+03  0.13816657561E+03  0.00000000000E+00 0. -1.
        -11    1    4    4    0    0  0.16143165764E+02 -0.63133135172E+02  0.36279636387E+03  0.36860221947E+03  0.00000000000E+00 0. -1.
         11    1    4    4    0    0 -0.48310369957E+02 -0.56789359735E+02  0.16374346868E+03  0.17991900055E+03  0.00000000000E+00 0.  1.
         21    1    1    2  502  501 -0.27632617961E+02  0.10048561528E+02 -0.16424479546E+03  0.16685588991E+03  0.00000000000E+00 0.  1.
<scales pt_clust_5="13000.00000" pt_clust_6="13000.00000" pt_clust_7="13000.00000" pt_clust_8="13000.00000" pt_clust_9="29.40298"></scales>
<clustering>
<clus scale="   29.403">  2  9  1 -1</clus>
<clus scale="   90.638">  7  8 -1 -1</clus>
<clus scale="   94.193">  5  6 -1 -1</clus>
<clus scale="  153.641">  1  7  2 -1</clus>
<clus scale="  153.641">  1  5  2 -1</clus>
</clustering>
</event>
<event>
 9    1  0.1266593E-005  0.1152555E+03  0.7546771E-02  0.1251161E+00
          2   -1    0    0  502    0  0.00000000000E+00  0.00000000000E+00  0.68297120335E+03  0.68297120335E+03  0.00000000000E+00 0. -1.
         -2   -1    0    0    0  501 -0.00000000000E+00 -0.00000000000E+00 -0.36369767843E+02  0.36369767843E+02  0.00000000000E+00 0.  1.
         23    2    1    2    0    0  0.33618468410E+02  0.77675781630E+02  0.30884408163E+03  0.33246400397E+03  0.89352776736E+02 0.  0.
         23    2    1    2    0    0 -0.48004899054E+01 -0.65554414078E+02  0.33789043037E+03  0.35561323191E+03  0.89277107178E+02 0.  0.
        -11    1    3    3    0    0  0.61201078418E+02  0.39217422589E+02  0.22150112645E+03  0.23312298740E+03  0.00000000000E+00 0. -1.
         11    1    3    3    0    0 -0.27582610008E+02  0.38458359041E+02  0.87342955177E+02  0.99341016574E+02  0.00000000000E+00 0.  1.
        -11    1    4    4    0    0 -0.23901619484E+02  0.66507417174E+01  0.30690927621E+02  0.39464576745E+02  0.00000000000E+00 0.  1.
         11    1    4    4    0    0  0.19101129579E+02 -0.72205155795E+02  0.30719950274E+03  0.31614865516E+03  0.00000000000E+00 0. -1.
         21    1    1    2  502  501 -0.28817978504E+02 -0.12121367552E+02 -0.13307648692E+00  0.31263735313E+02  0.00000000000E+00 0. -1.
<scales pt_clust_5="13000.00000" pt_clust_6="13000.00000" pt_clust_7="13000.00000" pt_clust_8="13000.00000" pt_clust_9="31.26345"></scales>
<clustering>
<clus scale="   31.263">  2  9  1 -1</clus>
<clus scale="   89.277">  7  8 -1 -1</clus>
<clus scale="   89.353">  5  6 -1 -1</clus>
<clus scale="  115.197">  1  7  2 -1</clus>
<clus scale="  115.197">  1  5  2 -1</clus>
</clustering>
</event>
<event>
 9    1  0.1266593E-005  0.1867794E+03  0.7546771E-02  0.1163326E+00
          1   -1    0    0  502    0  0.00000000000E+00  0.00000000000E+00  0.10954422147E+03  0.10954422147E+03  0.00000000000E+00 0. -1.
         -1   -1    0    0    0  501 -0.00000000000E+00 -0.00000000000E+00 -0.49525536870E+03  0.49525536870E+03  0.00000000000E+00 0.  1.
         23    2    1    2    0    0 -0.13627034684E+03 -0.11615771858E+03 -0.31168451362E+03  0.37490567913E+03  0.10651201435E+03 0.  0.
         23    2    1    2    0    0  0.10152001796E+03  0.10466476799E+03 -0.33606774229E+02  0.17536466841E+03  0.91445743186E+02 0.  0.
        -11    1    4    4    0    0  0.87127955574E+02  0.12178828713E+03 -0.29393536137E+02  0.15260290787E+03  0.00000000000E+00 0. -1.
         11    1    4    4    0    0  0.14392062388E+02 -0.17123519141E+02 -0.42132380920E+01  0.22761760538E+02  0.00000000000E+00 0.  1.
        -13    1    3    3    0    0 -0.26418851117E+02 -0.62864065796E+02 -0.45279103518E+02  0.81853794526E+02  0.00000000000E+00 0. -1.
         13    1    3    3    0    0 -0.10985149572E+03 -0.53293652785E+02 -0.26640541010E+03  0.29305188461E+03  0.00000000000E+00 0.  1.
         21    1    1    2  502  501  0.34750328876E+02  0.11492950596E+02 -0.40419859377E+02  0.54529242636E+02  0.00000000000E+00 0. -1.
<scales pt_clust_5="13000.00000" pt_clust_6="13000.00000" pt_clust_7="13000.00000" pt_clust_8="13000.00000" pt_clust_9="36.60155"></scales>
<clustering>
<clus scale="   36.602">  2  9  1 -1</clus>
<clus scale="   91.446">  5  6 -1 -1</clus>
<clus scale="  106.512">  7  8 -1 -1</clus>
<clus scale="  178.617">  1  5  2 -1</clus>
<clus scale="  178.617">  1  5  2 -1</clus>
</clustering>
</event>
<event>
 9    1  0.1266593E-005  0.9152597E+02  0.7546771E-02  0.1299376E+00
          3   -1    0    0  502    0  0.00000000000E+00  0.00000000000E+00  0.33920216872E+03  0.33920216872E+03  0.00000000000E+00 0. -1.
         -3   -1    0    0    0  501 -0.00000000000E+00 -0.00000000000E+00 -0.61314646493E+02  0.61314646493E+02  0.00000000000E+00 0.  1.
         23    2    1    2    0    0  0.20962993125E+02 -0.43715015653E+02  0.94518557693E+02  0.13993458037E+03  0.91090500942E+02 0.  0.
         23    2    1    2    0    0  0.21242870700E+02 -0.25268877754E+02  0.13505125873E+03  0.16637653870E+03  0.91392201024E+02 0.  0.
        -11    1    3    3    0    0 -0.31643525739E+02 -0.31526018745E+02  0.63571684014E+02  0.77695312520E+02  0.00000000000E+00 0. -1.
         11    1    3    3    0    0  0.52606518864E+02 -0.12188996908E+02  0.30946873679E+02  0.62239267855E+02  0.00000000000E+00 0.  1.
        -11    1    4    4    0    0  0.29845263086E+02  0.21649490150E+02  0.20262908023E+02  0.42071672108E+02  0.00000000000E+00 0.  1.
         11    1    4    4    0    0 -0.86023923855E+01 -0.46918367904E+02  0.11478835070E+03  0.12430486659E+03  0.00000000000E+00 0. -1.
         21    1    1    2  502  501 -0.42205863825E+02  0.68983893406E+02  0.48317705811E+02  0.94205696142E+02  0.00000000000E+00 0.  1.
<scales pt_clust_5="13000.00000" pt_clust_6="13000.00000" pt_clust_7="13000.00000" pt_clust_8="13000.00000" pt_clust_9="80.87096"></scales>
<clustering>
<clus scale="   80.871">  2  9  1 -1</clus>
<clus scale="   91.091">  5  6 -1 -1</clus>
<clus scale="   91.225">  2  5  1 -1</clus>
<clus scale="   91.392">  7  8 -1 -1</clus>
<clus scale="   91.526">  1  5  2 -1</clus>
</clustering>
</event>
<event>
 9    1  0.1266593E-005  0.1073037E+03  0.7546771E-02  0.1266489E+00
          2   -1    0    0  502    0  0.00000000000E+00  0.00000000000E+00  0.48789709974E+03  0.48789709974E+03  0.00000000000E+00 0. -1.
         -2   -1    0    0    0  501 -0.00000000000E+00 -0.00000000000E+00 -0.53389278963E+02  0.53389278963E+02  0.00000000000E+00 0.  1.
         23    2    1    2    0    0 -0.78797795358E+02 -0.42851326206E+02  0.11058122924E+03  0.16890629916E+03  0.90861438047E+02 0.  0.
         23    2    1    2    0    0  0.50147537345E+02 -0.12149749304E+02  0.27448719475E+03  0.29306923826E+03  0.88791702420E+02 0.  0.
        -11    1    4    4    0    0  0.17536044206E+02 -0.49846251807E+02  0.14323249297E+03  0.15266862385E+03  0.00000000000E+00 0.  1.
         11    1    4    4    0    0  0.32611493139E+02  0.37696502503E+02  0.13125470179E+03  0.14040061441E+03  0.00000000000E+00 0. -1.
        -13    1    3    3    0    0 -0.49156984680E+02 -0.58466916594E+02  0.30773440792E+02  0.82351649267E+02  0.00000000000E+00 0.  1.
         13    1    3    3    0    0 -0.29640810678E+02  0.15615590388E+02  0.79807788446E+02  0.86554649889E+02  0.00000000000E+00 0. -1.
         21    1    1    2  502  501  0.28650258013E+02  0.55001075510E+02  0.49439396783E+02  0.79310841288E+02  0.00000000000E+00 0.  1.
<scales pt_clust_5="13000.00000" pt_clust_6="13000.00000" pt_clust_7="13000.00000" pt_clust_8="13000.00000" pt_clust_9="62.01577"></scales>
<clustering>
<clus scale="   62.016">  2  9  1 -1</clus>
<clus scale="   88.792">  5  6 -1 -1</clus>
<clus scale="   90.861">  7  8 -1 -1</clus>
<clus scale="  105.557">  1  5  2 -1</clus>
<clus scale="  105.557">  1  5  2 -1</clus>
</clustering>
</event>
<event>
 9    1  0.1266593E-005  0.9399749E+02  0.7546771E-02  0.1296226E+00
          1   -1    0    0  502    0  0.00000000000E+00  0.00000000000E+00  0.14311406887E+03  0.14311406887E+03  0.00000000000E+00 0. -1.
         -1   -1    0    0    0  501 -0.00000000000E+00 -0.00000000000E+00 -0.98544728049E+02  0.98544728049E+02  0.00000000000E+00 0.  1.
         23    2    1    2    0    0 -0.31640831308E+02 -0.24708911957E+00  0.46565339289E+01  0.98823375293E+02  0.93504935363E+02 0.  0.
         23    2    1    2    0    0 -0.83248855522E+01 -0.11458917329E+02  0.45638082456E+02  0.10079891497E+03  0.88752330581E+02 0.  0.
        -11    1    4    4    0    0  0.14922694457E+02 -0.42967274895E+02  0.74260849995E+01  0.46087094291E+02  0.00000000000E+00 0.  1.
         11    1    4    4    0    0 -0.23247580009E+02  0.31508357566E+02  0.38211997456E+02  0.54711820682E+02  0.00000000000E+00 0. -1.
        -13    1    3    3    0    0  0.50111113445E+01  0.28874727422E+02 -0.28951858886E+02  0.41195524679E+02  0.00000000000E+00 0.  1.
         13    1    3    3    0    0 -0.36651942652E+02 -0.29121816542E+02  0.33608392815E+02  0.57627850615E+02  0.00000000000E+00 0. -1.
         21    1    1    2  502  501  0.39965716860E+02  0.11706006449E+02 -0.57252755656E+01  0.42036506651E+02  0.00000000000E+00 0.  1.
<scales pt_clust_5="13000.00000" pt_clust_6="13000.00000" pt_clust_7="13000.00000" pt_clust_8="13000.00000" pt_clust_9="41.64480"></scales>
<clustering>
<clus scale="   41.645">  2  9  1 -1</clus>
<clus scale="   88.752">  5  6 -1 -1</clus>
<clus scale="   89.271">  1  5  2 -1</clus>
<clus scale="   93.505">  7  8 -1 -1</clus>
<clus scale="   89.271">  1  5  2 -1</clus>
</clustering>
</event>
<event>
 9    1  0.1266593E-005  0.1186958E+03  0.7546771E-02  0.1246631E+00
         -1   -1    0    0    0  501 -0.00000000000E+00  0.00000000000E+00  0.16565307951E+03  0.16565307951E+03  0.00000000000E+00 0.  1.
          1   -1    0    0  502    0  0.00000000000E+00 -0.00000000000E+00 -0.12634973172E+03  0.12634973172E+03  0.00000000000E+00 0. -1.
         23    2    1    2    0    0 -0.75061516913E+01 -0.60092547480E+02  0.62136476180E+02  0.12618832406E+03  0.91624750368E+02 0.  0.
         23    2    1    2    0    0  0.29323260991E+02  0.69352936115E+02 -0.48356674049E+02  0.13098357506E+03  0.95648552663E+02 0.  0.
        -13    1    4    4    0    0 -0.31612358051E+02  0.45524221145E+02 -0.30029448712E+02  0.63036209296E+02  0.00000000000E+00 0. -1.
         13    1    4    4    0    0  0.60935619043E+02  0.23828714970E+02 -0.18327225337E+02  0.67947365761E+02  0.00000000000E+00 0.  1.
        -13    1    3    3    0    0 -0.21687037517E+02 -0.35334475364E+02 -0.14886487469E+02  0.44050655553E+02  0.00000000000E+00 0.  1.
         13    1    3    3    0    0  0.14180885826E+02 -0.24758072116E+02  0.77022963649E+02  0.82137668502E+02  0.00000000000E+00 0. -1.
         21    1    1    2  502  501 -0.21817109300E+02 -0.92603886349E+01  0.25523545665E+02  0.34830912121E+02  0.00000000000E+00 0. -1.
<scales pt_clust_5="13000.00000" pt_clust_6="13000.00000" pt_clust_7="13000.00000" pt_clust_8="13000.00000" pt_clust_9="23.70108"></scales>
<clustering>
<clus scale="   23.701">  1  9  2 -1</clus>
<clus scale="   91.625">  7  8 -1 -1</clus>
<clus scale="   95.649">  5  6 -1 -1</clus>
<clus scale="  115.478">  1  7  2 -1</clus>
<clus scale="  118.696">  2  5  1 -1</clus>
</clustering>
</event>
<event>
 9    1  0.1266593E-005  0.1081400E+03  0.7546771E-02  0.1265013E+00
          1   -1    0    0  502    0  0.00000000000E+00  0.00000000000E+00  0.41413639230E+03  0.41413639230E+03  0.00000000000E+00 0. -1.
         -1   -1    0    0    0  501 -0.00000000000E+00 -0.00000000000E+00 -0.56568838834E+02  0.56568838834E+02  0.00000000000E+00 0.  1.
         23    2    1    2    0    0  0.41644746378E+02 -0.19429773605E+02  0.57103858204E+02  0.11549675392E+03  0.89257204427E+02 0.  0.
         23    2    1    2    0    0 -0.43652539393E+02  0.43935930928E+02  0.30976654038E+03  0.32891920360E+03  0.91633087539E+02 0.  0.
        -11    1    3    3    0    0 -0.22186027946E+02  0.86687483782E+01 -0.22391037603E+01  0.23924477426E+02  0.00000000000E+00 0.  1.
         11    1    3    3    0    0  0.63830774323E+02 -0.28098521983E+02  0.59342961964E+02  0.91572276498E+02  0.00000000000E+00 0. -1.
        -13    1    4    4    0    0 -0.64046626472E+02  0.29461278485E+02  0.28549003858E+03  0.29406546791E+03  0.00000000000E+00 0.  1.
         13    1    4    4    0    0  0.20394087079E+02  0.14474652443E+02  0.24276501805E+02  0.34853735682E+02  0.00000000000E+00 0. -1.
         21    1    1    2  502  501  0.20077930151E+01 -0.24506157323E+02 -0.93028451247E+01  0.26289273610E+02  0.00000000000E+00 0.  1.
<scales pt_clust_5="13000.00000" pt_clust_6="13000.00000" pt_clust_7="13000.00000" pt_clust_8="13000.00000" pt_clust_9="24.58827"></scales>
<clustering>
<clus scale="   24.588">  2  9  1 -1</clus>
<clus scale="   89.257">  5  6 -1 -1</clus>
<clus scale="   91.633">  7  8 -1 -1</clus>
<clus scale="  106.134">  2  5  1 -1</clus>
<clus scale="  108.140">  1  5  2 -1</clus>
</clustering>
</event>
<event>
 9    1  0.1266593E-005  0.9254144E+02  0.7546771E-02  0.1297297E+00
         -1   -1    0    0    0  501 -0.00000000000E+00  0.00000000000E+00  0.26133684862E+03  0.26133684862E+03  0.00000000000E+00 0.  1.
          1   -1    0    0  502    0  0.00000000000E+00 -0.00000000000E+00 -0.57158575628E+02  0.57158575628E+02  0.00000000000E+00 0. -1.
         23    2    1    2    0    0  0.22931768039E+02 -0.21242844382E+02  0.15260667791E+03  0.17976109055E+03  0.89711354399E+02 0.  0.
         23    2    1    2    0    0 -0.34218055328E+01  0.16062681785E+02  0.10070430632E+02  0.92584367591E+02  0.90557898882E+02 0.  0.
        -11    1    3    3    0    0 -0.23129568270E+02  0.13615825634E+02  0.15526476626E+02  0.31007081651E+02  0.00000000000E+00 0. -1.
         11    1    3    3    0    0  0.46061336309E+02 -0.34858670016E+02  0.13708020128E+03  0.14875400889E+03  0.00000000000E+00 0.  1.
        -11    1    4    4    0    0  0.22548589784E+02  0.43564691241E+02 -0.95455916207E+01  0.49974388876E+02  0.00000000000E+00 0. -1.
         11    1    4    4    0    0 -0.25970395317E+02 -0.27502009456E+02  0.19616022253E+02  0.42609978714E+02  0.00000000000E+00 0.  1.
         21    1    1    2  502  501 -0.19509962506E+02  0.51801625973E+01  0.41501164450E+02  0.46149966113E+02  0.00000000000E+00 0. -1.
<scales pt_clust_5="13000.00000" pt_clust_6="13000.00000" pt_clust_7="13000.00000" pt_clust_8="13000.00000" pt_clust_9="20.18595"></scales>
<clustering>
<clus scale="   20.186">  1  9  2 -1</clus>
<clus scale="   89.711">  5  6 -1 -1</clus>
<clus scale="   90.558">  7  8 -1 -1</clus>
<clus scale="   91.713">  1  5  2 -1</clus>
<clus scale="   92.541">  2  5  1 -1</clus>
</clustering>
</event>
<event>
 9    1  0.1266593E-005  0.1163975E+03  0.7546771E-02  0.1256001E+00
          1   -1    0    0  502    0  0.00000000000E+00  0.00000000000E+00  0.40410135799E+02  0.40410135799E+02  0.00000000000E+00 0. -1.
         -1   -1    0    0    0  501 -0.00000000000E+00 -0.00000000000E+00 -0.40712042020E+03  0.40712042020E+03  0.00000000000E+00 0.  1.
         23    2    1    2    0    0  0.34515852488E+02  0.39787526492E+02 -0.14255092971E+03  0.17615659500E+03  0.89084157205E+02 0.  0.
         23    2    1    2    0    0 -0.42094123886E+02 -0.21112536483E+02 -0.12551415986E+03  0.17069099366E+03  0.10565962581E+03 0.  0.
        -11    1    4    4    0    0  0.85190999137E+01 -0.54056794518E+02 -0.51287847948E+02  0.75001036287E+02  0.00000000000E+00 0.  1.
         11    1    4    4    0    0 -0.50613223800E+02  0.32944258035E+02 -0.74226311917E+02  0.95689957371E+02  0.00000000000E+00 0. -1.
        -11    1    3    3    0    0 -0.23829022654E+02 -0.99697043885E+01 -0.26054686414E+02  0.36688745009E+02  0.00000000000E+00 0. -1.
         11    1    3    3    0    0  0.58344875141E+02  0.49757230881E+02 -0.11649624329E+03  0.13946784999E+03  0.00000000000E+00 0.  1.
         21    1    1    2  502  501  0.75782713988E+01 -0.18674990009E+02 -0.98645194826E+02  0.10068296734E+03  0.00000000000E+00 0.  1.
<scales pt_clust_5="13000.00000" pt_clust_6="13000.00000" pt_clust_7="13000.00000" pt_clust_8="13000.00000" pt_clust_9="20.15404"></scales>
<clustering>
<clus scale="   20.154">  2  9  1 -1</clus>
<clus scale="   89.084">  7  8 -1 -1</clus>
<clus scale="  101.589">  2  7  1 -1</clus>
<clus scale="  105.660">  5  6 -1 -1</clus>
<clus scale="  116.398">  1  5  2 -1</clus>
</clustering>
</event>
<event>
 9    1  0.1266593E-005  0.3125565E+03  0.7546771E-02  0.1116932E+00
          1   -1    0    0  502    0  0.00000000000E+00  0.00000000000E+00  0.25289862109E+04  0.25289862109E+04  0.00000000000E+00 0. -1.
         -1   -1    0    0    0  501 -0.00000000000E+00 -0.00000000000E+00 -0.16222759494E+03  0.16222759494E+03  0.00000000000E+00 0.  1.
         23    2    1    2    0    0  0.31582684320E+02 -0.66113242456E+02 -0.94023809101E+02  0.14989568280E+03  0.90883509327E+02 0.  0.
         23    2    1    2    0    0 -0.29778509739E+03 -0.64272007985E+02  0.15914514216E+04  0.16228408877E+04  0.89933665838E+02 0.  0.
        -11    1    4    4    0    0 -0.27140581031E+03 -0.37507442773E+02  0.14821083936E+04  0.15072203596E+04  0.00000000000E+00 0.  1.
         11    1    4    4    0    0 -0.26379287083E+02 -0.26764565212E+02  0.10934302805E+03  0.11562052811E+03  0.00000000000E+00 0. -1.
        -13    1    3    3    0    0 -0.34034665381E+01  0.21776767336E+02 -0.15371325538E+02  0.26871710569E+02  0.00000000000E+00 0. -1.
         13    1    3    3    0    0  0.34986150858E+02 -0.87890009792E+02 -0.78652483563E+02  0.12302397223E+03  0.00000000000E+00 0.  1.
         21    1    1    2  502  501  0.26620241307E+03  0.13038525044E+03  0.86933100342E+03  0.91847723530E+03  0.00000000000E+00 0. -1.
<scales pt_clust_5="13000.00000" pt_clust_6="13000.00000" pt_clust_7="13000.00000" pt_clust_8="13000.00000" pt_clust_9="299.33842"></scales>
<clustering>
<clus scale="   89.934">  5  6 -1 -1</clus>
<clus scale="   90.884">  7  8 -1 -1</clus>
<clus scale="  116.740">  2  7  1 -1</clus>
<clus scale="  299.338">  2  9  1 -1</clus>
<clus scale="  312.556">  1  5  2 -1</clus>
</clustering>
</event>
<event>
 9    1  0.1266593E-005  0.1663700E+03  0.7546771E-02  0.1187325E+00
          3   -1    0    0  502    0  0.00000000000E+00  0.00000000000E+00  0.22290539059E+03  0.22290539059E+03  0.00000000000E+00 0. -1.
         -3   -1    0    0    0  501 -0.00000000000E+00 -0.00000000000E+00 -0.39868872839E+03  0.39868872839E+03  0.00000000000E+00 0.  1.
         23    2    1    2    0    0  0.64722058949E+02 -0.47362851479E+02 -0.84407247063E+01  0.14484779092E+03  0.12032228424E+03 0.  0.
         23    2    1    2    0    0 -0.15707595566E+03 -0.50527558507E+02  0.72276172808E+02  0.20192104326E+03  0.91227038429E+02 0.  0.
        -11    1    3    3    0    0  0.90742077480E+02 -0.23362940827E+02  0.24115299755E+02  0.96754841284E+02  0.00000000000E+00 0.  1.
         11    1    3    3    0    0 -0.26020018532E+02 -0.23999910652E+02 -0.32556024462E+02  0.48092949634E+02  0.00000000000E+00 0. -1.
        -13    1    4    4    0    0 -0.96631726963E+02 -0.75551743947E+02  0.53811319396E+02  0.13394556642E+03  0.00000000000E+00 0.  1.
         13    1    4    4    0    0 -0.60444228699E+02  0.25024185440E+02  0.18464853412E+02  0.67975476839E+02  0.00000000000E+00 0. -1.
         21    1    1    2  502  501  0.92353896713E+02  0.97890409986E+02 -0.23961878591E+03  0.27482528480E+03  0.00000000000E+00 0.  1.
<scales pt_clust_5="13000.00000" pt_clust_6="13000.00000" pt_clust_7="13000.00000" pt_clust_8="13000.00000" pt_clust_9="134.57999"></scales>
<clustering>
<clus scale="   91.227">  7  8 -1 -1</clus>
<clus scale="  120.322">  5  6 -1 -1</clus>
<clus scale="  134.580">  2  9  1 -1</clus>
<clus scale="  146.710">  1  7  2 -1</clus>
<clus scale="  146.710">  1  5  2 -1</clus>
</clustering>
</event>
<event>
 9    1  0.1266593E-005  0.1260000E+03  0.7546771E-02  0.1241608E+00
          3   -1    0    0  502    0  0.00000000000E+00  0.00000000000E+00  0.12117850578E+03  0.12117850578E+03  0.00000000000E+00 0. -1.
         -3   -1    0    0    0  501 -0.00000000000E+00 -0.00000000000E+00 -0.26166348258E+03  0.26166348258E+03  0.00000000000E+00 0.  1.
         23    2    1    2    0    0 -0.29449860586E+01  0.54252615507E+02 -0.56215695561E+02  0.12071790657E+03  0.91981461759E+02 0.  0.
         23    2    1    2    0    0  0.61236923652E+02  0.38026689471E+02  0.68850028725E+01  0.11991816199E+03  0.95587511630E+02 0.  0.
        -11    1    4    4    0    0  0.52486097208E+02  0.61734581051E+02  0.29273290210E+02  0.86156104935E+02  0.00000000000E+00 0.  1.
         11    1    4    4    0    0  0.87508264437E+01 -0.23707891580E+02 -0.22388287338E+02  0.33762057054E+02  0.00000000000E+00 0. -1.
        -13    1    3    3    0    0 -0.43005923914E+02  0.20736643019E+02 -0.57508431777E+01  0.48089396468E+02  0.00000000000E+00 0. -1.
         13    1    3    3    0    0  0.40060937856E+02  0.33515972488E+02 -0.50464852384E+02  0.72628510103E+02  0.00000000000E+00 0.  1.
         21    1    1    2  502  501 -0.58291937593E+02 -0.92279304978E+02 -0.91154284108E+02  0.14220591980E+03  0.00000000000E+00 0. -1.
<scales pt_clust_5="13000.00000" pt_clust_6="13000.00000" pt_clust_7="13000.00000" pt_clust_8="13000.00000" pt_clust_9="82.09161"></scales>
<clustering>
<clus scale="   91.981">  7  8 -1 -1</clus>
<clus scale="   95.588">  5  6 -1 -1</clus>
<clus scale="  106.830">  2  7  1 -1</clus>
<clus scale="   82.092">  2  9  1 -1</clus>
<clus scale="  126.000">  1  5  2 -1</clus>
</clustering>
</event>
<event>
 9    1  0.1266593E-005  0.1297938E+03  0.7546771E-02  0.1227845E+00
          1   -1    0    0  502    0  0.00000000000E+00  0.00000000000E+00  0.27737314401E+03  0.27737314401E+03  0.00000000000E+00 0. -1.
         -1   -1    0    0    0  501 -0.00000000000E+00 -0.00000000000E+00 -0.14136949857E+03  0.14136949857E+03  0.00000000000E+00 0.  1.
         23    2    1    2    0    0 -0.10473843224E+03  0.81933654445E+02  0.44541840237E+02  0.16789818768E+03  0.92317728394E+02 0.  0.
         23    2    1    2    0    0  0.26302322655E+02 -0.73889754768E+02  0.11637817407E+03  0.16815374776E+03  0.92629884198E+02 0.  0.
        -13    1    4    4    0    0  0.31504171028E+01 -0.73003325004E+02  0.12385905835E+03  0.14380708232E+03  0.00000000000E+00 0. -1.
         13    1    4    4    0    0  0.23151905553E+02 -0.88642976417E+00 -0.74808842744E+01  0.24346665438E+02  0.00000000000E+00 0.  1.
        -13    1    3    3    0    0 -0.37713896073E+02  0.61770323099E+02 -0.17397612959E+02  0.74435124165E+02  0.00000000000E+00 0.  1.
         13    1    3    3    0    0 -0.67024536172E+02  0.20163331346E+02  0.61939453196E+02  0.93463063519E+02  0.00000000000E+00 0. -1.
         21    1    1    2  502  501  0.78436109589E+02 -0.80438996771E+01 -0.24916368872E+02  0.82690707140E+02  0.00000000000E+00 0.  1.
<scales pt_clust_5="13000.00000" pt_clust_6="13000.00000" pt_clust_7="13000.00000" pt_clust_8="13000.00000" pt_clust_9="78.84750"></scales>
<clustering>
<clus scale="   78.847">  2  9  1 -1</clus>
<clus scale="   92.318">  7  8 -1 -1</clus>
<clus scale="   92.630">  5  6 -1 -1</clus>
<clus scale="  129.571">  2  7  1 -1</clus>
<clus scale="  129.794">  1  5  2 -1</clus>
</clustering>
</event>
<event>
 9    1  0.1266593E-005  0.1094637E+03  0.7546771E-02  0.1262076E+00
         -2   -1    0    0    0  501 -0.00000000000E+00  0.00000000000E+00  0.33904934357E+02  0.33904934357E+02  0.00000000000E+00 0.  1.
          2   -1    0    0  502    0  0.00000000000E+00 -0.00000000000E+00 -0.48646395687E+03  0.48646395687E+03  0.00000000000E+00 0. -1.
         23    2    1    2    0    0  0.31096623378E+00 -0.56806852833E+02 -0.16816530006E+03  0.19985272254E+03  0.91839138360E+02 0.  0.
         23    2    1    2    0    0  0.32320892007E+02  0.52923141272E+02 -0.24412529589E+03  0.26854052472E+03  0.93120107288E+02 0.  0.
        -11    1    3    3    0    0  0.26432262405E+02  0.13646500309E+02 -0.28179300728E+02  0.40975168774E+02  0.00000000000E+00 0.  1.
         11    1    3    3    0    0 -0.26121296171E+02 -0.70453353142E+02 -0.13998599933E+03  0.15887755377E+03  0.00000000000E+00 0. -1.
        -11    1    4    4    0    0  0.55902594173E+02  0.48943879426E+01 -0.15167806837E+03  0.16172597655E+03  0.00000000000E+00 0.  1.
         11    1    4    4    0    0 -0.23581702166E+02  0.48028753329E+02 -0.92447227525E+02  0.10681454817E+03  0.00000000000E+00 0. -1.
         21    1    1    2  502  501 -0.32631858241E+02  0.38837115609E+01 -0.40268426569E+02  0.51975643970E+02  0.00000000000E+00 0. -1.
<scales pt_clust_5="13000.00000" pt_clust_6="13000.00000" pt_clust_7="13000.00000" pt_clust_8="13000.00000" pt_clust_9="32.86216"></scales>
<clustering>
<clus scale="   32.862">  1  9  2 -1</clus>
<clus scale="   91.839">  5  6 -1 -1</clus>
<clus scale="   93.120">  7  8 -1 -1</clus>
<clus scale="  108.376">  1  5  2 -1</clus>
<clus scale="  109.464">  2  5  1 -1</clus>
</clustering>
</event>
<event>
 9    1  0.1266593E-005  0.9743973E+02  0.7546771E-02  0.1286328E+00
          2   -1    0    0  502    0  0.00000000000E+00  0.00000000000E+00  0.12759344324E+03  0.12759344324E+03  0.00000000000E+00 0. -1.
         -2   -1    0    0    0  501 -0.00000000000E+00 -0.00000000000E+00 -0.16531908043E+03  0.16531908043E+03  0.00000000000E+00 0.  1.
         23    2    1    2    0    0 -0.25353400032E+02 -0.14005555351E+02 -0.11791671783E+02  0.96919383148E+02  0.91735341241E+02 0.  0.
         23    2    1    2    0    0  0.14714695425E-01  0.36282135976E+02  0.51039171478E+02  0.11195053929E+03  0.92798343816E+02 0.  0.
        -11    1    3    3    0    0 -0.67516784718E+00  0.35263055943E+02 -0.21005371418E+02  0.41050756321E+02  0.00000000000E+00 0.  1.
         11    1    3    3    0    0 -0.24678232185E+02 -0.49268611294E+02  0.92136996356E+01  0.55868626828E+02  0.00000000000E+00 0. -1.
        -13    1    4    4    0    0  0.44927150939E+02  0.25334279089E+02  0.16190948467E+02  0.54059424717E+02  0.00000000000E+00 0.  1.
         13    1    4    4    0    0 -0.44912436243E+02  0.10947856887E+02  0.34848223011E+02  0.57891114575E+02  0.00000000000E+00 0. -1.
         21    1    1    2  502  501  0.25338685337E+02 -0.22276580624E+02 -0.76973136884E+02  0.84042601225E+02  0.00000000000E+00 0.  1.
<scales pt_clust_5="13000.00000" pt_clust_6="13000.00000" pt_clust_7="13000.00000" pt_clust_8="13000.00000" pt_clust_9="33.73863"></scales>
<clustering>
<clus scale="   33.739">  2  9  1 -1</clus>
<clus scale="   91.735">  5  6 -1 -1</clus>
<clus scale="   92.798">  7  8 -1 -1</clus>
<clus scale="   96.428">  2  5  1 -1</clus>
<clus scale="   97.440">  1  5  2 -1</clus>
</clustering>
</event>
<event>
 9    1  0.1266593E-005  0.9757504E+02  0.7546771E-02  0.1286491E+00
         -1   -1    0    0    0  501 -0.00000000000E+00  0.00000000000E+00  0.40831450843E+03  0.40831450843E+03  0.00000000000E+00 0.  1.
          1   -1    0    0  502    0  0.00000000000E+00 -0.00000000000E+00 -0.31103890010E+02  0.31103890010E+02  0.00000000000E+00 0. -1.
         23    2    1    2    0    0 -0.14160246462E+02 -0.20200932843E+02  0.20798801862E+03  0.22742437001E+03  0.88624138470E+02 0.  0.
         23    2    1    2    0    0  0.14371635920E+02  0.40964597826E+02  0.10876630233E+03  0.14807111882E+03  0.90610736179E+02 0.  0.
        -11    1    4    4    0    0  0.10208522049E+02  0.70184380435E+02  0.74986728017E+02  0.10321371303E+03  0.00000000000E+00 0.  1.
         11    1    4    4    0    0  0.41631138711E+01 -0.29219782609E+02  0.33779574313E+02  0.44857405783E+02  0.00000000000E+00 0. -1.
        -11    1    3    3    0    0 -0.38542384942E+02  0.36592109371E+01  0.17749487117E+03  0.18166819907E+03  0.00000000000E+00 0.  1.
         11    1    3    3    0    0  0.24382138480E+02 -0.23860143780E+02  0.30493147447E+02  0.45756170942E+02  0.00000000000E+00 0. -1.
         21    1    1    2  502  501 -0.21138945781E+00 -0.20763664983E+02  0.60456297474E+02  0.63922909612E+02  0.00000000000E+00 0. -1.
<scales pt_clust_5="13000.00000" pt_clust_6="13000.00000" pt_clust_7="13000.00000" pt_clust_8="13000.00000" pt_clust_9="20.76474"></scales>
<clustering>
<clus scale="   20.765">  1  9  2 -1</clus>
<clus scale="   88.624">  7  8 -1 -1</clus>
<clus scale="   90.611">  5  6 -1 -1</clus>
<clus scale="   95.733">  1  7  2 -1</clus>
<clus scale="   97.575">  2  5  1 -1</clus>
</clustering>
</event>
<event>
 9    1  0.1266593E-005  0.9406697E+02  0.7546771E-02  0.1299380E+00
         -2   -1    0    0    0  501 -0.00000000000E+00  0.00000000000E+00  0.83927921344E+02  0.83927921344E+02  0.00000000000E+00 0.  1.
          2   -1    0    0  502    0  0.00000000000E+00 -0.00000000000E+00 -0.20640940556E+03  0.20640940556E+03  0.00000000000E+00 0. -1.
         23    2    1    2    0    0 -0.12960296492E+02 -0.27361542079E+00  0.17320240346E+02  0.86611624168E+02  0.83866194410E+02 0.  0.
         23    2    1    2    0    0 -0.76912907411E+01 -0.49152887188E+01 -0.15220337678E+03  0.17908399503E+03  0.93924934686E+02 0.  0.
        -11    1    4    4    0    0 -0.93559464274E+01  0.34834391576E+02 -0.12691915550E+03  0.13194483925E+03  0.00000000000E+00 0. -1.
         11    1    4    4    0    0  0.16646556863E+01 -0.39749680295E+02 -0.25284221271E+02  0.47139155778E+02  0.00000000000E+00 0.  1.
        -13    1    3    3    0    0 -0.24419062583E+02 -0.19993166235E+02  0.42306682566E+02  0.52781367008E+02  0.00000000000E+00 0.  1.
         13    1    3    3    0    0  0.11458766091E+02  0.19719550814E+02 -0.24986442220E+02  0.33830257159E+02  0.00000000000E+00 0. -1.
         21    1    1    2  502  501  0.20651587233E+02  0.51889041396E+01  0.12401652213E+02  0.24641707713E+02  0.00000000000E+00 0. -1.
<scales pt_clust_5="13000.00000" pt_clust_6="13000.00000" pt_clust_7="13000.00000" pt_clust_8="13000.00000" pt_clust_9="21.29349"></scales>
<clustering>
<clus scale="   21.293">  1  9  2 -1</clus>
<clus scale="   83.866">  7  8 -1 -1</clus>
<clus scale="   84.025">  1  7  2 -1</clus>
<clus scale="   93.925">  5  6 -1 -1</clus>
<clus scale="   94.067">  2  5  1 -1</clus>
</clustering>
</event>
<event>
 9    1  0.1266593E-005  0.1234077E+03  0.7546771E-02  0.1239060E+00
         -1   -1    0    0    0  501 -0.00000000000E+00  0.00000000000E+00  0.25244432754E+03  0.25244432754E+03  0.00000000000E+00 0.  1.
          1   -1    0    0  502    0  0.00000000000E+00 -0.00000000000E+00 -0.16033869965E+03  0.16033869965E+03  0.00000000000E+00 0. -1.
         23    2    1    2    0    0 -0.56987787000E+02 -0.31678408270E+02  0.73113133011E+02  0.13413599400E+03  0.91628626808E+02 0.  0.
         23    2    1    2    0    0  0.62634700245E+02  0.51119367869E+02 -0.98284521353E+02  0.15963553343E+03  0.96370954899E+02 0.  0.
        -13    1    4    4    0    0  0.31867973809E+02 -0.21324926439E+02 -0.67823020526E+01  0.38939952022E+02  0.00000000000E+00 0.  1.
         13    1    4    4    0    0  0.30766726436E+02  0.72444294308E+02 -0.91502219301E+02  0.12069558140E+03  0.00000000000E+00 0. -1.
        -13    1    3    3    0    0 -0.13159514135E+02  0.17111074354E+02 -0.13525315777E+02  0.25473434096E+02  0.00000000000E+00 0. -1.
         13    1    3    3    0    0 -0.43828272865E+02 -0.48789482624E+02  0.86638448788E+02  0.10866255991E+03  0.00000000000E+00 0.  1.
         21    1    1    2  502  501 -0.56469132451E+01 -0.19440959599E+02  0.11727701623E+03  0.11901149976E+03  0.00000000000E+00 0.  1.
<scales pt_clust_5="13000.00000" pt_clust_6="13000.00000" pt_clust_7="13000.00000" pt_clust_8="13000.00000" pt_clust_9="20.24447"></scales>
<clustering>
<clus scale="   20.244">  1  9  2 -1</clus>
<clus scale="   91.629">  7  8 -1 -1</clus>
<clus scale="   96.371">  5  6 -1 -1</clus>
<clus scale="  119.741">  1  7  2 -1</clus>
<clus scale="  123.408">  2  5  1 -1</clus>
</clustering>
</event>
<event>
 9    1  0.1266593E-005  0.1279572E+03  0.7546771E-02  0.1230607E+00
         -2   -1    0    0    0  501 -0.00000000000E+00  0.00000000000E+00  0.12270020597E+03  0.12270020597E+03  0.00000000000E+00 0.  1.
          2   -1    0    0  502    0  0.00000000000E+00 -0.00000000000E+00 -0.45404083514E+03  0.45404083514E+03  0.00000000000E+00 0. -1.
         23    2    1    2    0    0 -0.88596629453E+02 -0.11992939642E+03 -0.11598994087E+02  0.17447511976E+03  0.89858821914E+02 0.  0.
         23    2    1    2    0    0  0.81960985099E+02  0.22564104130E+02 -0.25950156844E+03  0.28757983873E+03  0.90190674392E+02 0.  0.
        -11    1    3    3    0    0 -0.23353725840E+02 -0.38834513908E+02  0.38037010326E+02  0.59163587920E+02  0.00000000000E+00 0.  1.
         11    1    3    3    0    0 -0.65242903613E+02 -0.81094882510E+02 -0.49636004412E+02  0.11531153184E+03  0.00000000000E+00 0. -1.
        -11    1    4    4    0    0  0.31406986238E+02 -0.21082874277E+02 -0.17912479298E+03  0.18307533377E+03  0.00000000000E+00 0. -1.
         11    1    4    4    0    0  0.50553998861E+02  0.43646978407E+02 -0.80376775460E+02  0.10450450497E+03  0.00000000000E+00 0.  1.
         21    1    1    2  502  501  0.66356443534E+01  0.97365292288E+02 -0.60240066631E+02  0.11468608262E+03  0.00000000000E+00 0. -1.
<scales pt_clust_5="13000.00000" pt_clust_6="13000.00000" pt_clust_7="13000.00000" pt_clust_8="13000.00000" pt_clust_9="97.59115"></scales>
<clustering>
<clus scale="   89.859">  5  6 -1 -1</clus>
<clus scale="   90.191">  7  8 -1 -1</clus>
<clus scale="   97.591">  1  9  2 -1</clus>
<clus scale="  127.724">  1  5  2 -1</clus>
<clus scale="  127.957">  2  5  1 -1</clus>
</clustering>
</event>
<event>
 9    1  0.1266593E-005  0.1391977E+03  0.7546771E-02  0.1224255E+00
          1   -1    0    0  502    0  0.00000000000E+00  0.00000000000E+00  0.19147751533E+03  0.19147751533E+03  0.00000000000E+00 0. -1.
         -1   -1    0    0    0  501 -0.00000000000E+00 -0.00000000000E+00 -0.35968676898E+03  0.35968676898E+03  0.00000000000E+00 0.  1.
         23    2    1    2    0    0 -0.28044169873E+02 -0.72648593021E+02  0.35991620964E+02  0.14593528454E+03  0.11805683785E+03 0.  0.
         23    2    1    2    0    0  0.62739086867E+02  0.43557439272E+02  0.65151103551E+02  0.13209804101E+03  0.85859085765E+02 0.  0.
        -11    1    4    4    0    0  0.34340242231E+02 -0.15624381676E+02  0.53444783610E+02  0.65419556972E+02  0.00000000000E+00 0. -1.
         11    1    4    4    0    0  0.28398844636E+02  0.59181820947E+02  0.11706319941E+02  0.66678484040E+02  0.00000000000E+00 0.  1.
        -13    1    3    3    0    0 -0.13574399685E+02 -0.10504087305E+03  0.28380280468E+02  0.10965076223E+03  0.00000000000E+00 0. -1.
         13    1    3    3    0    0 -0.14469770188E+02  0.32392280033E+02  0.76113404954E+01  0.36284522309E+02  0.00000000000E+00 0.  1.
         21    1    1    2  502  501 -0.34694916994E+02  0.29091153750E+02 -0.26935197816E+03  0.27313095876E+03  0.00000000000E+00 0.  1.
<scales pt_clust_5="13000.00000" pt_clust_6="13000.00000" pt_clust_7="13000.00000" pt_clust_8="13000.00000" pt_clust_9="45.27728"></scales>
<clustering>
<clus scale="   45.277">  2  9  1 -1</clus>
<clus scale="   85.859">  5  6 -1 -1</clus>
<clus scale="  113.183">  1  5  2 -1</clus>
<clus scale="  118.057">  7  8 -1 -1</clus>
<clus scale="  113.183">  1  5  2 -1</clus>
</clustering>
</event>
<event>
 9    1  0.1266593E-005  0.1048856E+03  0.7546771E-02  0.1271217E+00
          1   -1    0    0  502    0  0.00000000000E+00  0.00000000000E+00  0.55413784250E+02  0.55413784250E+02  0.00000000000E+00 0. -1.
         -1   -1    0    0    0  501 -0.00000000000E+00 -0.00000000000E+00 -0.32787891721E+03  0.32787891721E+03  0.00000000000E+00 0.  1.
         23    2    1    2    0    0 -0.55532720288E+02  0.25872179128E+02 -0.12485607487E+03  0.16664005856E+03  0.91796606731E+02 0.  0.
         23    2    1    2    0    0  0.45746654269E+02 -0.58631058397E+01 -0.43035229715E+02  0.10973297361E+03  0.89789543453E+02 0.  0.
        -11    1    4    4    0    0 -0.26863669875E+02  0.26548400459E+01 -0.54887703106E+01  0.27546897001E+02  0.00000000000E+00 0.  1.
         11    1    4    4    0    0  0.72610324144E+02 -0.85179458856E+01 -0.37546459405E+02  0.82186076608E+02  0.00000000000E+00 0. -1.
        -13    1    3    3    0    0  0.15283573354E+01  0.34690072025E+02 -0.70308488458E+01  0.35428375756E+02  0.00000000000E+00 0. -1.
         13    1    3    3    0    0 -0.57061077623E+02 -0.88178928974E+01 -0.11782522603E+03  0.13121168280E+03  0.00000000000E+00 0.  1.
         21    1    1    2  502  501  0.97860660192E+01 -0.20009073288E+02 -0.10457382837E+03  0.10691966929E+03  0.00000000000E+00 0. -1.
<scales pt_clust_5="13000.00000" pt_clust_6="13000.00000" pt_clust_7="13000.00000" pt_clust_8="13000.00000" pt_clust_9="22.27398"></scales>
<clustering>
<clus scale="   22.274">  2  9  1 -1</clus>
<clus scale="   89.790">  5  6 -1 -1</clus>
<clus scale="   91.797">  7  8 -1 -1</clus>
<clus scale="  103.134">  1  5  2 -1</clus>
<clus scale="  103.134">  1  5  2 -1</clus>
</clustering>
</event>
<event>
 9    1  0.1266593E-005  0.1177343E+03  0.7546771E-02  0.1247503E+00
          2   -1    0    0  502    0  0.00000000000E+00  0.00000000000E+00  0.47903731408E+03  0.47903731408E+03  0.00000000000E+00 0. -1.
         -2   -1    0    0    0  501 -0.00000000000E+00 -0.00000000000E+00 -0.37885678112E+02  0.37885678112E+02  0.00000000000E+00 0.  1.
         23    2    1    2    0    0  0.55339781742E+02  0.25725142182E+02  0.16608481920E+03  0.19858321415E+03  0.90149050964E+02 0.  0.
         23    2    1    2    0    0 -0.77396637020E+02 -0.32844650137E+02  0.26542553201E+03  0.29323705648E+03  0.92023082887E+02 0.  0.
        -11    1    4    4    0    0  0.26476677156E+01  0.24035344216E+02  0.32924125738E+02  0.40849797693E+02  0.00000000000E+00 0.  1.
         11    1    4    4    0    0 -0.80044304736E+02 -0.56879994353E+02  0.23250140627E+03  0.25238725879E+03  0.00000000000E+00 0. -1.
        -13    1    3    3    0    0  0.79038466534E+02  0.28417924134E+02  0.13979054105E+03  0.16308296346E+03  0.00000000000E+00 0.  1.
         13    1    3    3    0    0 -0.23698684793E+02 -0.26927819519E+01  0.26294278153E+02  0.35500250691E+02  0.00000000000E+00 0. -1.
         21    1    1    2  502  501  0.22056855279E+02  0.71195079549E+01  0.96412847596E+01  0.25102721568E+02  0.00000000000E+00 0.  1.
<scales pt_clust_5="13000.00000" pt_clust_6="13000.00000" pt_clust_7="13000.00000" pt_clust_8="13000.00000" pt_clust_9="23.17741"></scales>
<clustering>
<clus scale="   23.177">  2  9  1 -1</clus>
<clus scale="   90.149">  7  8 -1 -1</clus>
<clus scale="   92.023">  5  6 -1 -1</clus>
<clus scale="  116.275">  2  7  1 -1</clus>
<clus scale="  117.734">  1  5  2 -1</clus>
</clustering>
</event>
<event>
 9    1  0.1266593E-005  0.1317563E+03  0.7546771E-02  0.1226643E+00
          1   -1    0    0  502    0  0.00000000000E+00  0.00000000000E+00  0.14372516822E+03  0.14372516822E+03  0.00000000000E+00 0. -1.
         -1   -1    0    0    0  501 -0.00000000000E+00 -0.00000000000E+00 -0.25517408304E+03  0.25517408304E+03  0.00000000000E+00 0.  1.
         23    2    1    2    0    0 -0.56797304613E+01 -0.47789504108E+02 -0.35207370321E+02  0.11456417450E+03  0.97822774002E+02 0.  0.
         23    2    1    2    0    0  0.44628744860E+02  0.11629210285E+03  0.24563433748E+02  0.15638479189E+03  0.91308612972E+02 0.  0.
        -11    1    3    3    0    0 -0.28661701256E+02  0.16937292321E+02  0.68990221911E+01  0.33999433778E+02  0.00000000000E+00 0.  1.
         11    1    3    3    0    0  0.22981970795E+02 -0.64726796429E+02 -0.42106392512E+02  0.80564740724E+02  0.00000000000E+00 0. -1.
        -11    1    4    4    0    0  0.26826952390E+02  0.36904576140E+02  0.53244389273E+02  0.70118457653E+02  0.00000000000E+00 0. -1.
         11    1    4    4    0    0  0.17801792470E+02  0.79387526710E+02 -0.28680955525E+02  0.86266334233E+02  0.00000000000E+00 0.  1.
         21    1    1    2  502  501 -0.38949014399E+02 -0.68502598742E+02 -0.10080497825E+03  0.12795028487E+03  0.00000000000E+00 0.  1.
<scales pt_clust_5="13000.00000" pt_clust_6="13000.00000" pt_clust_7="13000.00000" pt_clust_8="13000.00000" pt_clust_9="78.80122"></scales>
<clustering>
<clus scale="   78.801">  2  9  1 -1</clus>
<clus scale="   91.309">  7  8 -1 -1</clus>
<clus scale="   97.823">  5  6 -1 -1</clus>
<clus scale="  126.995">  1  7  2 -1</clus>
<clus scale="  126.995">  1  5  2 -1</clus>
</clustering>
</event>
<event>
 9    1  0.1266593E-005  0.9924778E+02  0.7546771E-02  0.1282857E+00
          1   -1    0    0  502    0  0.00000000000E+00  0.00000000000E+00  0.21389347557E+03  0.21389347557E+03  0.00000000000E+00 0. -1.
         -1   -1    0    0    0  501 -0.00000000000E+00 -0.00000000000E+00 -0.12750309054E+03  0.12750309054E+03  0.00000000000E+00 0.  1.
         23    2    1    2    0    0 -0.24144006478E+02 -0.42622213309E+02  0.61115322407E+02  0.12039701274E+03  0.91437256779E+02 0.  0.
         23    2    1    2    0    0  0.56738273326E+01  0.32485697773E+02  0.10306404364E+03  0.14040785385E+03  0.89468740096E+02 0.  0.
        -13    1    4    4    0    0 -0.33181319992E+01  0.63059719583E+02  0.73946995466E+02  0.97240405039E+02  0.00000000000E+00 0.  1.
         13    1    4    4    0    0  0.89919593319E+01 -0.30574021810E+02  0.29117048177E+02  0.43167448810E+02  0.00000000000E+00 0. -1.
        -13    1    3    3    0    0 -0.54199339572E+02 -0.48696467786E+02  0.39492941395E+02  0.82877058375E+02  0.00000000000E+00 0.  1.
         13    1    3    3    0    0  0.30055333094E+02  0.60742544769E+01  0.21622381012E+02  0.37519954363E+02  0.00000000000E+00 0. -1.
         21    1    1    2  502  501  0.18470179146E+02  0.10136515536E+02 -0.77788981012E+02  0.80591699522E+02  0.00000000000E+00 0.  1.
<scales pt_clust_5="13000.00000" pt_clust_6="13000.00000" pt_clust_7="13000.00000" pt_clust_8="13000.00000" pt_clust_9="21.06885"></scales>
<clustering>
<clus scale="   21.069">  2  9  1 -1</clus>
<clus scale="   89.469">  5  6 -1 -1</clus>
<clus scale="   91.437">  7  8 -1 -1</clus>
<clus scale="   97.437">  1  5  2 -1</clus>
<clus scale="   97.437">  1  5  2 -1</clus>
</clustering>
</event>
<event>
 9    1  0.1266593E-005  0.1419660E+03  0.7546771E-02  0.1228995E+00
         -1   -1    0    0    0  501 -0.00000000000E+00  0.00000000000E+00  0.12583140270E+03  0.12583140270E+03  0.00000000000E+00 0.  1.
          1   -1    0    0  502    0  0.00000000000E+00 -0.00000000000E+00 -0.35689160930E+03  0.35689160930E+03  0.00000000000E+00 0. -1.
         23    2    1    2    0    0  0.53169044193E+02 -0.12394400605E+03 -0.14369853540E+03  0.21684159637E+03  0.90454104076E+02 0.  0.
         23    2    1    2    0    0 -0.17304869680E+02  0.26146598175E+02 -0.12239864251E+03  0.15598072702E+03  0.91462868969E+02 0.  0.
        -11    1    3    3    0    0  0.28505652747E+02 -0.53510889535E+01 -0.68194804880E+02  0.74106260223E+02  0.00000000000E+00 0.  1.
         11    1    3    3    0    0  0.24663391446E+02 -0.11859291709E+03 -0.75503730517E+02  0.14273533614E+03  0.00000000000E+00 0. -1.
        -13    1    4    4    0    0 -0.32341773817E+02  0.55098100779E+02 -0.85397222396E+02  0.10665119144E+03  0.00000000000E+00 0.  1.
         13    1    4    4    0    0  0.15036904138E+02 -0.28951502604E+02 -0.37001420118E+02  0.49329535573E+02  0.00000000000E+00 0. -1.
         21    1    1    2  502  501 -0.35864174513E+02  0.97797407871E+02  0.35036971313E+02  0.10990068862E+03  0.00000000000E+00 0.  1.
<scales pt_clust_5="13000.00000" pt_clust_6="13000.00000" pt_clust_7="13000.00000" pt_clust_8="13000.00000" pt_clust_9="109.41840"></scales>
<clustering>
<clus scale="   90.454">  5  6 -1 -1</clus>
<clus scale="   91.463">  7  8 -1 -1</clus>
<clus scale="   96.688">  2  7  1 -1</clus>
<clus scale="  109.418">  1  9  2 -1</clus>
<clus scale="   96.688">  2  5  1 -1</clus>
</clustering>
</event>
<event>
 9    1  0.1266593E-005  0.9598042E+02  0.7546771E-02  0.1289710E+00
          1   -1    0    0  502    0  0.00000000000E+00  0.00000000000E+00  0.35001462260E+03  0.35001462260E+03  0.00000000000E+00 0. -1.
         -1   -1    0    0    0  501 -0.00000000000E+00 -0.00000000000E+00 -0.89725226601E+02  0.89725226601E+02  0.00000000000E+00 0.  1.
         23    2    1    2    0    0 -0.68338510879E+01 -0.70450597460E+01  0.41864742919E+02  0.10039146306E+03  0.90716342347E+02 0.  0.
         23    2    1    2    0    0  0.17483729796E+02 -0.31756260261E+02  0.26198482233E+03  0.28004871753E+03  0.92071147434E+02 0.  0.
        -11    1    3    3    0    0  0.39222784288E+02  0.83126361318E+01  0.71971421004E+01  0.40734820254E+02  0.00000000000E+00 0. -1.
         11    1    3    3    0    0 -0.46056635375E+02 -0.15357695878E+02  0.34667600819E+02  0.59656642810E+02  0.00000000000E+00 0.  1.
        -13    1    4    4    0    0  0.25382421288E+02 -0.57886484393E+02  0.22721854737E+03  0.23584609528E+03  0.00000000000E+00 0. -1.
         13    1    4    4    0    0 -0.78986914915E+01  0.26130224132E+02  0.34766274952E+02  0.44202622259E+02  0.00000000000E+00 0.  1.
         21    1    1    2  502  501 -0.10649878708E+02  0.38801320007E+02 -0.43560169251E+02  0.59299668599E+02  0.00000000000E+00 0.  1.
<scales pt_clust_5="13000.00000" pt_clust_6="13000.00000" pt_clust_7="13000.00000" pt_clust_8="13000.00000" pt_clust_9="40.23633"></scales>
<clustering>
<clus scale="   40.236">  2  9  1 -1</clus>
<clus scale="   90.716">  5  6 -1 -1</clus>
<clus scale="   92.071">  7  8 -1 -1</clus>
<clus scale="   94.682">  2  5  1 -1</clus>
<clus scale="   95.980">  1  5  2 -1</clus>
</clustering>
</event>
<event>
 9    1  0.1266593E-005  0.1106600E+03  0.7546771E-02  0.1259853E+00
          1   -1    0    0  502    0  0.00000000000E+00  0.00000000000E+00  0.30462786620E+03  0.30462786620E+03  0.00000000000E+00 0. -1.
         -1   -1    0    0    0  501 -0.00000000000E+00 -0.00000000000E+00 -0.17415860224E+03  0.17415860224E+03  0.00000000000E+00 0.  1.
         23    2    1    2    0    0  0.36790543198E+02  0.20672200822E+02  0.43001333111E+02  0.10862232221E+03  0.90381470875E+02 0.  0.
         23    2    1    2    0    0 -0.38967219456E+02 -0.61727676215E+02  0.21023417958E+03  0.24069661437E+03  0.91693509602E+02 0.  0.
        -13    1    4    4    0    0 -0.58859748914E+00  0.23567897381E+02  0.38532719666E+02  0.45172588135E+02  0.00000000000E+00 0.  1.
         13    1    4    4    0    0 -0.38378621967E+02 -0.85295573596E+02  0.17170145991E+03  0.19552402624E+03  0.00000000000E+00 0. -1.
        -13    1    3    3    0    0  0.31242516973E+02 -0.32969769824E+02  0.24507626772E+02  0.51611281315E+02  0.00000000000E+00 0. -1.
         13    1    3    3    0    0  0.55480262253E+01  0.53641970646E+02  0.18493706339E+02  0.57011040895E+02  0.00000000000E+00 0.  1.
         21    1    1    2  502  501  0.21766762579E+01  0.41055475393E+02 -0.12276624872E+03  0.12946753186E+03  0.00000000000E+00 0.  1.
<scales pt_clust_5="13000.00000" pt_clust_6="13000.00000" pt_clust_7="13000.00000" pt_clust_8="13000.00000" pt_clust_9="41.11314"></scales>
<clustering>
<clus scale="   41.113">  2  9  1 -1</clus>
<clus scale="   90.381">  7  8 -1 -1</clus>
<clus scale="   91.694">  5  6 -1 -1</clus>
<clus scale="  109.575">  2  7  1 -1</clus>
<clus scale="  110.660">  1  5  2 -1</clus>
</clustering>
</event>
<event>
 9    1  0.1266593E-005  0.9972128E+02  0.7546771E-02  0.1281898E+00
         -1   -1    0    0    0  501 -0.00000000000E+00  0.00000000000E+00  0.28781244652E+03  0.28781244652E+03  0.00000000000E+00 0.  1.
          1   -1    0    0  502    0  0.00000000000E+00 -0.00000000000E+00 -0.11950057312E+03  0.11950057312E+03  0.00000000000E+00 0. -1.
         23    2    1    2    0    0  0.14557152285E+01  0.32955187608E+02  0.22214091772E+03  0.24208873581E+03  0.90400249890E+02 0.  0.
         23    2    1    2    0    0 -0.13132728920E+02 -0.68394281457E+02 -0.25894363879E+02  0.11861282180E+03  0.92456676938E+02 0.  0.
        -11    1    4    4    0    0  0.28763549635E+02 -0.89513399861E+01 -0.34015373667E+02  0.45436922441E+02  0.00000000000E+00 0. -1.
         11    1    4    4    0    0 -0.41896278555E+02 -0.59442941471E+02  0.81210097884E+01  0.73175899363E+02  0.00000000000E+00 0.  1.
        -13    1    3    3    0    0 -0.13093592489E+01 -0.29020481073E+02  0.11170916280E+03  0.11542460655E+03  0.00000000000E+00 0. -1.
         13    1    3    3    0    0  0.27650744773E+01  0.61975668681E+02  0.11043175492E+03  0.12666412926E+03  0.00000000000E+00 0.  1.
         21    1    1    2  502  501  0.11677013692E+02  0.35439093849E+02 -0.27934680443E+02  0.46611462035E+02  0.00000000000E+00 0.  1.
<scales pt_clust_5="13000.00000" pt_clust_6="13000.00000" pt_clust_7="13000.00000" pt_clust_8="13000.00000" pt_clust_9="37.31330"></scales>
<clustering>
<clus scale="   37.313">  2  9  1 -1</clus>
<clus scale="   90.400">  7  8 -1 -1</clus>
<clus scale="   92.457">  5  6 -1 -1</clus>
<clus scale="   97.818">  1  7  2 -1</clus>
<clus scale="   37.313">  2  5  1 -1</clus>
</clustering>
</event>
<event>
 9    1  0.1266593E-005  0.9915941E+02  0.7546771E-02  0.1283107E+00
          1   -1    0    0  502    0  0.00000000000E+00  0.00000000000E+00  0.19634720062E+03  0.19634720062E+03  0.00000000000E+00 0. -1.
         -1   -1    0    0    0  501 -0.00000000000E+00 -0.00000000000E+00 -0.17505042168E+03  0.17505042168E+03  0.00000000000E+00 0.  1.
         23    2    1    2    0    0 -0.56067315565E+02 -0.36545507182E+02 -0.10479679269E+03  0.15473532060E+03  0.92095242611E+02 0.  0.
         23    2    1    2    0    0  0.32406525322E+02  0.92130427352E+01  0.14644840290E+03  0.17517476425E+03  0.90022221037E+02 0.  0.
        -11    1    3    3    0    0 -0.18948818751E+02  0.22648836418E+02 -0.91692231186E+00  0.29544344123E+02  0.00000000000E+00 0. -1.
         11    1    3    3    0    0 -0.37118496815E+02 -0.59194343600E+02 -0.10387987038E+03  0.12519097648E+03  0.00000000000E+00 0.  1.
        -11    1    4    4    0    0  0.43260468297E+02  0.41901942829E+02  0.77970002409E+02  0.98521886938E+02  0.00000000000E+00 0. -1.
         11    1    4    4    0    0 -0.10853942975E+02 -0.32688900094E+02  0.68478400487E+02  0.76652877316E+02  0.00000000000E+00 0.  1.
         21    1    1    2  502  501  0.23660790243E+02  0.27332464446E+02 -0.20354831260E+02  0.41487537445E+02  0.00000000000E+00 0. -1.
<scales pt_clust_5="13000.00000" pt_clust_6="13000.00000" pt_clust_7="13000.00000" pt_clust_8="13000.00000" pt_clust_9="36.15102"></scales>
<clustering>
<clus scale="   36.151">  2  9  1 -1</clus>
<clus scale="   90.022">  7  8 -1 -1</clus>
<clus scale="   92.095">  5  6 -1 -1</clus>
<clus scale="   97.237">  1  7  2 -1</clus>
<clus scale="   97.237">  1  5  2 -1</clus>
</clustering>
</event>
<event>
 9    1  0.1266593E-005  0.1839359E+03  0.7546771E-02  0.1165028E+00
         -2   -1    0    0    0  501 -0.00000000000E+00  0.00000000000E+00  0.13922192211E+03  0.13922192211E+03  0.00000000000E+00 0.  1.
          2   -1    0    0  502    0  0.00000000000E+00 -0.00000000000E+00 -0.57576211524E+03  0.57576211524E+03  0.00000000000E+00 0. -1.
         23    2    1    2    0    0  0.10063648498E+03  0.89858060817E+02 -0.42361295436E+02  0.16478133478E+03  0.84594537284E+02 0.  0.
         23    2    1    2    0    0 -0.13538764746E+03 -0.96796521353E+02 -0.44735948019E+03  0.48629683521E+03  0.93030778748E+02 0.  0.
        -11    1    4    4    0    0 -0.30954655604E+02 -0.25751640943E+02 -0.29915276214E+02  0.50162351079E+02  0.00000000000E+00 0.  1.
         11    1    4    4    0    0 -0.10443299186E+03 -0.71044880411E+02 -0.41744420397E+03  0.43613448413E+03  0.00000000000E+00 0. -1.
        -13    1    3    3    0    0  0.28630991000E+02 -0.13893668529E+02 -0.82066116295E+00  0.31834590552E+02  0.00000000000E+00 0. -1.
         13    1    3    3    0    0  0.72005493984E+02  0.10375172935E+03 -0.41540634273E+02  0.13294674423E+03  0.00000000000E+00 0.  1.
         21    1    1    2  502  501  0.34751162479E+02  0.69384605364E+01  0.53180582490E+02  0.63905867354E+02  0.00000000000E+00 0.  1.
<scales pt_clust_5="13000.00000" pt_clust_6="13000.00000" pt_clust_7="13000.00000" pt_clust_8="13000.00000" pt_clust_9="35.43706"></scales>
<clustering>
<clus scale="   35.437">  1  9  2 -1</clus>
<clus scale="   84.595">  7  8 -1 -1</clus>
<clus scale="   93.031">  5  6 -1 -1</clus>
<clus scale="  179.816">  1  7  2 -1</clus>
<clus scale="  183.936">  2  5  1 -1</clus>
</clustering>
</event>
<event>
 9    1  0.1266593E-005  0.1093588E+03  0.7546771E-02  0.1262423E+00
         -1   -1    0    0    0  501 -0.00000000000E+00  0.00000000000E+00  0.90101371932E+02  0.90101371932E+02  0.00000000000E+00 0.  1.
          1   -1    0    0  502    0  0.00000000000E+00 -0.00000000000E+00 -0.27731000570E+03  0.27731000570E+03  0.00000000000E+00 0. -1.
         23    2    1    2    0    0  0.45754156988E+02 -0.61865726370E+02 -0.47957203567E+02  0.12743895972E+03  0.89554363934E+02 0.  0.
         23    2    1    2    0    0  0.11412516681E+01  0.57647389837E+02 -0.15625595217E+03  0.18991118058E+03  0.91245876132E+02 0.  0.
        -11    1    3    3    0    0  0.37568939275E+02  0.14420812709E+02 -0.83666326450E+01  0.41102135945E+02  0.00000000000E+00 0.  1.
         11    1    3    3    0    0  0.81852177134E+01 -0.76286539079E+02 -0.39590570922E+02  0.86336823775E+02  0.00000000000E+00 0. -1.
        -13    1    4    4    0    0 -0.43956642153E+02  0.17228363731E+02 -0.63283158289E+02  0.78954170436E+02  0.00000000000E+00 0. -1.
         13    1    4    4    0    0  0.45097893821E+02  0.40419026106E+02 -0.92972793876E+02  0.11095701014E+03  0.00000000000E+00 0.  1.
         21    1    1    2  502  501 -0.46895408656E+02  0.42183365324E+01  0.17004521965E+02  0.50061237334E+02  0.00000000000E+00 0. -1.
<scales pt_clust_5="13000.00000" pt_clust_6="13000.00000" pt_clust_7="13000.00000" pt_clust_8="13000.00000" pt_clust_9="47.08475"></scales>
<clustering>
<clus scale="   47.085">  1  9  2 -1</clus>
<clus scale="   89.554">  5  6 -1 -1</clus>
<clus scale="   91.246">  7  8 -1 -1</clus>
<clus scale="  107.951">  1  5  2 -1</clus>
<clus scale="  109.359">  2  5  1 -1</clus>
</clustering>
</event>
<event>
 9    1  0.1365465E-005  0.1014634E+03  0.7546771E-02  0.1277999E+00
         -2   -1    0    0    0  501 -0.00000000000E+00  0.00000000000E+00  0.14811468645E+03  0.14811468645E+03  0.00000000000E+00 0.  1.
          2   -1    0    0  502    0  0.00000000000E+00 -0.00000000000E+00 -0.32007001920E+03  0.32007001920E+03  0.00000000000E+00 0. -1.
         23    2    1    2    0    0  0.43545482864E+02  0.30803152163E+02  0.80278041262E+02  0.13133315847E+03  0.89212058281E+02 0.  0.
         23    2    1    2    0    0 -0.45098348035E+02  0.77660772671E+01 -0.27418859636E+03  0.29244401812E+03  0.90829204609E+02 0.  0.
        -11    1    4    4    0    0 -0.66857080698E+02  0.23800366579E+02 -0.15886557881E+03  0.17399597357E+03  0.00000000000E+00 0. -1.
         11    1    4    4    0    0  0.21758732663E+02 -0.16034289312E+02 -0.11532301755E+03  0.11844804455E+03  0.00000000000E+00 0.  1.
        -13    1    3    3    0    0  0.30838814707E+02  0.51613414868E+02  0.87261809723E+02  0.10596980949E+03  0.00000000000E+00 0.  1.
         13    1    3    3    0    0  0.12706668157E+02 -0.20810262705E+02 -0.69837684603E+01  0.25363348978E+02  0.00000000000E+00 0. -1.
         21    1    1    2  502  501  0.15528651706E+01 -0.38569229430E+02  0.21955222348E+02  0.44407529062E+02  0.00000000000E+00 0. -1.
<scales pt_clust_5="13000.00000" pt_clust_6="13000.00000" pt_clust_7="13000.00000" pt_clust_8="13000.00000" pt_clust_9="38.60048"></scales>
<clustering>
<clus scale="   38.600">  1  9  2 -1</clus>
<clus scale="   89.212">  7  8 -1 -1</clus>
<clus scale="   90.829">  5  6 -1 -1</clus>
<clus scale="  100.018">  1  7  2 -1</clus>
<clus scale="  101.463">  2  5  1 -1</clus>
</clustering>
</event>
<event>
 9    1  0.1266593E-005  0.1375067E+03  0.7546771E-02  0.1218914E+00
         -1   -1    0    0    0  501 -0.00000000000E+00  0.00000000000E+00  0.39967814904E+03  0.39967814904E+03  0.00000000000E+00 0.  1.
          1   -1    0    0  502    0  0.00000000000E+00 -0.00000000000E+00 -0.15488031035E+03  0.15488031035E+03  0.00000000000E+00 0. -1.
         23    2    1    2    0    0 -0.48722885898E+02 -0.98060508197E+02 -0.84325351716E+01  0.13665535747E+03  0.81325249456E+02 0.  0.
         23    2    1    2    0    0  0.88138374522E+02  0.56323169814E+02 -0.18773228705E+02  0.13990751568E+03  0.91000034653E+02 0.  0.
        -11    1    3    3    0    0 -0.27457330163E+02 -0.10453684608E+03 -0.22430226373E+02  0.11038556166E+03  0.00000000000E+00 0. -1.
         11    1    3    3    0    0 -0.21265555735E+02  0.64763378838E+01  0.13997691202E+02  0.26269795813E+02  0.00000000000E+00 0.  1.
        -13    1    4    4    0    0 -0.18964110926E+02  0.70920979700E+01 -0.70988547314E+01  0.21455281292E+02  0.00000000000E+00 0.  1.
         13    1    4    4    0    0  0.10710248545E+03  0.49231071844E+02 -0.11674373974E+02  0.11845223439E+03  0.00000000000E+00 0. -1.
         21    1    1    2  502  501 -0.39415488624E+02  0.41737338382E+02  0.27200360257E+03  0.27799558624E+03  0.00000000000E+00 0.  1.
<scales pt_clust_5="13000.00000" pt_clust_6="13000.00000" pt_clust_7="13000.00000" pt_clust_8="13000.00000" pt_clust_9="57.40720"></scales>
<clustering>
<clus scale="   57.407">  1  9  2 -1</clus>
<clus scale="   81.325">  5  6 -1 -1</clus>
<clus scale="   91.000">  7  8 -1 -1</clus>
<clus scale="  131.305">  1  5  2 -1</clus>
<clus scale="  137.507">  2  5  1 -1</clus>
</clustering>
</event>
<event>
 9    1  0.1266593E-005  0.9913899E+02  0.7546771E-02  0.1283367E+00
          3   -1    0    0  502    0  0.00000000000E+00  0.00000000000E+00  0.14096740684E+03  0.14096740684E+03  0.00000000000E+00 0. -1.
         -3   -1    0    0    0  501 -0.00000000000E+00 -0.00000000000E+00 -0.10553002900E+03  0.10553002900E+03  0.00000000000E+00 0.  1.
         23    2    1    2    0    0  0.25764234967E+02 -0.14982183672E+02  0.30533418858E+02  0.10226194901E+03  0.92935218932E+02 0.  0.
         23    2    1    2    0    0 -0.21843709445E+02  0.34678598015E+02  0.37332078270E+02  0.10609230684E+03  0.90455186144E+02 0.  0.
        -13    1    3    3    0    0  0.29906534803E+02  0.35506226094E+02  0.19854596722E+02  0.50490572648E+02  0.00000000000E+00 0.  1.
         13    1    3    3    0    0 -0.41422998354E+01 -0.50488409766E+02  0.10678822136E+02  0.51771376366E+02  0.00000000000E+00 0. -1.
        -13    1    4    4    0    0  0.22387877045E+02  0.35441137103E+02 -0.80832286506E+01  0.42692268892E+02  0.00000000000E+00 0.  1.
         13    1    4    4    0    0 -0.44231586490E+02 -0.76253908800E+00  0.45415306920E+02  0.63400037949E+02  0.00000000000E+00 0. -1.
         21    1    1    2  502  501 -0.39205255219E+01 -0.19696414344E+02 -0.32428119288E+02  0.38143179979E+02  0.00000000000E+00 0.  1.
<scales pt_clust_5="13000.00000" pt_clust_6="13000.00000" pt_clust_7="13000.00000" pt_clust_8="13000.00000" pt_clust_9="20.08281"></scales>
<clustering>
<clus scale="   20.083">  2  9  1 -1</clus>
<clus scale="   90.455">  7  8 -1 -1</clus>
<clus scale="   92.935">  5  6 -1 -1</clus>
<clus scale="   96.818">  1  7  2 -1</clus>
<clus scale="   96.818">  1  5  2 -1</clus>
</clustering>
</event>
<event>
 9    1  0.1266593E-005  0.1936834E+03  0.7546771E-02  0.1155617E+00
         -1   -1    0    0    0  501 -0.00000000000E+00  0.00000000000E+00  0.27569404198E+03  0.27569404198E+03  0.00000000000E+00 0.  1.
          1   -1    0    0  502    0  0.00000000000E+00 -0.00000000000E+00 -0.41791153025E+03  0.41791153025E+03  0.00000000000E+00 0. -1.
         23    2    1    2    0    0  0.53476656513E+02 -0.15250454295E+03  0.80952412897E+02  0.19800481721E+03  0.80840745124E+02 0.  0.
         23    2    1    2    0    0 -0.79182438737E+02  0.15763171455E+03 -0.33097621990E+03  0.38465357170E+03  0.85413676006E+02 0.  0.
        -11    1    4    4    0    0 -0.27349663603E+02  0.42403902356E+02 -0.31167471029E+02  0.59308568391E+02  0.00000000000E+00 0.  1.
         11    1    4    4    0    0 -0.51832775134E+02  0.11522781219E+03 -0.29980874887E+03  0.32534500331E+03  0.00000000000E+00 0. -1.
        -11    1    3    3    0    0  0.24882790128E+02 -0.14399195892E+03  0.48599575633E+02  0.15399596173E+03  0.00000000000E+00 0.  1.
         11    1    3    3    0    0  0.28593866385E+02 -0.85125840354E+01  0.32352837264E+02  0.44008855482E+02  0.00000000000E+00 0. -1.
         21    1    1    2  502  501  0.25705782224E+02 -0.51271715946E+01  0.10780631873E+03  0.11094718332E+03  0.00000000000E+00 0. -1.
<scales pt_clust_5="13000.00000" pt_clust_6="13000.00000" pt_clust_7="13000.00000" pt_clust_8="13000.00000" pt_clust_9="26.21212"></scales>
<clustering>
<clus scale="   26.212">  1  9  2 -1</clus>
<clus scale="   80.841">  7  8 -1 -1</clus>
<clus scale="   85.414">  5  6 -1 -1</clus>
<clus scale="  191.711">  1  7  2 -1</clus>
<clus scale="  193.683">  2  5  1 -1</clus>
</clustering>
</event>
<event>
 9    1  0.1266593E-005  0.1288762E+03  0.7546771E-02  0.1229864E+00
          1   -1    0    0  502    0  0.00000000000E+00  0.00000000000E+00  0.45781634993E+03  0.45781634993E+03  0.00000000000E+00 0. -1.
         -1   -1    0    0    0  501 -0.00000000000E+00 -0.00000000000E+00 -0.32496227692E+03  0.32496227692E+03  0.00000000000E+00 0.  1.
         23    2    1    2    0    0 -0.60136513732E+02 -0.47759388664E+02 -0.19207359446E+03  0.22612066245E+03  0.91328685581E+02 0.  0.
         23    2    1    2    0    0  0.48040727688E+02  0.74762795587E+02  0.42919969128E+03  0.44826909517E+03  0.93996912569E+02 0.  0.
        -11    1    3    3    0    0 -0.20245744466E+02 -0.63576661160E+02 -0.69912844926E+02  0.96642060713E+02  0.00000000000E+00 0. -1.
         11    1    3    3    0    0 -0.39890769266E+02  0.15817272496E+02 -0.12216074953E+03  0.12947860174E+03  0.00000000000E+00 0.  1.
        -11    1    4    4    0    0 -0.28749704286E+02  0.19995556382E+02  0.11309679521E+03  0.11839447985E+03  0.00000000000E+00 0.  1.
         11    1    4    4    0    0  0.76790431975E+02  0.54767239205E+02  0.31610289607E+03  0.32987461532E+03  0.00000000000E+00 0. -1.
         21    1    1    2  502  501  0.12095786044E+02 -0.27003406923E+02 -0.10427202380E+03  0.10838886923E+03  0.00000000000E+00 0.  1.
<scales pt_clust_5="13000.00000" pt_clust_6="13000.00000" pt_clust_7="13000.00000" pt_clust_8="13000.00000" pt_clust_9="29.58871"></scales>
<clustering>
<clus scale="   29.589">  2  9  1 -1</clus>
<clus scale="   91.329">  5  6 -1 -1</clus>
<clus scale="   93.997">  7  8 -1 -1</clus>
<clus scale="  126.943">  2  5  1 -1</clus>
<clus scale="  128.876">  1  5  2 -1</clus>
</clustering>
</event>
<event>
 9    1  0.1266593E-005  0.9119136E+02  0.7546771E-02  0.1300600E+00
         -1   -1    0    0    0  501 -0.00000000000E+00  0.00000000000E+00  0.83787107879E+02  0.83787107879E+02  0.00000000000E+00 0.  1.
          1   -1    0    0  502    0  0.00000000000E+00 -0.00000000000E+00 -0.26036737731E+03  0.26036737731E+03  0.00000000000E+00 0. -1.
         23    2    1    2    0    0 -0.23654081812E+02 -0.29912529462E+02 -0.17401167492E+02  0.99739850680E+02  0.90503934601E+02 0.  0.
         23    2    1    2    0    0 -0.21489009644E+02 -0.40737860675E+02 -0.99340437272E+02  0.14140957579E+03  0.89480695237E+02 0.  0.
        -13    1    3    3    0    0 -0.37079658909E+02  0.69774863477E+01 -0.39554037954E+02  0.54663592445E+02  0.00000000000E+00 0.  1.
         13    1    3    3    0    0  0.13425577096E+02 -0.36890015809E+02  0.22152870461E+02  0.45076258235E+02  0.00000000000E+00 0. -1.
        -13    1    4    4    0    0  0.42864659254E+01  0.25802352279E+02 -0.43672501748E+02  0.50906017151E+02  0.00000000000E+00 0. -1.
         13    1    4    4    0    0 -0.25775475570E+02 -0.66540212955E+02 -0.55667935524E+02  0.90503558640E+02  0.00000000000E+00 0.  1.
         21    1    1    2  502  501  0.45143091457E+02  0.70650390137E+02 -0.59838664670E+02  0.10300505872E+03  0.00000000000E+00 0.  1.
<scales pt_clust_5="13000.00000" pt_clust_6="13000.00000" pt_clust_7="13000.00000" pt_clust_8="13000.00000" pt_clust_9="83.84138"></scales>
<clustering>
<clus scale="   83.841">  2  9  1 -1</clus>
<clus scale="   89.481">  7  8 -1 -1</clus>
<clus scale="   90.176">  2  7  1 -1</clus>
<clus scale="   90.504">  5  6 -1 -1</clus>
<clus scale="   83.841">  2  5  1 -1</clus>
</clustering>
</event>
<event>
 9    1  0.1266593E-005  0.1381455E+03  0.7546771E-02  0.1217850E+00
         -4   -1    0    0    0  501 -0.00000000000E+00  0.00000000000E+00  0.28154095639E+03  0.28154095639E+03  0.00000000000E+00 0.  1.
          4   -1    0    0  502    0  0.00000000000E+00 -0.00000000000E+00 -0.13733571267E+03  0.13733571267E+03  0.00000000000E+00 0. -1.
         23    2    1    2    0    0 -0.97546450515E+02 -0.40210871823E+02 -0.37460006292E+00  0.14489759007E+03  0.99312371146E+02 0.  0.
         23    2    1    2    0    0  0.74322566958E+02  0.47974964169E+02 -0.29853292016E+00  0.12704584948E+03  0.91187266665E+02 0.  0.
        -11    1    3    3    0    0 -0.15138982968E+02  0.20332610023E+02 -0.29187328949E+02  0.38658815383E+02  0.00000000000E+00 0.  1.
         11    1    3    3    0    0 -0.82407467547E+02 -0.60543481845E+02  0.28812728887E+02  0.10623877469E+03  0.00000000000E+00 0. -1.
        -13    1    4    4    0    0  0.89601483518E+02  0.15903933102E+02  0.49456396127E+01  0.91136273173E+02  0.00000000000E+00 0.  1.
         13    1    4    4    0    0 -0.15278916560E+02  0.32071031067E+02 -0.52441725328E+01  0.35909576306E+02  0.00000000000E+00 0. -1.
         21    1    1    2  502  501  0.23223883556E+02 -0.77640923460E+01  0.14487837670E+03  0.14693322951E+03  0.00000000000E+00 0.  1.
<scales pt_clust_5="13000.00000" pt_clust_6="13000.00000" pt_clust_7="13000.00000" pt_clust_8="13000.00000" pt_clust_9="24.48734"></scales>
<clustering>
<clus scale="   24.487">  1  9  2 -1</clus>
<clus scale="   91.187">  7  8 -1 -1</clus>
<clus scale="   99.312">  5  6 -1 -1</clus>
<clus scale="  132.425">  2  7  1 -1</clus>
<clus scale="  132.425">  2  5  1 -1</clus>
</clustering>
</event>
<event>
 9    1  0.1266593E-005  0.1199645E+03  0.7546771E-02  0.1252742E+00
         -2   -1    0    0    0  501 -0.00000000000E+00  0.00000000000E+00  0.31124344403E+03  0.31124344403E+03  0.00000000000E+00 0.  1.
          2   -1    0    0  502    0  0.00000000000E+00 -0.00000000000E+00 -0.87193768650E+02  0.87193768650E+02  0.00000000000E+00 0. -1.
         23    2    1    2    0    0 -0.19787091165E+02 -0.38562234224E+02  0.11924881167E+03  0.17011258794E+03  0.11331124660E+03 0.  0.
         23    2    1    2    0    0  0.40557975258E+02  0.97973925957E+01 -0.17075101183E+02  0.10138922165E+03  0.90814519362E+02 0.  0.
        -11    1    3    3    0    0 -0.67250916884E+02 -0.19830645670E+02  0.73536464374E+02  0.10160488139E+03  0.00000000000E+00 0.  1.
         11    1    3    3    0    0  0.47463825718E+02 -0.18731588553E+02  0.45712347291E+02  0.68507706548E+02  0.00000000000E+00 0. -1.
        -13    1    4    4    0    0 -0.38362851407E+01 -0.25039566757E+02 -0.34069248761E+02  0.42454807717E+02  0.00000000000E+00 0. -1.
         13    1    4    4    0    0  0.44394260399E+02  0.34836959353E+02  0.16994147578E+02  0.58934413930E+02  0.00000000000E+00 0.  1.
         21    1    1    2  502  501 -0.20770884093E+02  0.28764841628E+02  0.12187596490E+03  0.12693540310E+03  0.00000000000E+00 0.  1.
<scales pt_clust_5="13000.00000" pt_clust_6="13000.00000" pt_clust_7="13000.00000" pt_clust_8="13000.00000" pt_clust_9="35.48022"></scales>
<clustering>
<clus scale="   35.480">  1  9  2 -1</clus>
<clus scale="   90.815">  7  8 -1 -1</clus>
<clus scale="   98.992">  2  7  1 -1</clus>
<clus scale="  113.311">  5  6 -1 -1</clus>
<clus scale="   98.992">  2  5  1 -1</clus>
</clustering>
</event>
<event>
 9    1  0.1266593E-005  0.1285703E+03  0.7546771E-02  0.1230569E+00
          3   -1    0    0  502    0  0.00000000000E+00  0.00000000000E+00  0.15483219982E+03  0.15483219982E+03  0.00000000000E+00 0. -1.
         -3   -1    0    0    0  501 -0.00000000000E+00 -0.00000000000E+00 -0.18868091463E+03  0.18868091463E+03  0.00000000000E+00 0.  1.
         23    2    1    2    0    0  0.47852942579E+02 -0.82449287333E+01 -0.60009532803E+02  0.11935183244E+03  0.91026550614E+02 0.  0.
         23    2    1    2    0    0 -0.11411892427E+03  0.12608418374E+02  0.51343467888E+02  0.15313743934E+03  0.87366026245E+02 0.  0.
        -11    1    3    3    0    0 -0.26786016061E+01 -0.41257645865E+02 -0.14705977858E+02  0.43882046826E+02  0.00000000000E+00 0. -1.
         11    1    3    3    0    0  0.50531544185E+02  0.33012717132E+02 -0.45303554945E+02  0.75469785615E+02  0.00000000000E+00 0.  1.
        -11    1    4    4    0    0 -0.75223188123E+02  0.42020534280E+01  0.75438933751E+02  0.10661715626E+03  0.00000000000E+00 0. -1.
         11    1    4    4    0    0 -0.38895736152E+02  0.84063649458E+01 -0.24095465863E+02  0.46520283077E+02  0.00000000000E+00 0.  1.
         21    1    1    2  502  501  0.66265981696E+02 -0.43634896405E+01 -0.25182649899E+02  0.71023842672E+02  0.00000000000E+00 0. -1.
<scales pt_clust_5="13000.00000" pt_clust_6="13000.00000" pt_clust_7="13000.00000" pt_clust_8="13000.00000" pt_clust_9="66.40949"></scales>
<clustering>
<clus scale="   66.409">  2  9  1 -1</clus>
<clus scale="   87.366">  7  8 -1 -1</clus>
<clus scale="   91.027">  5  6 -1 -1</clus>
<clus scale="  126.005">  1  7  2 -1</clus>
<clus scale="  126.005">  1  5  2 -1</clus>
</clustering>
</event>
<event>
 9    1  0.1266593E-005  0.9984892E+02  0.7546771E-02  0.1281911E+00
          2   -1    0    0  502    0  0.00000000000E+00  0.00000000000E+00  0.22133750313E+03  0.22133750313E+03  0.00000000000E+00 0. -1.
         -2   -1    0    0    0  501 -0.00000000000E+00 -0.00000000000E+00 -0.78326191075E+02  0.78326191075E+02  0.00000000000E+00 0.  1.
         23    2    1    2    0    0 -0.50602138013E+02 -0.65254767511E+00 -0.71869798410E+01  0.10279897706E+03  0.89190665514E+02 0.  0.
         23    2    1    2    0    0  0.34582983414E+02 -0.12103059994E+02  0.14539585008E+03  0.17583183127E+03  0.91839059564E+02 0.  0.
        -11    1    4    4    0    0  0.51613918805E+02  0.17814713160E+02  0.48605733147E+02  0.73101832495E+02  0.00000000000E+00 0.  1.
         11    1    4    4    0    0 -0.17030935391E+02 -0.29917773154E+02  0.96790116937E+02  0.10272999877E+03  0.00000000000E+00 0. -1.
        -13    1    3    3    0    0 -0.10584645942E+02 -0.18976199734E+02  0.35411969720E+02  0.41546822809E+02  0.00000000000E+00 0. -1.
         13    1    3    3    0    0 -0.40017492071E+02  0.18323652059E+02 -0.42598949561E+02  0.61252154249E+02  0.00000000000E+00 0.  1.
         21    1    1    2  502  501  0.16019154599E+02  0.12755607669E+02  0.48024418098E+01  0.21032885879E+02  0.00000000000E+00 0.  1.
<scales pt_clust_5="13000.00000" pt_clust_6="13000.00000" pt_clust_7="13000.00000" pt_clust_8="13000.00000" pt_clust_9="20.47728"></scales>
<clustering>
<clus scale="   20.477">  2  9  1 -1</clus>
<clus scale="   89.191">  7  8 -1 -1</clus>
<clus scale="   91.839">  5  6 -1 -1</clus>
<clus scale="   97.419">  2  7  1 -1</clus>
<clus scale="   99.849">  1  5  2 -1</clus>
</clustering>
</event>
<event>
 9    1  0.1266593E-005  0.1661196E+03  0.7546771E-02  0.1182669E+00
         -2   -1    0    0    0  501 -0.00000000000E+00  0.00000000000E+00  0.64162016467E+02  0.64162016467E+02  0.00000000000E+00 0.  1.
          2   -1    0    0  502    0  0.00000000000E+00 -0.00000000000E+00 -0.59433369798E+03  0.59433369798E+03  0.00000000000E+00 0. -1.
         23    2    1    2    0    0  0.11783151199E+03 -0.38736195133E+02 -0.98559407532E+02  0.17990268816E+03  0.85242374217E+02 0.  0.
         23    2    1    2    0    0 -0.13900212835E+03  0.44362360707E+02 -0.42026543551E+03  0.45392321722E+03  0.90186695910E+02 0.  0.
        -11    1    4    4    0    0 -0.56718732985E+01  0.29239527543E+02 -0.34995559751E+02  0.45954426554E+02  0.00000000000E+00 0.  1.
         11    1    4    4    0    0 -0.13333025505E+03  0.15122833164E+02 -0.38526987575E+03  0.40796879067E+03  0.00000000000E+00 0. -1.
        -11    1    3    3    0    0  0.90182163323E+02  0.77165814057E+01 -0.36484365230E+02  0.97588304199E+02  0.00000000000E+00 0.  1.
         11    1    3    3    0    0  0.27649348668E+02 -0.46452776538E+02 -0.62075042302E+02  0.82314383960E+02  0.00000000000E+00 0. -1.
         21    1    1    2  502  501  0.21170616356E+02 -0.56261655741E+01 -0.11346838472E+02  0.24669809064E+02  0.00000000000E+00 0.  1.
<scales pt_clust_5="13000.00000" pt_clust_6="13000.00000" pt_clust_7="13000.00000" pt_clust_8="13000.00000" pt_clust_9="21.90545"></scales>
<clustering>
<clus scale="   21.905">  1  9  2 -1</clus>
<clus scale="   85.242">  7  8 -1 -1</clus>
<clus scale="   90.187">  5  6 -1 -1</clus>
<clus scale="  163.488">  1  7  2 -1</clus>
<clus scale="  166.120">  2  5  1 -1</clus>
</clustering>
</event>
<event>
 9    1  0.1266593E-005  0.1707758E+03  0.7546771E-02  0.1178061E+00
         -3   -1    0    0    0  501 -0.00000000000E+00  0.00000000000E+00  0.11065322684E+03  0.11065322684E+03  0.00000000000E+00 0.  1.
          3   -1    0    0  502    0  0.00000000000E+00 -0.00000000000E+00 -0.45585947453E+03  0.45585947453E+03  0.00000000000E+00 0. -1.
         23    2    1    2    0    0 -0.11034053187E+03 -0.56560183944E+02 -0.14478501533E+03  0.21436191062E+03  0.98052234454E+02 0.  0.
         23    2    1    2    0    0  0.15317150776E+03  0.31563497917E+02 -0.23132480641E+03  0.29371828526E+03  0.91112566904E+02 0.  0.
        -11    1    4    4    0    0  0.74137743349E+02  0.58085022195E+02 -0.93964957076E+02  0.13304017420E+03  0.00000000000E+00 0. -1.
         11    1    4    4    0    0  0.79033764410E+02 -0.26521524278E+02 -0.13735984933E+03  0.16067811106E+03  0.00000000000E+00 0.  1.
        -13    1    3    3    0    0 -0.38800490288E+02 -0.20802237414E+02  0.52539386952E+01  0.44337512333E+02  0.00000000000E+00 0.  1.
         13    1    3    3    0    0 -0.71540041580E+02 -0.35757946530E+02 -0.15003895402E+03  0.17002439829E+03  0.00000000000E+00 0. -1.
         21    1    1    2  502  501 -0.42830975891E+02  0.24996686027E+02  0.30903574045E+02  0.58432505482E+02  0.00000000000E+00 0. -1.
<scales pt_clust_5="13000.00000" pt_clust_6="13000.00000" pt_clust_7="13000.00000" pt_clust_8="13000.00000" pt_clust_9="49.59160"></scales>
<clustering>
<clus scale="   49.592">  1  9  2 -1</clus>
<clus scale="   91.113">  5  6 -1 -1</clus>
<clus scale="   98.052">  7  8 -1 -1</clus>
<clus scale="  166.888">  2  5  1 -1</clus>
<clus scale="  166.888">  2  5  1 -1</clus>
</clustering>
</event>
<event>
 9    1  0.1266593E-005  0.2034814E+03  0.7546771E-02  0.1146858E+00
          1   -1    0    0  502    0  0.00000000000E+00  0.00000000000E+00  0.45153467596E+03  0.45153467596E+03  0.00000000000E+00 0. -1.
         -1   -1    0    0    0  501 -0.00000000000E+00 -0.00000000000E+00 -0.16358850892E+03  0.16358850892E+03  0.00000000000E+00 0.  1.
         23    2    1    2    0    0 -0.71025491220E+02 -0.17520023764E+03 -0.26659504923E+01  0.20990569536E+03  0.91178670645E+02 0.  0.
         23    2    1    2    0    0  0.87905524559E+02  0.15714885605E+03  0.31258631846E+03  0.37214705847E+03  0.91433486396E+02 0.  0.
        -13    1    4    4    0    0  0.96135040990E+02  0.82158786362E+02  0.19181232058E+03  0.22974764114E+03  0.00000000000E+00 0. -1.
         13    1    4    4    0    0 -0.82295164315E+01  0.74990069691E+02  0.12077399789E+03  0.14239941734E+03  0.00000000000E+00 0.  1.
        -13    1    3    3    0    0 -0.37967153077E+02 -0.97019604698E+02  0.43938782081E+02  0.11307044255E+03  0.00000000000E+00 0.  1.
         13    1    3    3    0    0 -0.33058338143E+02 -0.78180632945E+02 -0.46604732573E+02  0.96835252809E+02  0.00000000000E+00 0. -1.
         21    1    1    2  502  501 -0.16880033339E+02  0.18051381590E+02 -0.21974200924E+02  0.33070431039E+02  0.00000000000E+00 0. -1.
<scales pt_clust_5="13000.00000" pt_clust_6="13000.00000" pt_clust_7="13000.00000" pt_clust_8="13000.00000" pt_clust_9="24.71412"></scales>
<clustering>
<clus scale="   24.714">  2  9  1 -1</clus>
<clus scale="   91.179">  7  8 -1 -1</clus>
<clus scale="   91.433">  5  6 -1 -1</clus>
<clus scale="  203.367">  2  7  1 -1</clus>
<clus scale="  203.481">  1  5  2 -1</clus>
</clustering>
</event>
<event>
 9    1  0.1266593E-005  0.1219135E+03  0.7546771E-02  0.1241086E+00
         -3   -1    0    0    0  501 -0.00000000000E+00  0.00000000000E+00  0.37116243226E+03  0.37116243226E+03  0.00000000000E+00 0.  1.
          3   -1    0    0  502    0  0.00000000000E+00 -0.00000000000E+00 -0.63277439982E+02  0.63277439982E+02  0.00000000000E+00 0. -1.
         23    2    1    2    0    0 -0.60726581187E+02 -0.39927424039E+02  0.20124240096E+03  0.23163968407E+03  0.88749774292E+02 0.  0.
         23    2    1    2    0    0  0.57030504836E+02  0.67902165829E+02  0.37960895031E+02  0.12854776355E+03  0.84972438795E+02 0.  0.
        -11    1    4    4    0    0 -0.13969606857E+02  0.27601278795E+02  0.35198381518E+02  0.46860501153E+02  0.00000000000E+00 0.  1.
         11    1    4    4    0    0  0.71000111693E+02  0.40300887035E+02  0.27625135130E+01  0.81687262392E+02  0.00000000000E+00 0. -1.
        -13    1    3    3    0    0 -0.73402182060E+02 -0.12586556198E+02  0.17991669156E+03  0.19472112785E+03  0.00000000000E+00 0.  1.
         13    1    3    3    0    0  0.12675600873E+02 -0.27340867841E+02  0.21325709397E+02  0.36918556216E+02  0.00000000000E+00 0. -1.
         21    1    1    2  502  501  0.36960763508E+01 -0.27974741791E+02  0.68681696285E+02  0.74252424629E+02  0.00000000000E+00 0. -1.
<scales pt_clust_5="13000.00000" pt_clust_6="13000.00000" pt_clust_7="13000.00000" pt_clust_8="13000.00000" pt_clust_9="28.21785"></scales>
<clustering>
<clus scale="   28.218">  1  9  2 -1</clus>
<clus scale="   84.972">  5  6 -1 -1</clus>
<clus scale="   88.750">  7  8 -1 -1</clus>
<clus scale="  119.192">  2  5  1 -1</clus>
<clus scale="  119.192">  2  5  1 -1</clus>
</clustering>
</event>
<event>
 9    1  0.1266593E-005  0.1149969E+03  0.7546771E-02  0.1253878E+00
          1   -1    0    0  502    0  0.00000000000E+00  0.00000000000E+00  0.55793399815E+03  0.55793399815E+03  0.00000000000E+00 0. -1.
         -1   -1    0    0    0  501 -0.00000000000E+00 -0.00000000000E+00 -0.34191022966E+02  0.34191022966E+02  0.00000000000E+00 0.  1.
         23    2    1    2    0    0  0.24412160821E+02 -0.50592047018E+02  0.16558135249E+03  0.19417355108E+03  0.84443323189E+02 0.  0.
         23    2    1    2    0    0 -0.25955016681E+02  0.76317745815E+02  0.35061818073E+03  0.37109824864E+03  0.91009561388E+02 0.  0.
        -11    1    4    4    0    0 -0.42438866339E+02  0.90330799818E+02  0.29466000279E+03  0.31110324334E+03  0.00000000000E+00 0. -1.
         11    1    4    4    0    0  0.16483849658E+02 -0.14013054003E+02  0.55958177936E+02  0.59995005292E+02  0.00000000000E+00 0.  1.
        -13    1    3    3    0    0  0.24248089327E+02  0.18782310185E+02  0.36900035590E+02  0.47982889017E+02  0.00000000000E+00 0. -1.
         13    1    3    3    0    0  0.16407149390E+00 -0.69374357203E+02  0.12868131690E+03  0.14619066207E+03  0.00000000000E+00 0.  1.
         21    1    1    2  502  501  0.15428558600E+01 -0.25725698797E+02  0.75434419663E+01  0.26853221399E+02  0.00000000000E+00 0. -1.
<scales pt_clust_5="13000.00000" pt_clust_6="13000.00000" pt_clust_7="13000.00000" pt_clust_8="13000.00000" pt_clust_9="25.77192"></scales>
<clustering>
<clus scale="   25.772">  2  9  1 -1</clus>
<clus scale="   84.443">  7  8 -1 -1</clus>
<clus scale="   91.010">  5  6 -1 -1</clus>
<clus scale="  109.874">  2  7  1 -1</clus>
<clus scale="  114.997">  1  5  2 -1</clus>
</clustering>
</event>
<event>
 9    1  0.1266593E-005  0.1255385E+03  0.7546771E-02  0.1236111E+00
         -2   -1    0    0    0  501 -0.00000000000E+00  0.00000000000E+00  0.74223069361E+02  0.74223069361E+02  0.00000000000E+00 0.  1.
          2   -1    0    0  502    0  0.00000000000E+00 -0.00000000000E+00 -0.40728123341E+03  0.40728123341E+03  0.00000000000E+00 0. -1.
         23    2    1    2    0    0  0.70779034554E+02  0.10904256641E+02 -0.27023380901E+02  0.11812195827E+03  0.89966434659E+02 0.  0.
         23    2    1    2    0    0 -0.11484913800E+03 -0.44854968755E+00 -0.24818353929E+03  0.28990947712E+03  0.96238817797E+02 0.  0.
        -13    1    3    3    0    0  0.25127152718E+02 -0.19276600493E+02 -0.49659857830E+02  0.58898748798E+02  0.00000000000E+00 0. -1.
         13    1    3    3    0    0  0.45651881835E+02  0.30180857134E+02  0.22636476929E+02  0.59223209473E+02  0.00000000000E+00 0.  1.
        -13    1    4    4    0    0 -0.74190155230E+02 -0.34817558534E+02 -0.20689845927E+03  0.22253856736E+03  0.00000000000E+00 0. -1.
         13    1    4    4    0    0 -0.40658982770E+02  0.34369008846E+02 -0.41285080024E+02  0.67370909757E+02  0.00000000000E+00 0.  1.
         21    1    1    2  502  501  0.44070103446E+02 -0.10455706953E+02 -0.57851243852E+02  0.73472867379E+02  0.00000000000E+00 0. -1.
<scales pt_clust_5="13000.00000" pt_clust_6="13000.00000" pt_clust_7="13000.00000" pt_clust_8="13000.00000" pt_clust_9="45.29344"></scales>
<clustering>
<clus scale="   45.293">  2  9  1 -1</clus>
<clus scale="   89.966">  5  6 -1 -1</clus>
<clus scale="   96.239">  7  8 -1 -1</clus>
<clus scale="  120.797">  1  5  2 -1</clus>
<clus scale="   45.293">  2  5  1 -1</clus>
</clustering>
</event>
<event>
 9    1  0.1266593E-005  0.1523864E+03  0.7546771E-02  0.1201042E+00
         -1   -1    0    0    0  501 -0.00000000000E+00  0.00000000000E+00  0.30111604818E+02  0.30111604818E+02  0.00000000000E+00 0.  1.
          1   -1    0    0  502    0  0.00000000000E+00 -0.00000000000E+00 -0.12172496556E+04  0.12172496556E+04  0.00000000000E+00 0. -1.
         23    2    1    2    0    0  0.72537118350E+02 -0.44681045604E+02 -0.32088858667E+03  0.34812773987E+03  0.10471584809E+03 0.  0.
         23    2    1    2    0    0 -0.11395170809E+03  0.48790043323E+02 -0.83077095928E+03  0.84454552908E+03  0.87814029692E+02 0.  0.
        -11    1    3    3    0    0  0.71591655606E+02 -0.68457587884E+02 -0.18194470151E+03  0.20716100236E+03  0.00000000000E+00 0.  1.
         11    1    3    3    0    0  0.94546274411E+00  0.23776542281E+02 -0.13894388516E+03  0.14096673752E+03  0.00000000000E+00 0. -1.
        -13    1    4    4    0    0 -0.93496478641E+02  0.73856108521E+02 -0.67749310153E+03  0.68789041198E+03  0.00000000000E+00 0.  1.
         13    1    4    4    0    0 -0.20455229451E+02 -0.25066065199E+02 -0.15327785775E+03  0.15665511710E+03  0.00000000000E+00 0. -1.
         21    1    1    2  502  501  0.41414589742E+02 -0.41089977191E+01 -0.35478504872E+02  0.54687991495E+02  0.00000000000E+00 0.  1.
<scales pt_clust_5="13000.00000" pt_clust_6="13000.00000" pt_clust_7="13000.00000" pt_clust_8="13000.00000" pt_clust_9="41.61793"></scales>
<clustering>
<clus scale="   41.618">  1  9  2 -1</clus>
<clus scale="   87.814">  7  8 -1 -1</clus>
<clus scale="  104.716">  5  6 -1 -1</clus>
<clus scale="  141.306">  2  7  1 -1</clus>
<clus scale="  141.306">  2  5  1 -1</clus>
</clustering>
</event>
<event>
 9    1  0.1266593E-005  0.1348718E+03  0.7546771E-02  0.1220459E+00
          1   -1    0    0  502    0  0.00000000000E+00  0.00000000000E+00  0.24433316846E+03  0.24433316846E+03  0.00000000000E+00 0. -1.
         -1   -1    0    0    0  501 -0.00000000000E+00 -0.00000000000E+00 -0.17009372434E+03  0.17009372434E+03  0.00000000000E+00 0.  1.
         23    2    1    2    0    0 -0.22987697672E+02  0.10985212478E+03 -0.54872441215E+02  0.15464783657E+03  0.91153963099E+02 0.  0.
         23    2    1    2    0    0  0.81462862655E+02 -0.60906344640E+02  0.12188474140E+03  0.18318097581E+03  0.91398024612E+02 0.  0.
        -13    1    4    4    0    0 -0.18514184287E+02 -0.18237068626E+02  0.12033877659E+02  0.28638783204E+02  0.00000000000E+00 0. -1.
         13    1    4    4    0    0  0.99977046942E+02 -0.42669276014E+02  0.10985086374E+03  0.15454219260E+03  0.00000000000E+00 0.  1.
        -13    1    3    3    0    0  0.35049239393E+02  0.32370612413E+02 -0.15902475226E+02  0.50291097108E+02  0.00000000000E+00 0.  1.
         13    1    3    3    0    0 -0.58036937065E+02  0.77481512366E+02 -0.38969965990E+02  0.10435673946E+03  0.00000000000E+00 0. -1.
         21    1    1    2  502  501 -0.58475164982E+02 -0.48945780139E+02  0.72271439364E+01  0.76598080411E+02  0.00000000000E+00 0.  1.
<scales pt_clust_5="13000.00000" pt_clust_6="13000.00000" pt_clust_7="13000.00000" pt_clust_8="13000.00000" pt_clust_9="76.25637"></scales>
<clustering>
<clus scale="   76.256">  2  9  1 -1</clus>
<clus scale="   91.154">  7  8 -1 -1</clus>
<clus scale="   91.398">  5  6 -1 -1</clus>
<clus scale="  134.707">  2  7  1 -1</clus>
<clus scale="  134.872">  1  5  2 -1</clus>
</clustering>
</event>
<event>
 9    1  0.1266593E-005  0.4487716E+03  0.7546771E-02  0.1028112E+00
         -2   -1    0    0    0  501 -0.00000000000E+00  0.00000000000E+00  0.10950024468E+03  0.10950024468E+03  0.00000000000E+00 0.  1.
          2   -1    0    0  502    0  0.00000000000E+00 -0.00000000000E+00 -0.32141073373E+04  0.32141073373E+04  0.00000000000E+00 0. -1.
         23    2    1    2    0    0  0.17397339785E+02 -0.39901985022E+03 -0.85623751342E+03  0.94908562148E+03  0.90007384258E+02 0.  0.
         23    2    1    2    0    0 -0.25157069865E+03  0.42139891628E+03 -0.18030269598E+04  0.18708672839E+04  0.91505809159E+02 0.  0.
        -11    1    4    4    0    0  0.17365620730E+01  0.45493349431E+02 -0.14358263875E+03  0.15062746974E+03  0.00000000000E+00 0.  1.
         11    1    4    4    0    0 -0.25330726072E+03  0.37590556685E+03 -0.16594443211E+04  0.17202398142E+04  0.00000000000E+00 0. -1.
        -11    1    3    3    0    0 -0.27930974498E+02 -0.80271101036E+02 -0.22424907327E+03  0.23981500341E+03  0.00000000000E+00 0. -1.
         11    1    3    3    0    0  0.45328314283E+02 -0.31874874918E+03 -0.63198844015E+03  0.70927061807E+03  0.00000000000E+00 0.  1.
         21    1    1    2  502  501  0.23417335887E+03 -0.22379066067E+02 -0.44534261938E+03  0.50365467657E+03  0.00000000000E+00 0.  1.
<scales pt_clust_5="13000.00000" pt_clust_6="13000.00000" pt_clust_7="13000.00000" pt_clust_8="13000.00000" pt_clust_9="235.24027"></scales>
<clustering>
<clus scale="   90.007">  7  8 -1 -1</clus>
<clus scale="   91.506">  5  6 -1 -1</clus>
<clus scale="  235.240">  1  9  2 -1</clus>
<clus scale="  448.468">  1  7  2 -1</clus>
<clus scale="  448.772">  2  5  1 -1</clus>
</clustering>
</event>
<event>
 9    1  0.1266593E-005  0.1091555E+03  0.7546771E-02  0.1262333E+00
         -2   -1    0    0    0  501 -0.00000000000E+00  0.00000000000E+00  0.44871438555E+02  0.44871438555E+02  0.00000000000E+00 0.  1.
          2   -1    0    0  502    0  0.00000000000E+00 -0.00000000000E+00 -0.43458342351E+03  0.43458342351E+03  0.00000000000E+00 0. -1.
         23    2    1    2    0    0  0.14446711113E+01 -0.45764460573E+02 -0.12855639473E+03  0.16440402538E+03  0.91681317670E+02 0.  0.
         23    2    1    2    0    0 -0.30553125735E+02  0.63444329318E+02 -0.25583169945E+03  0.28058021583E+03  0.91196067109E+02 0.  0.
        -11    1    3    3    0    0 -0.22466064287E+02 -0.49972572901E+02 -0.12896624613E+03  0.14012235627E+03  0.00000000000E+00 0. -1.
         11    1    3    3    0    0  0.23910735398E+02  0.42081123278E+01  0.40985139757E+00  0.24281669111E+02  0.00000000000E+00 0.  1.
        -13    1    4    4    0    0  0.29412842076E+02  0.79355903174E+01 -0.43845438074E+02  0.53390179927E+02  0.00000000000E+00 0.  1.
         13    1    4    4    0    0 -0.59965967811E+02  0.55508739001E+02 -0.21198626138E+03  0.22719003590E+03  0.00000000000E+00 0. -1.
         21    1    1    2  502  501  0.29108454624E+02 -0.17679868745E+02 -0.53238907805E+01  0.34470620860E+02  0.00000000000E+00 0.  1.
<scales pt_clust_5="13000.00000" pt_clust_6="13000.00000" pt_clust_7="13000.00000" pt_clust_8="13000.00000" pt_clust_9="34.05701"></scales>
<clustering>
<clus scale="   34.057">  1  9  2 -1</clus>
<clus scale="   91.196">  7  8 -1 -1</clus>
<clus scale="   91.681">  5  6 -1 -1</clus>
<clus scale="  108.748">  2  7  1 -1</clus>
<clus scale="  108.748">  2  5  1 -1</clus>
</clustering>
</event>
<event>
 9    1  0.1266593E-005  0.9600435E+02  0.7546771E-02  0.1289018E+00
         -1   -1    0    0    0  501 -0.00000000000E+00  0.00000000000E+00  0.66716029792E+03  0.66716029792E+03  0.00000000000E+00 0.  1.
          1   -1    0    0  502    0  0.00000000000E+00 -0.00000000000E+00 -0.35139304530E+02  0.35139304530E+02  0.00000000000E+00 0. -1.
         23    2    1    2    0    0  0.37578063235E+02 -0.60245793353E+02  0.29695693182E+03  0.31858884575E+03  0.90960248618E+02 0.  0.
         23    2    1    2    0    0  0.24742370811E+01  0.19683073412E+02  0.80840994971E+02  0.12317498449E+03  0.90792428692E+02 0.  0.
        -11    1    4    4    0    0 -0.13430365169E+02  0.36051874901E+02  0.90541287230E+02  0.98375998525E+02  0.00000000000E+00 0. -1.
         11    1    4    4    0    0  0.15904602250E+02 -0.16368801489E+02 -0.97002922590E+01  0.24798985964E+02  0.00000000000E+00 0.  1.
        -11    1    3    3    0    0  0.61507207065E+02 -0.54368635798E+02  0.16434634481E+03  0.18370848138E+03  0.00000000000E+00 0. -1.
         11    1    3    3    0    0 -0.23929143829E+02 -0.58771575545E+01  0.13261058701E+03  0.13488036437E+03  0.00000000000E+00 0.  1.
         21    1    1    2  502  501 -0.40052300317E+02  0.40562719941E+02  0.25422306661E+03  0.26053577222E+03  0.00000000000E+00 0.  1.
<scales pt_clust_5="13000.00000" pt_clust_6="13000.00000" pt_clust_7="13000.00000" pt_clust_8="13000.00000" pt_clust_9="57.00457"></scales>
<clustering>
<clus scale="   57.005">  1  9  2 -1</clus>
<clus scale="   90.792">  5  6 -1 -1</clus>
<clus scale="   90.960">  7  8 -1 -1</clus>
<clus scale="   95.845">  2  5  1 -1</clus>
<clus scale="   95.845">  2  5  1 -1</clus>
</clustering>
</event>
<event>
 9    1  0.1266593E-005  0.1630330E+03  0.7546771E-02  0.1185622E+00
         -1   -1    0    0    0  501 -0.00000000000E+00  0.00000000000E+00  0.63462954072E+02  0.63462954072E+02  0.00000000000E+00 0.  1.
          1   -1    0    0  502    0  0.00000000000E+00 -0.00000000000E+00 -0.54882270853E+03  0.54882270853E+03  0.00000000000E+00 0. -1.
         23    2    1    2    0    0 -0.46653373132E+01 -0.12731165467E+03 -0.14379240508E+03  0.21174383994E+03  0.89045916286E+02 0.  0.
         23    2    1    2    0    0  0.41154429151E+02  0.13591787569E+03 -0.30273863078E+03  0.34656784512E+03  0.91056228423E+02 0.  0.
        -11    1    4    4    0    0  0.58300561690E+02  0.43530806425E+02 -0.10634946994E+03  0.12885688324E+03  0.00000000000E+00 0.  1.
         11    1    4    4    0    0 -0.17146132540E+02  0.92387069267E+02 -0.19638916084E+03  0.21771096188E+03  0.00000000000E+00 0. -1.
        -13    1    3    3    0    0  0.24506699282E+02 -0.92159075375E+02 -0.13490523788E+03  0.16520683004E+03  0.00000000000E+00 0.  1.
         13    1    3    3    0    0 -0.29172036596E+02 -0.35152579294E+02 -0.88871672068E+01  0.46537009907E+02  0.00000000000E+00 0. -1.
         21    1    1    2  502  501 -0.36489091837E+02 -0.86062210227E+01 -0.38828718596E+02  0.53973977537E+02  0.00000000000E+00 0.  1.
<scales pt_clust_5="13000.00000" pt_clust_6="13000.00000" pt_clust_7="13000.00000" pt_clust_8="13000.00000" pt_clust_9="37.49028"></scales>
<clustering>
<clus scale="   37.490">  1  9  2 -1</clus>
<clus scale="   89.046">  7  8 -1 -1</clus>
<clus scale="   91.056">  5  6 -1 -1</clus>
<clus scale="  161.919">  1  7  2 -1</clus>
<clus scale="  163.033">  2  5  1 -1</clus>
</clustering>
</event>
<event>
 9    1  0.1266593E-005  0.4182369E+03  0.7546771E-02  0.1037704E+00
          1   -1    0    0  502    0  0.00000000000E+00  0.00000000000E+00  0.12140844863E+04  0.12140844863E+04  0.00000000000E+00 0. -1.
         -1   -1    0    0    0  501 -0.00000000000E+00 -0.00000000000E+00 -0.57333580577E+03  0.57333580577E+03  0.00000000000E+00 0.  1.
         23    2    1    2    0    0 -0.17867274418E+03  0.39675217761E+03 -0.41172176602E+03  0.60549469859E+03  0.88163356613E+02 0.  0.
         23    2    1    2    0    0  0.14959355708E+03 -0.37744182182E+03  0.10660834481E+04  0.11444582374E+04  0.91707020856E+02 0.  0.
        -11    1    4    4    0    0  0.70848700476E+02 -0.10586323093E+03  0.42741516027E+03  0.44599358880E+03  0.00000000000E+00 0. -1.
         11    1    4    4    0    0  0.78744856599E+02 -0.27157859089E+03  0.63866828779E+03  0.69846464857E+03  0.00000000000E+00 0.  1.
        -13    1    3    3    0    0  0.28827132042E+01  0.65416742371E+02 -0.49416785175E+02  0.82034619978E+02  0.00000000000E+00 0. -1.
         13    1    3    3    0    0 -0.18155545738E+03  0.33133543524E+03 -0.36230498085E+03  0.52346007861E+03  0.00000000000E+00 0.  1.
         21    1    1    2  502  501  0.29079187101E+02 -0.19310355793E+02 -0.13613001515E+02  0.37467356106E+02  0.00000000000E+00 0. -1.
<scales pt_clust_5="13000.00000" pt_clust_6="13000.00000" pt_clust_7="13000.00000" pt_clust_8="13000.00000" pt_clust_9="34.90686"></scales>
<clustering>
<clus scale="   34.907">  2  9  1 -1</clus>
<clus scale="   88.163">  7  8 -1 -1</clus>
<clus scale="   91.707">  5  6 -1 -1</clus>
<clus scale="  417.474">  2  7  1 -1</clus>
<clus scale="  418.237">  1  5  2 -1</clus>
</clustering>
</event>
<event>
 9    1  0.1266593E-005  0.1316843E+03  0.7546771E-02  0.1225216E+00
          2   -1    0    0  502    0  0.00000000000E+00  0.00000000000E+00  0.24298021780E+03  0.24298021780E+03  0.00000000000E+00 0. -1.
         -2   -1    0    0    0  501 -0.00000000000E+00 -0.00000000000E+00 -0.14053439516E+03  0.14053439516E+03  0.00000000000E+00 0.  1.
         23    2    1    2    0    0  0.65043522252E+02  0.23697852118E+02 -0.33436527468E+02  0.11837814096E+03  0.90017414457E+02 0.  0.
         23    2    1    2    0    0 -0.91712199865E+02 -0.48818724848E+02  0.16726071429E+03  0.21689874454E+03  0.90964406979E+02 0.  0.
        -11    1    4    4    0    0 -0.64367476834E+02 -0.68405408140E+01  0.31099360777E+02  0.71813197348E+02  0.00000000000E+00 0.  1.
         11    1    4    4    0    0 -0.27344723031E+02 -0.41978184034E+02  0.13616135351E+03  0.14508554719E+03  0.00000000000E+00 0. -1.
        -13    1    3    3    0    0  0.22419849324E+02  0.21376113433E+02  0.29205804270E+02  0.42574251283E+02  0.00000000000E+00 0. -1.
         13    1    3    3    0    0  0.42623672928E+02  0.23217386843E+01 -0.62642331737E+02  0.75803889675E+02  0.00000000000E+00 0.  1.
         21    1    1    2  502  501  0.26668677613E+02  0.25120872731E+02 -0.31378364183E+02  0.48237727467E+02  0.00000000000E+00 0.  1.
<scales pt_clust_5="13000.00000" pt_clust_6="13000.00000" pt_clust_7="13000.00000" pt_clust_8="13000.00000" pt_clust_9="36.63709"></scales>
<clustering>
<clus scale="   36.637">  2  9  1 -1</clus>
<clus scale="   90.017">  7  8 -1 -1</clus>
<clus scale="   90.964">  5  6 -1 -1</clus>
<clus scale="  131.032">  2  7  1 -1</clus>
<clus scale="  131.684">  1  5  2 -1</clus>
</clustering>
</event>
<event>
 9    1  0.1266593E-005  0.2069664E+03  0.7546771E-02  0.1167708E+00
         -1   -1    0    0    0  501 -0.00000000000E+00  0.00000000000E+00  0.20737304613E+03  0.20737304613E+03  0.00000000000E+00 0.  1.
          1   -1    0    0  502    0  0.00000000000E+00 -0.00000000000E+00 -0.47717553158E+03  0.47717553158E+03  0.00000000000E+00 0. -1.
         23    2    1    2    0    0  0.22442615796E+02  0.72571798443E+02  0.15289748809E+02  0.11964999725E+03  0.91170217123E+02 0.  0.
         23    2    1    2    0    0 -0.25927249948E+02 -0.20178141782E+03 -0.35423049025E+03  0.41831288246E+03  0.90102522392E+02 0.  0.
        -11    1    4    4    0    0 -0.34866885482E+02 -0.72698430020E+02 -0.73087563511E+02  0.10882349641E+03  0.00000000000E+00 0.  1.
         11    1    4    4    0    0  0.89396355346E+01 -0.12908298780E+03 -0.28114292674E+03  0.30948938605E+03  0.00000000000E+00 0. -1.
        -13    1    3    3    0    0 -0.12942072392E+02  0.80384516842E+02  0.33201389167E+01  0.81487367783E+02  0.00000000000E+00 0.  1.
         13    1    3    3    0    0  0.35384688188E+02 -0.78127183988E+01  0.11969609892E+02  0.38162629468E+02  0.00000000000E+00 0. -1.
         21    1    1    2  502  501  0.34846341515E+01  0.12920961938E+03  0.69138255998E+02  0.14658569800E+03  0.00000000000E+00 0.  1.
<scales pt_clust_5="13000.00000" pt_clust_6="13000.00000" pt_clust_7="13000.00000" pt_clust_8="13000.00000" pt_clust_9="186.32394"></scales>
<clustering>
<clus scale="   90.103">  5  6 -1 -1</clus>
<clus scale="   91.170">  7  8 -1 -1</clus>
<clus scale="  118.669">  1  7  2 -1</clus>
<clus scale="  186.324">  1  9  2 -1</clus>
<clus scale="  206.966">  2  5  1 -1</clus>
</clustering>
</event>
<event>
 9    1  0.1266593E-005  0.9470163E+02  0.7546771E-02  0.1291923E+00
          1   -1    0    0  502    0  0.00000000000E+00  0.00000000000E+00  0.25413134511E+03  0.25413134511E+03  0.00000000000E+00 0. -1.
         -1   -1    0    0    0  501 -0.00000000000E+00 -0.00000000000E+00 -0.10712168582E+03  0.10712168582E+03  0.00000000000E+00 0.  1.
         23    2    1    2    0    0 -0.57164399189E+02 -0.70085978105E+01 -0.99911701194E+01  0.10796698093E+03  0.90775307843E+02 0.  0.
         23    2    1    2    0    0 -0.16671500957E+02 -0.36042543468E+02  0.13024947727E+03  0.16372726618E+03  0.90910326581E+02 0.  0.
        -11    1    3    3    0    0 -0.35246239134E+02 -0.41259157645E+02  0.19579354854E+02  0.57688530915E+02  0.00000000000E+00 0. -1.
         11    1    3    3    0    0 -0.21918160055E+02  0.34250559835E+02 -0.29570524973E+02  0.50278450020E+02  0.00000000000E+00 0.  1.
        -13    1    4    4    0    0  0.32605199565E+01  0.28294629456E+02  0.21010571692E+02  0.35392953667E+02  0.00000000000E+00 0.  1.
         13    1    4    4    0    0 -0.19932020913E+02 -0.64337172923E+02  0.10923890557E+03  0.12833431251E+03  0.00000000000E+00 0. -1.
         21    1    1    2  502  501  0.73835900145E+02  0.43051141278E+02  0.26751352146E+02  0.89558783809E+02  0.00000000000E+00 0. -1.
<scales pt_clust_5="13000.00000" pt_clust_6="13000.00000" pt_clust_7="13000.00000" pt_clust_8="13000.00000" pt_clust_9="85.47012"></scales>
<clustering>
<clus scale="   85.470">  2  9  1 -1</clus>
<clus scale="   90.775">  5  6 -1 -1</clus>
<clus scale="   90.910">  7  8 -1 -1</clus>
<clus scale="   94.572">  2  5  1 -1</clus>
<clus scale="   94.702">  1  5  2 -1</clus>
</clustering>
</event>
<event>
 9    1  0.1266593E-005  0.1146656E+03  0.7546771E-02  0.1253282E+00
         -1   -1    0    0    0  501 -0.00000000000E+00  0.00000000000E+00  0.80263014383E+02  0.80263014383E+02  0.00000000000E+00 0.  1.
          1   -1    0    0  502    0  0.00000000000E+00 -0.00000000000E+00 -0.41376677379E+03  0.41376677379E+03  0.00000000000E+00 0. -1.
         23    2    1    2    0    0 -0.50091908869E+02  0.15372702606E+02 -0.14221584980E+03  0.17931228626E+03  0.95822903059E+02 0.  0.
         23    2    1    2    0    0  0.57238519576E+02 -0.44768854710E+02 -0.23421663208E+03  0.26220004751E+03  0.92795127543E+02 0.  0.
        -11    1    4    4    0    0 -0.75734499918E+01 -0.47187850203E+02 -0.13905445207E+03  0.14703805967E+03  0.00000000000E+00 0. -1.
         11    1    4    4    0    0  0.64811969567E+02  0.24189954934E+01 -0.95162180008E+02  0.11516198784E+03  0.00000000000E+00 0.  1.
        -13    1    3    3    0    0 -0.20211620112E+02  0.54820095524E+02 -0.63117468497E+02  0.86009111670E+02  0.00000000000E+00 0.  1.
         13    1    3    3    0    0 -0.29880288757E+02 -0.39447392918E+02 -0.79098381303E+02  0.93303174592E+02  0.00000000000E+00 0. -1.
         21    1    1    2  502  501 -0.71466107067E+01  0.29396152103E+02  0.42928722476E+02  0.52517454398E+02  0.00000000000E+00 0.  1.
<scales pt_clust_5="13000.00000" pt_clust_6="13000.00000" pt_clust_7="13000.00000" pt_clust_8="13000.00000" pt_clust_9="30.25240"></scales>
<clustering>
<clus scale="   30.252">  1  9  2 -1</clus>
<clus scale="   92.795">  5  6 -1 -1</clus>
<clus scale="   95.823">  7  8 -1 -1</clus>
<clus scale="  112.148">  2  5  1 -1</clus>
<clus scale="  112.148">  2  5  1 -1</clus>
</clustering>
</event>
<event>
 9    1  0.1266593E-005  0.9933779E+02  0.7546771E-02  0.1283778E+00
         -1   -1    0    0    0  501 -0.00000000000E+00  0.00000000000E+00  0.16662802143E+03  0.16662802143E+03  0.00000000000E+00 0.  1.
          1   -1    0    0  502    0  0.00000000000E+00 -0.00000000000E+00 -0.19233404768E+03  0.19233404768E+03  0.00000000000E+00 0. -1.
         23    2    1    2    0    0  0.53027196206E+01  0.43713274532E+02  0.10789021186E+03  0.14874249126E+03  0.92439502851E+02 0.  0.
         23    2    1    2    0    0 -0.17460689977E+02 -0.14578655378E+02 -0.14589103048E+03  0.17634031876E+03  0.96406962191E+02 0.  0.
        -11    1    3    3    0    0 -0.21716961550E+02  0.22298528892E+02 -0.42563157952E+01  0.31416031479E+02  0.00000000000E+00 0. -1.
         11    1    3    3    0    0  0.27019681171E+02  0.21414745640E+02  0.11214652765E+03  0.11732645979E+03  0.00000000000E+00 0.  1.
        -11    1    4    4    0    0 -0.11594804590E+02  0.41255499974E+02 -0.66175474301E+02  0.78839388446E+02  0.00000000000E+00 0. -1.
         11    1    4    4    0    0 -0.58658853868E+01 -0.55834155352E+02 -0.79715556176E+02  0.97500930312E+02  0.00000000000E+00 0.  1.
         21    1    1    2  502  501  0.12157970356E+02 -0.29134619154E+02  0.12294792368E+02  0.33879259080E+02  0.00000000000E+00 0.  1.
<scales pt_clust_5="13000.00000" pt_clust_6="13000.00000" pt_clust_7="13000.00000" pt_clust_8="13000.00000" pt_clust_9="31.56964"></scales>
<clustering>
<clus scale="   31.570">  1  9  2 -1</clus>
<clus scale="   92.440">  5  6 -1 -1</clus>
<clus scale="   95.492">  1  5  2 -1</clus>
<clus scale="   96.407">  7  8 -1 -1</clus>
<clus scale="   99.338">  2  5  1 -1</clus>
</clustering>
</event>
<event>
 9    1  0.1266593E-005  0.1108137E+03  0.7546771E-02  0.1259443E+00
          1   -1    0    0  502    0  0.00000000000E+00  0.00000000000E+00  0.23057831527E+03  0.23057831527E+03  0.00000000000E+00 0. -1.
         -1   -1    0    0    0  501 -0.00000000000E+00 -0.00000000000E+00 -0.10526600430E+03  0.10526600430E+03  0.00000000000E+00 0.  1.
         23    2    1    2    0    0  0.24883827831E+02 -0.47034078227E+02  0.32107008879E+02  0.10868898790E+03  0.89168529585E+02 0.  0.
         23    2    1    2    0    0 -0.47219767693E+02  0.53216361816E+02  0.13629047508E+03  0.17823246410E+03  0.90166679199E+02 0.  0.
        -11    1    4    4    0    0 -0.59647293227E+02  0.32281253475E+01  0.94984182163E+02  0.11220612837E+03  0.00000000000E+00 0. -1.
         11    1    4    4    0    0  0.12427525534E+02  0.49988236468E+02  0.41306292913E+02  0.66026335733E+02  0.00000000000E+00 0.  1.
        -13    1    3    3    0    0  0.14842326385E+02  0.19216979099E+02 -0.13357834486E+02  0.27713149954E+02  0.00000000000E+00 0.  1.
         13    1    3    3    0    0  0.10041501445E+02 -0.66251057326E+02  0.45464843365E+02  0.80975837941E+02  0.00000000000E+00 0. -1.
         21    1    1    2  502  501  0.22335939862E+02 -0.61822835888E+01 -0.43085172990E+02  0.48922867572E+02  0.00000000000E+00 0.  1.
<scales pt_clust_5="13000.00000" pt_clust_6="13000.00000" pt_clust_7="13000.00000" pt_clust_8="13000.00000" pt_clust_9="23.17574"></scales>
<clustering>
<clus scale="   23.176">  2  9  1 -1</clus>
<clus scale="   89.169">  7  8 -1 -1</clus>
<clus scale="   90.167">  5  6 -1 -1</clus>
<clus scale="  110.003">  2  7  1 -1</clus>
<clus scale="  110.814">  1  5  2 -1</clus>
</clustering>
</event>
<event>
 9    1  0.1266593E-005  0.1104874E+03  0.7546771E-02  0.1261085E+00
         -2   -1    0    0    0  501 -0.00000000000E+00  0.00000000000E+00  0.27447917326E+02  0.27447917326E+02  0.00000000000E+00 0.  1.
          2   -1    0    0  502    0  0.00000000000E+00 -0.00000000000E+00 -0.59771216568E+03  0.59771216568E+03  0.00000000000E+00 0. -1.
         23    2    1    2    0    0 -0.24238990862E+02  0.69490388318E+02 -0.25908188191E+03  0.28586484500E+03  0.95806290642E+02 0.  0.
         23    2    1    2    0    0  0.20023111926E+02 -0.36465700101E+02 -0.24823978130E+03  0.26809009288E+03  0.92296460325E+02 0.  0.
        -11    1    3    3    0    0 -0.20766595660E+02 -0.15621313425E+02 -0.22355283385E+02  0.34278792622E+02  0.00000000000E+00 0.  1.
         11    1    3    3    0    0 -0.34723952013E+01  0.85111701743E+02 -0.23672659853E+03  0.25158605238E+03  0.00000000000E+00 0. -1.
        -11    1    4    4    0    0 -0.20177181702E+01 -0.56264710308E+02 -0.83502421785E+02  0.10070969793E+03  0.00000000000E+00 0.  1.
         11    1    4    4    0    0  0.22040830097E+02  0.19799010207E+02 -0.16473735951E+03  0.16738039495E+03  0.00000000000E+00 0. -1.
         21    1    1    2  502  501  0.42158789352E+01 -0.33024688217E+02 -0.62942585148E+02  0.71205145124E+02  0.00000000000E+00 0.  1.
<scales pt_clust_5="13000.00000" pt_clust_6="13000.00000" pt_clust_7="13000.00000" pt_clust_8="13000.00000" pt_clust_9="33.29270"></scales>
<clustering>
<clus scale="   33.293">  1  9  2 -1</clus>
<clus scale="   92.296">  7  8 -1 -1</clus>
<clus scale="   95.806">  5  6 -1 -1</clus>
<clus scale="  107.458">  2  7  1 -1</clus>
<clus scale="  107.458">  2  5  1 -1</clus>
</clustering>
</event>
<event>
 9    1  0.1266593E-005  0.9634768E+02  0.7546771E-02  0.1289417E+00
          1   -1    0    0  502    0  0.00000000000E+00  0.00000000000E+00  0.34600492548E+03  0.34600492548E+03  0.00000000000E+00 0. -1.
         -1   -1    0    0    0  501 -0.00000000000E+00 -0.00000000000E+00 -0.38828034105E+03  0.38828034105E+03  0.00000000000E+00 0.  1.
         23    2    1    2    0    0 -0.57309731864E+01  0.51276422010E+02 -0.28647119127E+03  0.30526626244E+03  0.91976258059E+02 0.  0.
         23    2    1    2    0    0  0.14505693736E+02 -0.13050427156E+02  0.32513197907E+03  0.33908073961E+03  0.94256115780E+02 0.  0.
        -11    1    3    3    0    0  0.41173212646E+02  0.21871972298E+02 -0.17050537862E+03  0.17676453477E+03  0.00000000000E+00 0. -1.
         11    1    3    3    0    0 -0.46904185832E+02  0.29404449712E+02 -0.11596581265E+03  0.12850172767E+03  0.00000000000E+00 0.  1.
        -13    1    4    4    0    0 -0.31427718208E+02  0.10263029053E+02  0.55732289084E+02  0.64800611754E+02  0.00000000000E+00 0.  1.
         13    1    4    4    0    0  0.45933411944E+02 -0.23313456209E+02  0.26939968999E+03  0.27428012786E+03  0.00000000000E+00 0. -1.
         21    1    1    2  502  501 -0.87747205497E+01 -0.38225994855E+02 -0.80936203360E+02  0.89938264480E+02  0.00000000000E+00 0.  1.
<scales pt_clust_5="13000.00000" pt_clust_6="13000.00000" pt_clust_7="13000.00000" pt_clust_8="13000.00000" pt_clust_9="39.22018"></scales>
<clustering>
<clus scale="   39.220">  2  9  1 -1</clus>
<clus scale="   91.976">  5  6 -1 -1</clus>
<clus scale="   94.118">  2  5  1 -1</clus>
<clus scale="   94.256">  7  8 -1 -1</clus>
<clus scale="   96.348">  1  5  2 -1</clus>
</clustering>
</event>
<event>
 9    1  0.1266593E-005  0.9325573E+02  0.7546771E-02  0.1295653E+00
         -3   -1    0    0    0  501 -0.00000000000E+00  0.00000000000E+00  0.47065604195E+02  0.47065604195E+02  0.00000000000E+00 0.  1.
          3   -1    0    0  502    0  0.00000000000E+00 -0.00000000000E+00 -0.29052351109E+03  0.29052351109E+03  0.00000000000E+00 0. -1.
         23    2    1    2    0    0  0.86411353203E+01  0.10385763523E+02 -0.57610644407E+02  0.10870884262E+03  0.91192613796E+02 0.  0.
         23    2    1    2    0    0 -0.13840597257E+02  0.17408015352E+02 -0.17423228601E+03  0.19831172303E+03  0.92065459694E+02 0.  0.
        -11    1    4    4    0    0 -0.49157291276E+02 -0.97956396393E+01 -0.90741457009E+02  0.10366487284E+03  0.00000000000E+00 0. -1.
         11    1    4    4    0    0  0.35316694019E+02  0.27203654991E+02 -0.83490829005E+02  0.94646850181E+02  0.00000000000E+00 0.  1.
        -11    1    3    3    0    0  0.40377141904E+02  0.33721476709E+02 -0.29479273130E+02  0.60303226481E+02  0.00000000000E+00 0.  1.
         11    1    3    3    0    0 -0.31736006583E+02 -0.23335713186E+02 -0.28131371276E+02  0.48405616137E+02  0.00000000000E+00 0. -1.
         21    1    1    2  502  501  0.51994619370E+01 -0.27793778875E+02 -0.11614976471E+02  0.30568549639E+02  0.00000000000E+00 0. -1.
<scales pt_clust_5="13000.00000" pt_clust_6="13000.00000" pt_clust_7="13000.00000" pt_clust_8="13000.00000" pt_clust_9="28.27594"></scales>
<clustering>
<clus scale="   28.276">  1  9  2 -1</clus>
<clus scale="   91.193">  7  8 -1 -1</clus>
<clus scale="   92.065">  5  6 -1 -1</clus>
<clus scale="   92.394">  1  7  2 -1</clus>
<clus scale="   93.256">  2  5  1 -1</clus>
</clustering>
</event>
<event>
 9    1  0.1266593E-005  0.1195674E+03  0.7546771E-02  0.1248942E+00
          1   -1    0    0  502    0  0.00000000000E+00  0.00000000000E+00  0.97729546292E+02  0.97729546292E+02  0.00000000000E+00 0. -1.
         -1   -1    0    0    0  501 -0.00000000000E+00 -0.00000000000E+00 -0.17462001198E+03  0.17462001198E+03  0.00000000000E+00 0.  1.
         23    2    1    2    0    0  0.46718793093E+02 -0.19341302344E+02 -0.46897240455E+02  0.12697844279E+03  0.10661820749E+03 0.  0.
         23    2    1    2    0    0 -0.58880192745E+02 -0.53877997301E+01 -0.91712376942E+01  0.11083152521E+03  0.93293139598E+02 0.  0.
        -11    1    3    3    0    0  0.57023346490E+02 -0.15937233181E+01 -0.73714583706E+02  0.93209666076E+02  0.00000000000E+00 0.  1.
         11    1    3    3    0    0 -0.10304553397E+02 -0.17747579026E+02  0.26817343251E+02  0.33768776718E+02  0.00000000000E+00 0. -1.
        -13    1    4    4    0    0 -0.24134185110E+02  0.41568226266E+02 -0.18833065044E+02  0.51624225562E+02  0.00000000000E+00 0.  1.
         13    1    4    4    0    0 -0.34746007635E+02 -0.46956025997E+02  0.96618273502E+01  0.59207299649E+02  0.00000000000E+00 0. -1.
         21    1    1    2  502  501  0.12161399651E+02  0.24729102075E+02 -0.20821987541E+02  0.34539590270E+02  0.00000000000E+00 0.  1.
<scales pt_clust_5="13000.00000" pt_clust_6="13000.00000" pt_clust_7="13000.00000" pt_clust_8="13000.00000" pt_clust_9="27.55772"></scales>
<clustering>
<clus scale="   27.558">  2  9  1 -1</clus>
<clus scale="   93.293">  7  8 -1 -1</clus>
<clus scale="  106.618">  5  6 -1 -1</clus>
<clus scale="  107.854">  1  7  2 -1</clus>
<clus scale="  107.854">  1  5  2 -1</clus>
</clustering>
</event>
<event>
 9    1  0.1266593E-005  0.1167338E+03  0.7546771E-02  0.1248912E+00
         -1   -1    0    0    0  501 -0.00000000000E+00  0.00000000000E+00  0.23063649705E+03  0.23063649705E+03  0.00000000000E+00 0.  1.
          1   -1    0    0  502    0  0.00000000000E+00 -0.00000000000E+00 -0.14140886071E+03  0.14140886071E+03  0.00000000000E+00 0. -1.
         23    2    1    2    0    0  0.60062908176E+02  0.17219406603E+02  0.47971153846E+02  0.12066699832E+03  0.91406958049E+02 0.  0.
         23    2    1    2    0    0 -0.74149736042E+02  0.37374024847E+02 -0.59109241149E+02  0.13626033322E+03  0.90432156513E+02 0.  0.
        -11    1    3    3    0    0  0.80676000429E+02  0.12696635515E+02  0.54955947814E+02  0.98437684851E+02  0.00000000000E+00 0.  1.
         11    1    3    3    0    0 -0.20613092253E+02  0.45227710883E+01 -0.69847939683E+01  0.22229313469E+02  0.00000000000E+00 0. -1.
        -13    1    4    4    0    0 -0.64601998059E+02  0.65289178001E+02 -0.35485171378E+02  0.98464675417E+02  0.00000000000E+00 0. -1.
         13    1    4    4    0    0 -0.95477379827E+01 -0.27915153154E+02 -0.23624069770E+02  0.37795657802E+02  0.00000000000E+00 0.  1.
         21    1    1    2  502  501  0.14086827865E+02 -0.54593431450E+02  0.10036572365E+03  0.11511802622E+03  0.00000000000E+00 0.  1.
<scales pt_clust_5="13000.00000" pt_clust_6="13000.00000" pt_clust_7="13000.00000" pt_clust_8="13000.00000" pt_clust_9="56.38157"></scales>
<clustering>
<clus scale="   56.382">  1  9  2 -1</clus>
<clus scale="   90.432">  7  8 -1 -1</clus>
<clus scale="   91.407">  5  6 -1 -1</clus>
<clus scale="  115.972">  2  7  1 -1</clus>
<clus scale="  115.972">  2  5  1 -1</clus>
</clustering>
</event>
<event>
 9    1  0.1266593E-005  0.9443635E+02  0.7546771E-02  0.1292909E+00
         -1   -1    0    0    0  501 -0.00000000000E+00  0.00000000000E+00  0.77059822500E+02  0.77059822500E+02  0.00000000000E+00 0.  1.
          1   -1    0    0  502    0  0.00000000000E+00 -0.00000000000E+00 -0.26608801854E+03  0.26608801854E+03  0.00000000000E+00 0. -1.
         23    2    1    2    0    0 -0.29368703083E+02  0.36754354830E+02 -0.24569202597E+02  0.10526468117E+03  0.90904367691E+02 0.  0.
         23    2    1    2    0    0  0.18677844358E+02 -0.85576954852E+01 -0.18120122234E+03  0.20339188146E+03  0.90068187746E+02 0.  0.
        -11    1    4    4    0    0 -0.28043565654E+02 -0.17918075918E+02 -0.29807291446E+02  0.44676320826E+02  0.00000000000E+00 0.  1.
         11    1    4    4    0    0  0.46721410012E+02  0.93603804327E+01 -0.15139393090E+03  0.15871556063E+03  0.00000000000E+00 0. -1.
        -13    1    3    3    0    0 -0.57269893606E+02  0.38093079272E+02 -0.32718279514E+02  0.76166982456E+02  0.00000000000E+00 0. -1.
         13    1    3    3    0    0  0.27901190523E+02 -0.13387244418E+01  0.81490769173E+01  0.29097698712E+02  0.00000000000E+00 0.  1.
         21    1    1    2  502  501  0.10690858725E+02 -0.28196659345E+02  0.16742228894E+02  0.34491278417E+02  0.00000000000E+00 0.  1.
<scales pt_clust_5="13000.00000" pt_clust_6="13000.00000" pt_clust_7="13000.00000" pt_clust_8="13000.00000" pt_clust_9="30.15537"></scales>
<clustering>
<clus scale="   30.155">  1  9  2 -1</clus>
<clus scale="   90.068">  5  6 -1 -1</clus>
<clus scale="   90.904">  7  8 -1 -1</clus>
<clus scale="   93.632">  2  5  1 -1</clus>
<clus scale="   93.632">  2  5  1 -1</clus>
</clustering>
</event>
<event>
 9    1  0.1266593E-005  0.1628767E+03  0.7546771E-02  0.1210267E+00
         -3   -1    0    0    0  501 -0.00000000000E+00  0.00000000000E+00  0.16017600441E+03  0.16017600441E+03  0.00000000000E+00 0.  1.
          3   -1    0    0  502    0  0.00000000000E+00 -0.00000000000E+00 -0.39540949794E+03  0.39540949794E+03  0.00000000000E+00 0. -1.
         23    2    1    2    0    0 -0.33258837591E+01 -0.15817451900E+03 -0.20264656209E+03  0.27283244135E+03  0.91332754038E+02 0.  0.
         23    2    1    2    0    0  0.10346262144E+02  0.27417594226E+02 -0.97967858754E+02  0.13639280428E+03  0.90258108210E+02 0.  0.
        -11    1    3    3    0    0  0.18246055361E+02 -0.85739738937E+02 -0.16841547167E+03  0.18986308874E+03  0.00000000000E+00 0. -1.
         11    1    3    3    0    0 -0.21571939120E+02 -0.72434780066E+02 -0.34231090425E+02  0.82969352609E+02  0.00000000000E+00 0.  1.
        -11    1    4    4    0    0 -0.27731725728E+02  0.44890535166E+02 -0.59346714564E+02  0.79411846024E+02  0.00000000000E+00 0.  1.
         11    1    4    4    0    0  0.38077987872E+02 -0.17472940941E+02 -0.38621144191E+02  0.56980958259E+02  0.00000000000E+00 0. -1.
         21    1    1    2  502  501 -0.70203783852E+01  0.13075692478E+03  0.65380927321E+02  0.14636025672E+03  0.00000000000E+00 0.  1.
<scales pt_clust_5="13000.00000" pt_clust_6="13000.00000" pt_clust_7="13000.00000" pt_clust_8="13000.00000" pt_clust_9="134.85971"></scales>
<clustering>
<clus scale="   90.258">  7  8 -1 -1</clus>
<clus scale="   91.333">  5  6 -1 -1</clus>
<clus scale="   94.896">  2  7  1 -1</clus>
<clus scale="  134.860">  1  9  2 -1</clus>
<clus scale="   94.896">  2  5  1 -1</clus>
</clustering>
</event>
<event>
 9    1  0.1266593E-005  0.1005613E+03  0.7546771E-02  0.1281517E+00
          2   -1    0    0  502    0  0.00000000000E+00  0.00000000000E+00  0.12113210099E+03  0.12113210099E+03  0.00000000000E+00 0. -1.
         -2   -1    0    0    0  501 -0.00000000000E+00 -0.00000000000E+00 -0.20391514003E+03  0.20391514003E+03  0.00000000000E+00 0.  1.
         23    2    1    2    0    0  0.52571894346E+02 -0.10759967167E+02 -0.52598072214E+02  0.11542577563E+03  0.87618328623E+02 0.  0.
         23    2    1    2    0    0 -0.31480813366E+02 -0.22324452472E+02  0.56074987827E+02  0.11485758885E+03  0.92511829889E+02 0.  0.
        -11    1    4    4    0    0  0.19803061035E+02 -0.24352725323E+02  0.55230626575E+02  0.63526676041E+02  0.00000000000E+00 0.  1.
         11    1    4    4    0    0 -0.51283874401E+02  0.20282728515E+01  0.84436125208E+00  0.51330912814E+02  0.00000000000E+00 0. -1.
        -13    1    3    3    0    0 -0.12869727742E+02 -0.15505078506E+02  0.11914716912E+02  0.23409353488E+02  0.00000000000E+00 0. -1.
         13    1    3    3    0    0  0.65441622088E+02  0.47451113389E+01 -0.64512789126E+02  0.92016422143E+02  0.00000000000E+00 0.  1.
         21    1    1    2  502  501 -0.21091080980E+02  0.33084419638E+02 -0.86259954648E+02  0.94763876533E+02  0.00000000000E+00 0.  1.
<scales pt_clust_5="13000.00000" pt_clust_6="13000.00000" pt_clust_7="13000.00000" pt_clust_8="13000.00000" pt_clust_9="39.23535"></scales>
<clustering>
<clus scale="   39.235">  2  9  1 -1</clus>
<clus scale="   87.618">  7  8 -1 -1</clus>
<clus scale="   92.512">  5  6 -1 -1</clus>
<clus scale="   96.079">  2  7  1 -1</clus>
<clus scale="  100.561">  1  5  2 -1</clus>
</clustering>
</event>
<event>
 9    1  0.1266593E-005  0.1135459E+03  0.7546771E-02  0.1254952E+00
          3   -1    0    0  502    0  0.00000000000E+00  0.00000000000E+00  0.22064883425E+03  0.22064883425E+03  0.00000000000E+00 0. -1.
         -3   -1    0    0    0  501 -0.00000000000E+00 -0.00000000000E+00 -0.13090743411E+03  0.13090743411E+03  0.00000000000E+00 0.  1.
         23    2    1    2    0    0 -0.50907901267E+02 -0.18973846744E+02 -0.32591045976E+02  0.11306628829E+03  0.93649281889E+02 0.  0.
         23    2    1    2    0    0  0.55788512006E+02  0.78663897618E+02  0.44226289801E+02  0.14006592718E+03  0.91444695782E+02 0.  0.
        -11    1    4    4    0    0  0.71038780579E+02  0.60702438824E+02  0.40978007807E+01  0.93531205469E+02  0.00000000000E+00 0.  1.
         11    1    4    4    0    0 -0.15250268573E+02  0.17961458795E+02  0.40128489021E+02  0.46534721710E+02  0.00000000000E+00 0. -1.
        -13    1    3    3    0    0  0.21344974636E+02 -0.67111671838E+01 -0.32890236601E+02  0.39779584850E+02  0.00000000000E+00 0.  1.
         13    1    3    3    0    0 -0.72252875902E+02 -0.12262679560E+02  0.29919062526E+00  0.73286703440E+02  0.00000000000E+00 0. -1.
         21    1    1    2  502  501 -0.48806107394E+01 -0.59690050874E+02  0.78106156312E+02  0.98424052896E+02  0.00000000000E+00 0. -1.
<scales pt_clust_5="13000.00000" pt_clust_6="13000.00000" pt_clust_7="13000.00000" pt_clust_8="13000.00000" pt_clust_9="59.88925"></scales>
<clustering>
<clus scale="   59.889">  1  9  2 -1</clus>
<clus scale="   91.445">  5  6 -1 -1</clus>
<clus scale="   93.649">  7  8 -1 -1</clus>
<clus scale="  111.735">  1  5  2 -1</clus>
<clus scale="   59.889">  1  5  2 -1</clus>
</clustering>
</event>
<event>
 9    1  0.1266593E-005  0.2408029E+03  0.7546771E-02  0.1147855E+00
         -2   -1    0    0    0  501 -0.00000000000E+00  0.00000000000E+00  0.40341086837E+03  0.40341086837E+03  0.00000000000E+00 0.  1.
          2   -1    0    0  502    0  0.00000000000E+00 -0.00000000000E+00 -0.36820276638E+03  0.36820276638E+03  0.00000000000E+00 0. -1.
         23    2    1    2    0    0 -0.88985358583E+02  0.28433741539E+03 -0.10545163306E+03  0.32919030976E+03  0.92087204813E+02 0.  0.
         23    2    1    2    0    0  0.32460892860E+02 -0.84164876161E+02 -0.76145759914E+02  0.14197585315E+03  0.78876677032E+02 0.  0.
        -11    1    4    4    0    0  0.14734446111E+01 -0.69445228950E+02 -0.13805216255E+02  0.70819452545E+02  0.00000000000E+00 0.  1.
         11    1    4    4    0    0  0.30987448249E+02 -0.14719647211E+02 -0.62340543659E+02  0.71156400602E+02  0.00000000000E+00 0. -1.
        -11    1    3    3    0    0 -0.31264834731E+02  0.20408903490E+03 -0.10197211053E+03  0.23027838670E+03  0.00000000000E+00 0. -1.
         11    1    3    3    0    0 -0.57720523852E+02  0.80248380497E+02 -0.34795225304E+01  0.98911923059E+02  0.00000000000E+00 0.  1.
         21    1    1    2  502  501  0.56524465723E+02 -0.20017253923E+03  0.21680549496E+03  0.30044747184E+03  0.00000000000E+00 0.  1.
<scales pt_clust_5="13000.00000" pt_clust_6="13000.00000" pt_clust_7="13000.00000" pt_clust_8="13000.00000" pt_clust_9="222.49944"></scales>
<clustering>
<clus scale="   78.877">  5  6 -1 -1</clus>
<clus scale="   92.087">  7  8 -1 -1</clus>
<clus scale="  119.829">  2  5  1 -1</clus>
<clus scale="  222.499">  1  9  2 -1</clus>
<clus scale="  119.829">  2  5  1 -1</clus>
</clustering>
</event>
<event>
 9    1  0.1266593E-005  0.9731953E+02  0.7546771E-02  0.1292399E+00
          1   -1    0    0  502    0  0.00000000000E+00  0.00000000000E+00  0.13836640224E+03  0.13836640224E+03  0.00000000000E+00 0. -1.
         -1   -1    0    0    0  501 -0.00000000000E+00 -0.00000000000E+00 -0.21074594574E+03  0.21074594574E+03  0.00000000000E+00 0.  1.
         23    2    1    2    0    0  0.43014919470E+02 -0.88919800437E+01  0.84055228966E+01  0.10144621163E+03  0.91056742933E+02 0.  0.
         23    2    1    2    0    0 -0.29671191699E+02 -0.11684318369E+02  0.60237369593E+02  0.10452715990E+03  0.79249501882E+02 0.  0.
        -11    1    3    3    0    0 -0.22209921736E+02  0.17631033697E+02  0.12338253753E+02  0.30925175479E+02  0.00000000000E+00 0. -1.
         11    1    3    3    0    0  0.65224841206E+02 -0.26523013741E+02 -0.39327308563E+01  0.70521036154E+02  0.00000000000E+00 0.  1.
        -13    1    4    4    0    0 -0.11173236919E+02  0.33063807563E+02  0.14088296122E+02  0.37636905843E+02  0.00000000000E+00 0.  1.
         13    1    4    4    0    0 -0.18497954780E+02 -0.44748125932E+02  0.46149073471E+02  0.66890254056E+02  0.00000000000E+00 0. -1.
         21    1    1    2  502  501 -0.13343727772E+02  0.20576298412E+02 -0.14102243599E+03  0.14313897645E+03  0.00000000000E+00 0.  1.
<scales pt_clust_5="13000.00000" pt_clust_6="13000.00000" pt_clust_7="13000.00000" pt_clust_8="13000.00000" pt_clust_9="24.52426"></scales>
<clustering>
<clus scale="   24.524">  2  9  1 -1</clus>
<clus scale="   79.250">  7  8 -1 -1</clus>
<clus scale="   86.373">  1  7  2 -1</clus>
<clus scale="   91.057">  5  6 -1 -1</clus>
<clus scale="   86.373">  1  5  2 -1</clus>
</clustering>
</event>
<event>
 9    1  0.1266593E-005  0.1241999E+03  0.7546771E-02  0.1240814E+00
         -1   -1    0    0    0  501 -0.00000000000E+00  0.00000000000E+00  0.18769283554E+03  0.18769283554E+03  0.00000000000E+00 0.  1.
          1   -1    0    0  502    0  0.00000000000E+00 -0.00000000000E+00 -0.11623085963E+03  0.11623085963E+03  0.00000000000E+00 0. -1.
         23    2    1    2    0    0  0.22292028275E+02  0.39408253354E+02  0.73123873844E+02  0.12760706493E+03  0.94268325201E+02 0.  0.
         23    2    1    2    0    0 -0.30057430673E+02 -0.65068166144E+02 -0.35022756619E+02  0.13351850540E+03  0.10706671947E+03 0.  0.
        -11    1    4    4    0    0 -0.67815054416E+02 -0.29231110162E+02 -0.34380064088E+02  0.81457523983E+02  0.00000000000E+00 0. -1.
         11    1    4    4    0    0  0.37757623743E+02 -0.35837055982E+02 -0.64269253104E+00  0.52060981414E+02  0.00000000000E+00 0.  1.
        -11    1    3    3    0    0  0.41697697129E+02 -0.11574567921E+02  0.10450982032E+02  0.44518441054E+02  0.00000000000E+00 0.  1.
         11    1    3    3    0    0 -0.19405668854E+02  0.50982821275E+02  0.62672891812E+02  0.83088623872E+02  0.00000000000E+00 0. -1.
         21    1    1    2  502  501  0.77654023979E+01  0.25659912790E+02  0.33360858685E+02  0.42798124853E+02  0.00000000000E+00 0.  1.
<scales pt_clust_5="13000.00000" pt_clust_6="13000.00000" pt_clust_7="13000.00000" pt_clust_8="13000.00000" pt_clust_9="26.80919"></scales>
<clustering>
<clus scale="   26.809">  1  9  2 -1</clus>
<clus scale="   94.268">  7  8 -1 -1</clus>
<clus scale="  107.067">  5  6 -1 -1</clus>
<clus scale="  113.353">  1  7  2 -1</clus>
<clus scale="  124.200">  2  5  1 -1</clus>
</clustering>
</event>
<event>
 9    1  0.1266593E-005  0.1285983E+03  0.7546771E-02  0.1232658E+00
          1   -1    0    0  502    0  0.00000000000E+00  0.00000000000E+00  0.51779836025E+03  0.51779836025E+03  0.00000000000E+00 0. -1.
         -1   -1    0    0    0  501 -0.00000000000E+00 -0.00000000000E+00 -0.60586641737E+02  0.60586641737E+02  0.00000000000E+00 0.  1.
         23    2    1    2    0    0  0.11186335194E+02 -0.67651278290E+02  0.13326453719E+03  0.17832511042E+03  0.96636321251E+02 0.  0.
         23    2    1    2    0    0 -0.26206424450E+02  0.89415253088E+02  0.34420065518E+03  0.36675108068E+03  0.85734473738E+02 0.  0.
        -13    1    3    3    0    0 -0.34652124152E+02 -0.63643518637E+02  0.80204893688E+02  0.10809297916E+03  0.00000000000E+00 0.  1.
         13    1    3    3    0    0  0.45838459345E+02 -0.40077596534E+01  0.53059643499E+02  0.70232131257E+02  0.00000000000E+00 0. -1.
        -13    1    4    4    0    0 -0.17093072338E+02  0.53655507055E+02  0.31415965540E+03  0.31916668943E+03  0.00000000000E+00 0. -1.
         13    1    4    4    0    0 -0.91133521118E+01  0.35759746032E+02  0.30040999775E+02  0.47584391248E+02  0.00000000000E+00 0.  1.
         21    1    1    2  502  501  0.15020089256E+02 -0.21763974797E+02 -0.20253473847E+02  0.33308810893E+02  0.00000000000E+00 0.  1.
<scales pt_clust_5="13000.00000" pt_clust_6="13000.00000" pt_clust_7="13000.00000" pt_clust_8="13000.00000" pt_clust_9="26.44378"></scales>
<clustering>
<clus scale="   26.444">  2  9  1 -1</clus>
<clus scale="   85.734">  7  8 -1 -1</clus>
<clus scale="   96.636">  5  6 -1 -1</clus>
<clus scale="  120.621">  1  7  2 -1</clus>
<clus scale="  120.621">  1  5  2 -1</clus>
</clustering>
</event>
<event>
 9    1  0.1266593E-005  0.9609754E+02  0.7546771E-02  0.1295902E+00
          3   -1    0    0  502    0  0.00000000000E+00  0.00000000000E+00  0.38282484974E+03  0.38282484974E+03  0.00000000000E+00 0. -1.
         -3   -1    0    0    0  501 -0.00000000000E+00 -0.00000000000E+00 -0.64429469272E+02  0.64429469272E+02  0.00000000000E+00 0.  1.
         23    2    1    2    0    0  0.18241698689E+02  0.85119986584E+01  0.50606834281E+02  0.92990838471E+02  0.75372612211E+02 0.  0.
         23    2    1    2    0    0 -0.27755439662E+02 -0.34566714932E+02  0.29753094360E+03  0.31359445410E+03  0.88609237851E+02 0.  0.
        -11    1    4    4    0    0  0.31537120366E+02 -0.21948711595E+02  0.11959331131E+03  0.12561407569E+03  0.00000000000E+00 0.  1.
         11    1    4    4    0    0 -0.59292560028E+02 -0.12618003337E+02  0.17793763229E+03  0.18798037841E+03  0.00000000000E+00 0. -1.
        -13    1    3    3    0    0 -0.19189493466E+02 -0.77229668631E+01 -0.74890890908E+01  0.21999257534E+02  0.00000000000E+00 0.  1.
         13    1    3    3    0    0  0.37431192155E+02  0.16234965522E+02  0.58095923371E+02  0.70991580937E+02  0.00000000000E+00 0. -1.
         21    1    1    2  502  501  0.95137409732E+01  0.26054716274E+02 -0.29742397413E+02  0.40669026436E+02  0.00000000000E+00 0.  1.
<scales pt_clust_5="13000.00000" pt_clust_6="13000.00000" pt_clust_7="13000.00000" pt_clust_8="13000.00000" pt_clust_9="27.73733"></scales>
<clustering>
<clus scale="   27.737">  2  9  1 -1</clus>
<clus scale="   75.373">  7  8 -1 -1</clus>
<clus scale="   84.049">  2  7  1 -1</clus>
<clus scale="   88.609">  5  6 -1 -1</clus>
<clus scale="   96.098">  1  5  2 -1</clus>
</clustering>
</event>
<event>
 9    1  0.1266593E-005  0.1005078E+03  0.7546771E-02  0.1280049E+00
          1   -1    0    0  502    0  0.00000000000E+00  0.00000000000E+00  0.43067683114E+03  0.43067683114E+03  0.00000000000E+00 0. -1.
         -1   -1    0    0    0  501 -0.00000000000E+00 -0.00000000000E+00 -0.56659822041E+02  0.56659822041E+02  0.00000000000E+00 0.  1.
         23    2    1    2    0    0 -0.18697401486E+02 -0.32726144471E+02  0.35564012949E+02  0.10358169980E+03  0.89687101423E+02 0.  0.
         23    2    1    2    0    0 -0.60678803656E+01  0.43747196622E+02  0.34169582205E+03  0.35645479412E+03  0.91396657814E+02 0.  0.
        -11    1    4    4    0    0 -0.22317736936E+02 -0.14897458069E+02  0.36792472466E+02  0.45537914632E+02  0.00000000000E+00 0.  1.
         11    1    4    4    0    0  0.16249856570E+02  0.58644654691E+02  0.30490334959E+03  0.31091687949E+03  0.00000000000E+00 0. -1.
        -13    1    3    3    0    0 -0.50621499242E+02 -0.35710305393E+02  0.35735946564E+02  0.71517969585E+02  0.00000000000E+00 0.  1.
         13    1    3    3    0    0  0.31924097756E+02  0.29841609217E+01 -0.17193361525E+00  0.32063730212E+02  0.00000000000E+00 0. -1.
         21    1    1    2  502  501  0.24765281851E+02 -0.11021052151E+02 -0.32428259056E+01  0.27300159259E+02  0.00000000000E+00 0.  1.
<scales pt_clust_5="13000.00000" pt_clust_6="13000.00000" pt_clust_7="13000.00000" pt_clust_8="13000.00000" pt_clust_9="27.10688"></scales>
<clustering>
<clus scale="   27.107">  2  9  1 -1</clus>
<clus scale="   89.687">  7  8 -1 -1</clus>
<clus scale="   91.397">  5  6 -1 -1</clus>
<clus scale="   98.956">  2  7  1 -1</clus>
<clus scale="  100.508">  1  5  2 -1</clus>
</clustering>
</event>
<event>
 9    1  0.1266593E-005  0.1211244E+03  0.7546771E-02  0.1242022E+00
         -3   -1    0    0    0  501 -0.00000000000E+00  0.00000000000E+00  0.11523443118E+03  0.11523443118E+03  0.00000000000E+00 0.  1.
          3   -1    0    0  502    0  0.00000000000E+00 -0.00000000000E+00 -0.21490251130E+03  0.21490251130E+03  0.00000000000E+00 0. -1.
         23    2    1    2    0    0  0.67181108322E+02 -0.24863025954E+02  0.63719693431E+01  0.11435820366E+03  0.88914146092E+02 0.  0.
         23    2    1    2    0    0 -0.69746450744E+02  0.45250952428E+02 -0.13322291592E+03  0.18170298855E+03  0.91407957174E+02 0.  0.
        -11    1    3    3    0    0  0.30069342124E+02 -0.55527687376E+02  0.16271740236E+02  0.65209346964E+02  0.00000000000E+00 0. -1.
         11    1    3    3    0    0  0.37111766198E+02  0.30664661422E+02 -0.98997708933E+01  0.49148856693E+02  0.00000000000E+00 0.  1.
        -13    1    4    4    0    0 -0.54191277230E+02 -0.18758490829E+02 -0.68783822286E+02  0.89553278634E+02  0.00000000000E+00 0.  1.
         13    1    4    4    0    0 -0.15555173514E+02  0.64009443257E+02 -0.64439093637E+02  0.92149709917E+02  0.00000000000E+00 0. -1.
         21    1    1    2  502  501  0.25653424217E+01 -0.20387926474E+02  0.27182866458E+02  0.34075750271E+02  0.00000000000E+00 0.  1.
<scales pt_clust_5="13000.00000" pt_clust_6="13000.00000" pt_clust_7="13000.00000" pt_clust_8="13000.00000" pt_clust_9="20.54869"></scales>
<clustering>
<clus scale="   20.549">  1  9  2 -1</clus>
<clus scale="   88.914">  5  6 -1 -1</clus>
<clus scale="   91.408">  7  8 -1 -1</clus>
<clus scale="  119.254">  1  5  2 -1</clus>
<clus scale="  121.124">  2  5  1 -1</clus>
</clustering>
</event>
<event>
 9    1  0.1266593E-005  0.9498595E+02  0.7546771E-02  0.1292676E+00
          1   -1    0    0  502    0  0.00000000000E+00  0.00000000000E+00  0.55543880290E+03  0.55543880290E+03  0.00000000000E+00 0. -1.
         -1   -1    0    0    0  501 -0.00000000000E+00 -0.00000000000E+00 -0.44900193105E+02  0.44900193105E+02  0.00000000000E+00 0.  1.
         23    2    1    2    0    0  0.60355638559E+01  0.13704597849E+02  0.24416867068E+03  0.26208896051E+03  0.94064017786E+02 0.  0.
         23    2    1    2    0    0  0.25122601809E+02 -0.25316107733E+01  0.28491974817E+03  0.30030583510E+03  0.91470090862E+02 0.  0.
        -11    1    4    4    0    0  0.41670153628E+02 -0.37592442247E+02  0.16888052153E+03  0.17796129907E+03  0.00000000000E+00 0.  1.
         11    1    4    4    0    0 -0.16547551818E+02  0.35060831474E+02  0.11603922665E+03  0.12234453603E+03  0.00000000000E+00 0. -1.
        -13    1    3    3    0    0 -0.66905211841E+01  0.46871644413E+02  0.19936757750E+03  0.20491253032E+03  0.00000000000E+00 0. -1.
         13    1    3    3    0    0  0.12726085040E+02 -0.33167046564E+02  0.44801093179E+02  0.57176430182E+02  0.00000000000E+00 0.  1.
         21    1    1    2  502  501 -0.31158165665E+02 -0.11172987076E+02 -0.18549809061E+02  0.37944200400E+02  0.00000000000E+00 0.  1.
<scales pt_clust_5="13000.00000" pt_clust_6="13000.00000" pt_clust_7="13000.00000" pt_clust_8="13000.00000" pt_clust_9="33.10086"></scales>
<clustering>
<clus scale="   33.101">  2  9  1 -1</clus>
<clus scale="   91.470">  5  6 -1 -1</clus>
<clus scale="   92.418">  1  5  2 -1</clus>
<clus scale="   94.064">  7  8 -1 -1</clus>
<clus scale="   92.418">  1  5  2 -1</clus>
</clustering>
</event>
<event>
 9    1  0.1266593E-005  0.1480472E+03  0.7546771E-02  0.1224683E+00
          2   -1    0    0  502    0  0.00000000000E+00  0.00000000000E+00  0.56865096979E+03  0.56865096979E+03  0.00000000000E+00 0. -1.
         -2   -1    0    0    0  501 -0.00000000000E+00 -0.00000000000E+00 -0.89311094030E+02  0.89311094030E+02  0.00000000000E+00 0.  1.
         23    2    1    2    0    0 -0.97869862183E+02  0.80792690101E+02  0.35884755793E+03  0.39084652666E+03  0.88788900575E+02 0.  0.
         23    2    1    2    0    0  0.52933188330E+01 -0.90492522400E+01  0.11744107763E+03  0.14995390811E+03  0.92649121167E+02 0.  0.
        -11    1    3    3    0    0 -0.39351423118E+02  0.85809191013E+02  0.19176977445E+03  0.21374610677E+03  0.00000000000E+00 0. -1.
         11    1    3    3    0    0 -0.58518439065E+02 -0.50165009117E+01  0.16707778348E+03  0.17710041989E+03  0.00000000000E+00 0.  1.
        -11    1    4    4    0    0  0.36776739595E+01 -0.43336454464E+02  0.22436149369E+02  0.48938271013E+02  0.00000000000E+00 0.  1.
         11    1    4    4    0    0  0.16156448735E+01  0.34287202224E+02  0.95004928262E+02  0.10101563710E+03  0.00000000000E+00 0. -1.
         21    1    1    2  502  501  0.92576543350E+02 -0.71743437861E+02  0.30512401920E+01  0.11716162905E+03  0.00000000000E+00 0.  1.
<scales pt_clust_5="13000.00000" pt_clust_6="13000.00000" pt_clust_7="13000.00000" pt_clust_8="13000.00000" pt_clust_9="118.46732"></scales>
<clustering>
<clus scale="   88.789">  5  6 -1 -1</clus>
<clus scale="   92.649">  7  8 -1 -1</clus>
<clus scale="   93.240">  1  7  2 -1</clus>
<clus scale="  118.467">  2  9  1 -1</clus>
<clus scale="   93.240">  1  5  2 -1</clus>
</clustering>
</event>
<event>
 9    1  0.1266593E-005  0.2081339E+03  0.7546771E-02  0.1143255E+00
         -1   -1    0    0    0  501 -0.00000000000E+00  0.00000000000E+00  0.15629718325E+03  0.15629718325E+03  0.00000000000E+00 0.  1.
          1   -1    0    0  502    0  0.00000000000E+00 -0.00000000000E+00 -0.60948976146E+03  0.60948976146E+03  0.00000000000E+00 0. -1.
         23    2    1    2    0    0  0.99417753973E+02 -0.15463305596E+03  0.39398130705E+02  0.20903766765E+03  0.91374296130E+02 0.  0.
         23    2    1    2    0    0 -0.82136879859E+02  0.18178850866E+03 -0.46411002436E+03  0.51377025177E+03  0.93638816632E+02 0.  0.
        -11    1    3    3    0    0  0.65838038481E+02 -0.14544858033E+03  0.44628579424E+01  0.15971804510E+03  0.00000000000E+00 0. -1.
         11    1    3    3    0    0  0.33579715492E+02 -0.91844756302E+01  0.34935272763E+02  0.49319622547E+02  0.00000000000E+00 0.  1.
        -13    1    4    4    0    0 -0.74796334578E+02  0.13603926209E+03 -0.24673694679E+03  0.29151379625E+03  0.00000000000E+00 0. -1.
         13    1    4    4    0    0 -0.73405452814E+01  0.45749246577E+02 -0.21737307757E+03  0.22225645552E+03  0.00000000000E+00 0.  1.
         21    1    1    2  502  501 -0.17280874114E+02 -0.27155452706E+02 -0.28480684557E+02  0.42979025287E+02  0.00000000000E+00 0. -1.
<scales pt_clust_5="13000.00000" pt_clust_6="13000.00000" pt_clust_7="13000.00000" pt_clust_8="13000.00000" pt_clust_9="32.18769"></scales>
<clustering>
<clus scale="   32.188">  2  9  1 -1</clus>
<clus scale="   91.374">  5  6 -1 -1</clus>
<clus scale="   93.639">  7  8 -1 -1</clus>
<clus scale="  207.125">  1  5  2 -1</clus>
<clus scale="   32.188">  2  5  1 -1</clus>
</clustering>
</event>
<event>
 9    1  0.1266593E-005  0.1349419E+03  0.7546771E-02  0.1226002E+00
          1   -1    0    0  502    0  0.00000000000E+00  0.00000000000E+00  0.13034839555E+03  0.13034839555E+03  0.00000000000E+00 0. -1.
         -1   -1    0    0    0  501 -0.00000000000E+00 -0.00000000000E+00 -0.36170418187E+03  0.36170418187E+03  0.00000000000E+00 0.  1.
         23    2    1    2    0    0  0.60411141126E+02 -0.81680809646E+01 -0.26463399239E+03  0.29272439584E+03  0.10927121520E+03 0.  0.
         23    2    1    2    0    0 -0.80270962191E+02 -0.15081399370E+02  0.78587033431E+02  0.14466703756E+03  0.89898575941E+02 0.  0.
        -13    1    4    4    0    0 -0.70204705260E+02  0.29205307279E+02  0.48451830164E+02  0.90162245203E+02  0.00000000000E+00 0.  1.
         13    1    4    4    0    0 -0.10066256931E+02 -0.44286706649E+02  0.30135203268E+02  0.54504792361E+02  0.00000000000E+00 0. -1.
        -13    1    3    3    0    0  0.45333819985E+02  0.33203952334E+02 -0.55411153527E+02  0.78918018349E+02  0.00000000000E+00 0.  1.
         13    1    3    3    0    0  0.15077321141E+02 -0.41372033298E+02 -0.20922283887E+03  0.21380637749E+03  0.00000000000E+00 0. -1.
         21    1    1    2  502  501  0.19859821065E+02  0.23249480334E+02 -0.45308827359E+02  0.54661144017E+02  0.00000000000E+00 0.  1.
<scales pt_clust_5="13000.00000" pt_clust_6="13000.00000" pt_clust_7="13000.00000" pt_clust_8="13000.00000" pt_clust_9="30.57697"></scales>
<clustering>
<clus scale="   30.577">  2  9  1 -1</clus>
<clus scale="   89.899">  5  6 -1 -1</clus>
<clus scale="  109.271">  7  8 -1 -1</clus>
<clus scale="  119.795">  1  5  2 -1</clus>
<clus scale="  119.795">  1  5  2 -1</clus>
</clustering>
</event>
<event>
 9    1  0.1266593E-005  0.1290044E+03  0.7546771E-02  0.1229265E+00
         -1   -1    0    0    0  501 -0.00000000000E+00  0.00000000000E+00  0.65892208956E+02  0.65892208956E+02  0.00000000000E+00 0.  1.
          1   -1    0    0  502    0  0.00000000000E+00 -0.00000000000E+00 -0.39738778792E+03  0.39738778792E+03  0.00000000000E+00 0. -1.
         23    2    1    2    0    0 -0.62807602447E+02  0.41358277039E+02 -0.54515713375E+02  0.13008179296E+03  0.91071443656E+02 0.  0.
         23    2    1    2    0    0  0.61630062634E+02 -0.78226780011E+02 -0.26006974068E+03  0.29261957116E+03  0.89845699294E+02 0.  0.
        -11    1    3    3    0    0  0.20969794875E+02 -0.51104649116E+01 -0.15818791935E+02  0.26759733313E+02  0.00000000000E+00 0. -1.
         11    1    3    3    0    0 -0.83777397321E+02  0.46468741950E+02 -0.38696921440E+02  0.10332205965E+03  0.00000000000E+00 0.  1.
        -13    1    4    4    0    0 -0.57575194511E+01 -0.62698191309E+02 -0.98908345125E+02  0.11724791239E+03  0.00000000000E+00 0.  1.
         13    1    4    4    0    0  0.67387582085E+02 -0.15528588703E+02 -0.16116139555E+03  0.17537165878E+03  0.00000000000E+00 0. -1.
         21    1    1    2  502  501  0.11775398124E+01  0.36868502972E+02 -0.16910124909E+02  0.40578632750E+02  0.00000000000E+00 0.  1.
<scales pt_clust_5="13000.00000" pt_clust_6="13000.00000" pt_clust_7="13000.00000" pt_clust_8="13000.00000" pt_clust_9="36.88730"></scales>
<clustering>
<clus scale="   36.887">  1  9  2 -1</clus>
<clus scale="   89.846">  7  8 -1 -1</clus>
<clus scale="   91.071">  5  6 -1 -1</clus>
<clus scale="  128.142">  2  7  1 -1</clus>
<clus scale="  128.142">  2  5  1 -1</clus>
</clustering>
</event>
<event>
 9    1  0.1266593E-005  0.1038909E+03  0.7546771E-02  0.1277488E+00
         -1   -1    0    0    0  501 -0.00000000000E+00  0.00000000000E+00  0.24611289464E+02  0.24611289464E+02  0.00000000000E+00 0.  1.
          1   -1    0    0  502    0  0.00000000000E+00 -0.00000000000E+00 -0.53880602198E+03  0.53880602198E+03  0.00000000000E+00 0. -1.
         23    2    1    2    0    0  0.24916263612E+02 -0.43685892990E+01 -0.20189144318E+03  0.22503876702E+03  0.96137334404E+02 0.  0.
         23    2    1    2    0    0 -0.50196943277E+02 -0.48217485722E+01 -0.27528697376E+03  0.29262067414E+03  0.85445647269E+02 0.  0.
        -11    1    3    3    0    0  0.34986968042E+02  0.38183982239E+02 -0.77734802686E+02  0.93406659189E+02  0.00000000000E+00 0.  1.
         11    1    3    3    0    0 -0.10070704430E+02 -0.42552571538E+02 -0.12415664050E+03  0.13163210783E+03  0.00000000000E+00 0. -1.
        -13    1    4    4    0    0  0.69510986680E+01  0.20276846825E+02 -0.18368048999E+02  0.28228593906E+02  0.00000000000E+00 0.  1.
         13    1    4    4    0    0 -0.57148041945E+02 -0.25098595397E+02 -0.25691892476E+03  0.26439208023E+03  0.00000000000E+00 0. -1.
         21    1    1    2  502  501  0.25280679665E+02  0.91903378712E+01 -0.37016315576E+02  0.45757870288E+02  0.00000000000E+00 0.  1.
<scales pt_clust_5="13000.00000" pt_clust_6="13000.00000" pt_clust_7="13000.00000" pt_clust_8="13000.00000" pt_clust_9="26.89935"></scales>
<clustering>
<clus scale="   26.899">  1  9  2 -1</clus>
<clus scale="   85.446">  7  8 -1 -1</clus>
<clus scale="   94.085">  2  7  1 -1</clus>
<clus scale="   96.137">  5  6 -1 -1</clus>
<clus scale="   94.085">  2  5  1 -1</clus>
</clustering>
</event>
<event>
 9    1  0.1266593E-005  0.1479731E+03  0.7546771E-02  0.1223512E+00
          2   -1    0    0  502    0  0.00000000000E+00  0.00000000000E+00  0.11928264854E+03  0.11928264854E+03  0.00000000000E+00 0. -1.
         -2   -1    0    0    0  501 -0.00000000000E+00 -0.00000000000E+00 -0.35606850576E+03  0.35606850576E+03  0.00000000000E+00 0.  1.
         23    2    1    2    0    0  0.26254359848E+02 -0.74252824708E+01 -0.13999536088E+03  0.16957273613E+03  0.91715786752E+02 0.  0.
         23    2    1    2    0    0 -0.12553740970E+03 -0.10941701282E+02  0.14144198281E+02  0.15577516304E+03  0.90479174479E+02 0.  0.
        -11    1    3    3    0    0  0.50863312596E+02  0.21878154608E+02 -0.65052883132E+02  0.85426037138E+02  0.00000000000E+00 0.  1.
         11    1    3    3    0    0 -0.24608952748E+02 -0.29303437079E+02 -0.74942477752E+02  0.84146698994E+02  0.00000000000E+00 0. -1.
        -13    1    4    4    0    0 -0.12498205414E+03 -0.33766738142E+02  0.10752853560E+01  0.12946761256E+03  0.00000000000E+00 0.  1.
         13    1    4    4    0    0 -0.55535555746E+00  0.22825036860E+02  0.13068912925E+02  0.26307550484E+02  0.00000000000E+00 0. -1.
         21    1    1    2  502  501  0.99283049854E+02  0.18366983753E+02 -0.11093469462E+03  0.15000325513E+03  0.00000000000E+00 0.  1.
<scales pt_clust_5="13000.00000" pt_clust_6="13000.00000" pt_clust_7="13000.00000" pt_clust_8="13000.00000" pt_clust_9="117.08781"></scales>
<clustering>
<clus scale="   90.479">  7  8 -1 -1</clus>
<clus scale="   91.716">  5  6 -1 -1</clus>
<clus scale="   95.688">  2  5  1 -1</clus>
<clus scale="  117.088">  2  9  1 -1</clus>
<clus scale="  147.973">  1  5  2 -1</clus>
</clustering>
</event>
<event>
 9    1  0.1266593E-005  0.1015110E+03  0.7546771E-02  0.1281332E+00
          1   -1    0    0  502    0  0.00000000000E+00  0.00000000000E+00  0.35653224459E+03  0.35653224459E+03  0.00000000000E+00 0. -1.
         -1   -1    0    0    0  501 -0.00000000000E+00 -0.00000000000E+00 -0.17678284194E+03  0.17678284194E+03  0.00000000000E+00 0.  1.
         23    2    1    2    0    0  0.16434028969E+02 -0.16117382670E+02  0.30324102020E-01  0.93581070473E+02  0.90705945224E+02 0.  0.
         23    2    1    2    0    0  0.25929579144E+02  0.13171840520E+02  0.29735873606E+03  0.31466427338E+03  0.98719534906E+02 0.  0.
        -11    1    3    3    0    0 -0.23354254509E+02 -0.26231049320E+00  0.32367150215E+02  0.39913937710E+02  0.00000000000E+00 0.  1.
         11    1    3    3    0    0  0.39788283478E+02 -0.15855072177E+02 -0.32336826113E+02  0.53667132763E+02  0.00000000000E+00 0. -1.
        -13    1    4    4    0    0  0.56656892811E+02  0.29378890657E+02  0.23234860015E+03  0.24095434155E+03  0.00000000000E+00 0.  1.
         13    1    4    4    0    0 -0.30727313667E+02 -0.16207050136E+02  0.65010135911E+02  0.73709931831E+02  0.00000000000E+00 0. -1.
         21    1    1    2  502  501 -0.42363608113E+02  0.29455421500E+01 -0.11763965751E+03  0.12506974267E+03  0.00000000000E+00 0. -1.
<scales pt_clust_5="13000.00000" pt_clust_6="13000.00000" pt_clust_7="13000.00000" pt_clust_8="13000.00000" pt_clust_9="42.46589"></scales>
<clustering>
<clus scale="   42.466">  2  9  1 -1</clus>
<clus scale="   90.706">  5  6 -1 -1</clus>
<clus scale="   93.736">  2  5  1 -1</clus>
<clus scale="   98.720">  7  8 -1 -1</clus>
<clus scale="  101.511">  1  5  2 -1</clus>
</clustering>
</event>
<event>
 9    1  0.1266593E-005  0.1083137E+03  0.7546771E-02  0.1264501E+00
          1   -1    0    0  502    0  0.00000000000E+00  0.00000000000E+00  0.25435954279E+03  0.25435954279E+03  0.00000000000E+00 0. -1.
         -1   -1    0    0    0  501 -0.00000000000E+00 -0.00000000000E+00 -0.61075936762E+02  0.61075936762E+02  0.00000000000E+00 0.  1.
         23    2    1    2    0    0  0.40007258415E+02  0.43184748869E+02  0.76394085063E+02  0.13390944208E+03  0.92898757707E+02 0.  0.
         23    2    1    2    0    0 -0.19723721760E+02 -0.51522368967E+02  0.11882714703E+03  0.15951031213E+03  0.90994885018E+02 0.  0.
        -13    1    4    4    0    0  0.28504443459E+02 -0.36223540180E+01  0.85704591172E+01  0.29984621308E+02  0.00000000000E+00 0. -1.
         13    1    4    4    0    0 -0.48228165219E+02 -0.47900014949E+02  0.11025668791E+03  0.12952569082E+03  0.00000000000E+00 0.  1.
        -13    1    3    3    0    0  0.13430039312E+02  0.43225503501E+02 -0.75226335670E+01  0.45884639310E+02  0.00000000000E+00 0.  1.
         13    1    3    3    0    0  0.26577219102E+02 -0.40754632047E-01  0.83916718630E+02  0.88024802765E+02  0.00000000000E+00 0. -1.
         21    1    1    2  502  501 -0.20283536654E+02  0.83376200984E+01 -0.19376260610E+01  0.22015725354E+02  0.00000000000E+00 0. -1.
<scales pt_clust_5="13000.00000" pt_clust_6="13000.00000" pt_clust_7="13000.00000" pt_clust_8="13000.00000" pt_clust_9="21.93029"></scales>
<clustering>
<clus scale="   21.930">  2  9  1 -1</clus>
<clus scale="   90.995">  5  6 -1 -1</clus>
<clus scale="   92.899">  7  8 -1 -1</clus>
<clus scale="  106.685">  1  5  2 -1</clus>
<clus scale="  106.685">  1  5  2 -1</clus>
</clustering>
</event>
<event>
 9    1  0.1266593E-005  0.1209499E+03  0.7546771E-02  0.1241770E+00
         -3   -1    0    0    0  501 -0.00000000000E+00  0.00000000000E+00  0.10039736762E+03  0.10039736762E+03  0.00000000000E+00 0.  1.
          3   -1    0    0  502    0  0.00000000000E+00 -0.00000000000E+00 -0.25589955171E+03  0.25589955171E+03  0.00000000000E+00 0. -1.
         23    2    1    2    0    0 -0.87662047794E+02  0.28907334638E+02 -0.60304616407E+02  0.14441780687E+03  0.93271579597E+02 0.  0.
         23    2    1    2    0    0  0.69035691025E+02  0.55477908200E+01 -0.11845526312E+03  0.16632675541E+03  0.94001253107E+02 0.  0.
        -11    1    3    3    0    0 -0.18186238510E+02 -0.29500082125E+02  0.13683335575E+01  0.34682365162E+02  0.00000000000E+00 0.  1.
         11    1    3    3    0    0 -0.69475809284E+02  0.58407416763E+02 -0.61672949964E+02  0.10973544170E+03  0.00000000000E+00 0. -1.
        -13    1    4    4    0    0  0.66530534377E+02  0.39054197688E+02 -0.55733908036E+02  0.95172532101E+02  0.00000000000E+00 0. -1.
         13    1    4    4    0    0  0.25051566480E+01 -0.33506406868E+02 -0.62721355080E+02  0.71154223305E+02  0.00000000000E+00 0.  1.
         21    1    1    2  502  501  0.18626356769E+02 -0.34455125458E+02  0.23257695436E+02  0.45552357061E+02  0.00000000000E+00 0. -1.
<scales pt_clust_5="13000.00000" pt_clust_6="13000.00000" pt_clust_7="13000.00000" pt_clust_8="13000.00000" pt_clust_9="39.16755"></scales>
<clustering>
<clus scale="   39.168">  1  9  2 -1</clus>
<clus scale="   93.272">  5  6 -1 -1</clus>
<clus scale="   94.001">  7  8 -1 -1</clus>
<clus scale="  120.384">  1  5  2 -1</clus>
<clus scale="  120.950">  2  5  1 -1</clus>
</clustering>
</event>
<event>
 9    1  0.1266593E-005  0.9749532E+02  0.7546771E-02  0.1285666E+00
         -3   -1    0    0    0  501 -0.00000000000E+00  0.00000000000E+00  0.45132132227E+03  0.45132132227E+03  0.00000000000E+00 0.  1.
          3   -1    0    0  502    0  0.00000000000E+00 -0.00000000000E+00 -0.40700928042E+02  0.40700928042E+02  0.00000000000E+00 0. -1.
         23    2    1    2    0    0  0.16437410960E+02 -0.49908422614E+01  0.16611647540E+03  0.19074086834E+03  0.92153667686E+02 0.  0.
         23    2    1    2    0    0 -0.11439631550E+02 -0.52260686661E+02  0.10156920193E+03  0.14722603914E+03  0.92180037315E+02 0.  0.
        -11    1    3    3    0    0 -0.38584085164E+02 -0.19282270541E+01  0.67817475388E+02  0.78049084912E+02  0.00000000000E+00 0.  1.
         11    1    3    3    0    0  0.55021496124E+02 -0.30626152073E+01  0.98299000016E+02  0.11269178343E+03  0.00000000000E+00 0. -1.
        -13    1    4    4    0    0 -0.15599901806E+02  0.18319232928E+02  0.73297432366E+00  0.24072567017E+02  0.00000000000E+00 0. -1.
         13    1    4    4    0    0  0.41602702559E+01 -0.70579919589E+02  0.10083622761E+03  0.12315347212E+03  0.00000000000E+00 0.  1.
         21    1    1    2  502  501 -0.49977794105E+01  0.57251528923E+02  0.14293471689E+03  0.15405534284E+03  0.00000000000E+00 0.  1.
<scales pt_clust_5="13000.00000" pt_clust_6="13000.00000" pt_clust_7="13000.00000" pt_clust_8="13000.00000" pt_clust_9="57.46926"></scales>
<clustering>
<clus scale="   57.469">  1  9  2 -1</clus>
<clus scale="   92.154">  5  6 -1 -1</clus>
<clus scale="   92.180">  7  8 -1 -1</clus>
<clus scale="   97.470">  1  5  2 -1</clus>
<clus scale="   97.495">  2  5  1 -1</clus>
</clustering>
</event>
<event>
 9    1  0.1266593E-005  0.1105358E+03  0.7546771E-02  0.1261840E+00
          1   -1    0    0  502    0  0.00000000000E+00  0.00000000000E+00  0.24552268763E+03  0.24552268763E+03  0.00000000000E+00 0. -1.
         -1   -1    0    0    0  501 -0.00000000000E+00 -0.00000000000E+00 -0.87355098444E+02  0.87355098444E+02  0.00000000000E+00 0.  1.
         23    2    1    2    0    0 -0.65842584498E+02  0.34923539475E+02  0.30093148536E+02  0.12747695070E+03  0.98943801360E+02 0.  0.
         23    2    1    2    0    0  0.38388245793E+02 -0.13302780657E+02  0.13557608325E+03  0.16965908713E+03  0.93555919689E+02 0.  0.
        -11    1    4    4    0    0 -0.24003032061E+02 -0.56895946894E+01  0.56186461846E+01  0.25299925312E+02  0.00000000000E+00 0.  1.
         11    1    4    4    0    0  0.62391277854E+02 -0.76131859673E+01  0.12995743707E+03  0.14435916182E+03  0.00000000000E+00 0. -1.
        -13    1    3    3    0    0 -0.53439216122E+02  0.68273149151E+02  0.11897632944E+02  0.87513006945E+02  0.00000000000E+00 0.  1.
         13    1    3    3    0    0 -0.12403368376E+02 -0.33349609677E+02  0.18195515592E+02  0.39963943753E+02  0.00000000000E+00 0. -1.
         21    1    1    2  502  501  0.27454338705E+02 -0.21620758818E+02 -0.75016426023E+01  0.35741748241E+02  0.00000000000E+00 0.  1.
<scales pt_clust_5="13000.00000" pt_clust_6="13000.00000" pt_clust_7="13000.00000" pt_clust_8="13000.00000" pt_clust_9="34.94564"></scales>
<clustering>
<clus scale="   34.946">  2  9  1 -1</clus>
<clus scale="   93.556">  5  6 -1 -1</clus>
<clus scale="   98.944">  7  8 -1 -1</clus>
<clus scale="  105.740">  1  5  2 -1</clus>
<clus scale="  105.740">  1  5  2 -1</clus>
</clustering>
</event>
<event>
 9    1  0.1266593E-005  0.1242660E+03  0.7546771E-02  0.1237492E+00
          1   -1    0    0  502    0  0.00000000000E+00  0.00000000000E+00  0.45675990700E+03  0.45675990700E+03  0.00000000000E+00 0. -1.
         -1   -1    0    0    0  501 -0.00000000000E+00 -0.00000000000E+00 -0.88176287267E+02  0.88176287267E+02  0.00000000000E+00 0.  1.
         23    2    1    2    0    0  0.97601179724E+02  0.26299748868E+02  0.15034373420E+03  0.20513827859E+03  0.96233091287E+02 0.  0.
         23    2    1    2    0    0 -0.66922064750E+02 -0.15717785418E+02  0.26154815341E+03  0.28567959981E+03  0.92085751702E+02 0.  0.
        -11    1    3    3    0    0 -0.20773599603E+01  0.29205571014E+02  0.63080906102E+01  0.29951173763E+02  0.00000000000E+00 0. -1.
         11    1    3    3    0    0  0.99678539685E+02 -0.29058221460E+01  0.14403564359E+03  0.17518710483E+03  0.00000000000E+00 0.  1.
        -13    1    4    4    0    0 -0.40691669184E+02 -0.52308752984E+02  0.18915676030E+03  0.20043028101E+03  0.00000000000E+00 0. -1.
         13    1    4    4    0    0 -0.26230395566E+02  0.36590967566E+02  0.72391393111E+02  0.85249318798E+02  0.00000000000E+00 0.  1.
         21    1    1    2  502  501 -0.30679114974E+02 -0.10581963450E+02 -0.43308267871E+02  0.54118315865E+02  0.00000000000E+00 0.  1.
<scales pt_clust_5="13000.00000" pt_clust_6="13000.00000" pt_clust_7="13000.00000" pt_clust_8="13000.00000" pt_clust_9="32.45283"></scales>
<clustering>
<clus scale="   32.453">  2  9  1 -1</clus>
<clus scale="   92.086">  7  8 -1 -1</clus>
<clus scale="   96.233">  5  6 -1 -1</clus>
<clus scale="  121.083">  1  7  2 -1</clus>
<clus scale="  121.083">  1  5  2 -1</clus>
</clustering>
</event>
<event>
 9    1  0.1266593E-005  0.1008113E+03  0.7546771E-02  0.1279971E+00
         -1   -1    0    0    0  501 -0.00000000000E+00  0.00000000000E+00  0.62110789030E+02  0.62110789030E+02  0.00000000000E+00 0.  1.
          1   -1    0    0  502    0  0.00000000000E+00 -0.00000000000E+00 -0.29202938454E+03  0.29202938454E+03  0.00000000000E+00 0. -1.
         23    2    1    2    0    0  0.33115239107E+02 -0.33134082379E+02 -0.30320251237E+02  0.10959898027E+03  0.94329912360E+02 0.  0.
         23    2    1    2    0    0  0.11615280258E+02  0.22576545451E+02 -0.14209933962E+03  0.17093129936E+03  0.91546008333E+02 0.  0.
        -11    1    4    4    0    0 -0.26351074029E+02 -0.23257550869E+02 -0.59854247655E+02  0.69410544856E+02  0.00000000000E+00 0.  1.
         11    1    4    4    0    0  0.37966354287E+02  0.45834096320E+02 -0.82245091964E+02  0.10152075451E+03  0.00000000000E+00 0. -1.
        -13    1    3    3    0    0  0.18412603591E+02 -0.65156239708E+02 -0.87148907226E+01  0.68266454897E+02  0.00000000000E+00 0.  1.
         13    1    3    3    0    0  0.14702635516E+02  0.32022157329E+02 -0.21605360514E+02  0.41332525377E+02  0.00000000000E+00 0. -1.
         21    1    1    2  502  501 -0.44730519365E+02  0.10557536928E+02 -0.57499004655E+02  0.73609893934E+02  0.00000000000E+00 0. -1.
<scales pt_clust_5="13000.00000" pt_clust_6="13000.00000" pt_clust_7="13000.00000" pt_clust_8="13000.00000" pt_clust_9="45.95956"></scales>
<clustering>
<clus scale="   45.960">  2  9  1 -1</clus>
<clus scale="   91.546">  5  6 -1 -1</clus>
<clus scale="   94.330">  7  8 -1 -1</clus>
<clus scale="   98.211">  2  5  1 -1</clus>
<clus scale="   45.960">  2  5  1 -1</clus>
</clustering>
</event>
<event>
 9    1  0.1266593E-005  0.1218467E+03  0.7546771E-02  0.1240799E+00
         -2   -1    0    0    0  501 -0.00000000000E+00  0.00000000000E+00  0.96237664400E+02  0.96237664400E+02  0.00000000000E+00 0.  1.
          2   -1    0    0  502    0  0.00000000000E+00 -0.00000000000E+00 -0.43650891228E+03  0.43650891228E+03  0.00000000000E+00 0. -1.
         23    2    1    2    0    0  0.11335491490E+03 -0.50326218786E+02 -0.38779497972E+02  0.15636100254E+03  0.86964640067E+02 0.  0.
         23    2    1    2    0    0 -0.57372002341E+02  0.49535272683E+02 -0.29808294353E+03  0.32029339951E+03  0.89381936948E+02 0.  0.
        -13    1    4    4    0    0  0.44819275666E+01 -0.20236241509E+02 -0.30044558728E+02  0.36500255537E+02  0.00000000000E+00 0.  1.
         13    1    4    4    0    0 -0.61853929908E+02  0.69771514192E+02 -0.26803838480E+03  0.28379314397E+03  0.00000000000E+00 0. -1.
        -13    1    3    3    0    0  0.47367680125E+02  0.21792987067E+02 -0.24362393142E+02  0.57551347555E+02  0.00000000000E+00 0. -1.
         13    1    3    3    0    0  0.65987234775E+02 -0.72119205852E+02 -0.14417104830E+02  0.98809654982E+02  0.00000000000E+00 0.  1.
         21    1    1    2  502  501 -0.55982912559E+02  0.79094610303E+00 -0.34088063779E+01  0.56092174635E+02  0.00000000000E+00 0. -1.
<scales pt_clust_5="13000.00000" pt_clust_6="13000.00000" pt_clust_7="13000.00000" pt_clust_8="13000.00000" pt_clust_9="55.98850"></scales>
<clustering>
<clus scale="   55.988">  1  9  2 -1</clus>
<clus scale="   86.965">  7  8 -1 -1</clus>
<clus scale="   89.382">  5  6 -1 -1</clus>
<clus scale="  120.085">  1  7  2 -1</clus>
<clus scale="  121.847">  2  5  1 -1</clus>
</clustering>
</event>
<event>
 9    1  0.1266593E-005  0.1423029E+03  0.7546771E-02  0.1211776E+00
         -2   -1    0    0    0  501 -0.00000000000E+00  0.00000000000E+00  0.31905831484E+02  0.31905831484E+02  0.00000000000E+00 0.  1.
          2   -1    0    0  502    0  0.00000000000E+00 -0.00000000000E+00 -0.12066907031E+04  0.12066907031E+04  0.00000000000E+00 0. -1.
         23    2    1    2    0    0 -0.36376916005E+02  0.13470008414E+03 -0.38229758392E+03  0.41892356973E+03  0.99388741409E+02 0.  0.
         23    2    1    2    0    0 -0.18698969965E+02 -0.58148014828E+02 -0.50631811267E+03  0.51836519983E+03  0.92809514958E+02 0.  0.
        -13    1    4    4    0    0  0.33227841105E+02 -0.46630952726E+02 -0.23422202979E+03  0.24111925352E+03  0.00000000000E+00 0. -1.
         13    1    4    4    0    0 -0.51926811070E+02 -0.11517062102E+02 -0.27209608288E+03  0.27724594631E+03  0.00000000000E+00 0.  1.
        -13    1    3    3    0    0 -0.59913317261E+02  0.52846036888E+02 -0.12945494096E+03  0.15212130337E+03  0.00000000000E+00 0.  1.
         13    1    3    3    0    0  0.23536401256E+02  0.81854047256E+02 -0.25284264297E+03  0.26680226637E+03  0.00000000000E+00 0. -1.
         21    1    1    2  502  501  0.55075885970E+02 -0.76552069316E+02 -0.28616917507E+03  0.30130776507E+03  0.00000000000E+00 0. -1.
<scales pt_clust_5="13000.00000" pt_clust_6="13000.00000" pt_clust_7="13000.00000" pt_clust_8="13000.00000" pt_clust_9="94.30574"></scales>
<clustering>
<clus scale="   92.810">  5  6 -1 -1</clus>
<clus scale="   94.306">  2  9  1 -1</clus>
<clus scale="   99.389">  7  8 -1 -1</clus>
<clus scale="  137.788">  2  5  1 -1</clus>
<clus scale="   94.306">  2  5  1 -1</clus>
</clustering>
</event>
<event>
 9    1  0.1266593E-005  0.9879250E+02  0.7546771E-02  0.1284934E+00
         -2   -1    0    0    0  501 -0.00000000000E+00  0.00000000000E+00  0.31279437696E+03  0.31279437696E+03  0.00000000000E+00 0.  1.
          2   -1    0    0  502    0  0.00000000000E+00 -0.00000000000E+00 -0.20244354927E+03  0.20244354927E+03  0.00000000000E+00 0. -1.
         23    2    1    2    0    0 -0.54271085390E+02  0.20660808710E+02  0.72187264131E+02  0.13471634269E+03  0.97802209375E+02 0.  0.
         23    2    1    2    0    0 -0.36537773205E+01  0.18179886621E+02 -0.15105774004E+03  0.17885703269E+03  0.93954983635E+02 0.  0.
        -13    1    4    4    0    0  0.38420121016E+02  0.19382943934E+02 -0.35216357420E+02  0.55605719529E+02  0.00000000000E+00 0.  1.
         13    1    4    4    0    0 -0.42073898337E+02 -0.12030573131E+01 -0.11584138262E+03  0.12325131316E+03  0.00000000000E+00 0. -1.
        -13    1    3    3    0    0 -0.21906470557E+02 -0.32799793732E+01 -0.22654697415E+02  0.31684176365E+02  0.00000000000E+00 0. -1.
         13    1    3    3    0    0 -0.32364614833E+02  0.23940788083E+02  0.94841961546E+02  0.10303216632E+03  0.00000000000E+00 0.  1.
         21    1    1    2  502  501  0.57924862710E+02 -0.38840695331E+02  0.18922130360E+03  0.20166455085E+03  0.00000000000E+00 0. -1.
<scales pt_clust_5="13000.00000" pt_clust_6="13000.00000" pt_clust_7="13000.00000" pt_clust_8="13000.00000" pt_clust_9="69.74159"></scales>
<clustering>
<clus scale="   69.742">  1  9  2 -1</clus>
<clus scale="   93.955">  5  6 -1 -1</clus>
<clus scale="   94.985">  2  5  1 -1</clus>
<clus scale="   97.802">  7  8 -1 -1</clus>
<clus scale="   94.985">  2  5  1 -1</clus>
</clustering>
</event>
<event>
 9    1  0.1266593E-005  0.9145137E+02  0.7546771E-02  0.1299512E+00
          2   -1    0    0  502    0  0.00000000000E+00  0.00000000000E+00  0.19565644057E+03  0.19565644057E+03  0.00000000000E+00 0. -1.
         -2   -1    0    0    0  501 -0.00000000000E+00 -0.00000000000E+00 -0.90729057039E+02  0.90729057039E+02  0.00000000000E+00 0.  1.
         23    2    1    2    0    0  0.12475872887E+02 -0.14523801293E+02  0.30317975308E+02  0.97707182901E+02  0.90889635027E+02 0.  0.
         23    2    1    2    0    0  0.18157546971E+02 -0.57005197899E+01  0.10550375928E+03  0.14070029366E+03  0.91122647992E+02 0.  0.
        -13    1    4    4    0    0  0.38136596894E+02 -0.29629287148E+02  0.97049128123E+02  0.10840123592E+03  0.00000000000E+00 0.  1.
         13    1    4    4    0    0 -0.19979049923E+02  0.23928767358E+02  0.84546311559E+01  0.32299057743E+02  0.00000000000E+00 0. -1.
        -13    1    3    3    0    0 -0.36774436665E+02 -0.10256384234E+02  0.29530676781E+02  0.48266069663E+02  0.00000000000E+00 0.  1.
         13    1    3    3    0    0  0.49250309551E+02 -0.42674170593E+01  0.78729852759E+00  0.49441113238E+02  0.00000000000E+00 0. -1.
         21    1    1    2  502  501 -0.30633419858E+02  0.20224321083E+02 -0.30894351062E+02  0.47978021041E+02  0.00000000000E+00 0.  1.
<scales pt_clust_5="13000.00000" pt_clust_6="13000.00000" pt_clust_7="13000.00000" pt_clust_8="13000.00000" pt_clust_9="36.70735"></scales>
<clustering>
<clus scale="   36.707">  2  9  1 -1</clus>
<clus scale="   90.890">  7  8 -1 -1</clus>
<clus scale="   91.123">  5  6 -1 -1</clus>
<clus scale="   91.219">  2  7  1 -1</clus>
<clus scale="   91.451">  1  5  2 -1</clus>
</clustering>
</event>
<event>
 9    1  0.1266593E-005  0.9905064E+02  0.7546771E-02  0.1282337E+00
          1   -1    0    0  502    0  0.00000000000E+00  0.00000000000E+00  0.99935098246E+02  0.99935098246E+02  0.00000000000E+00 0. -1.
         -1   -1    0    0    0  501 -0.00000000000E+00 -0.00000000000E+00 -0.12922813055E+03  0.12922813055E+03  0.00000000000E+00 0.  1.
         23    2    1    2    0    0 -0.36374835049E+00  0.26186984755E+02 -0.15706246685E+02  0.96701890104E+02  0.91753358965E+02 0.  0.
         23    2    1    2    0    0 -0.14762766655E+02 -0.48205051133E+02 -0.14409771965E+02  0.10573524639E+03  0.91818487061E+02 0.  0.
        -11    1    3    3    0    0  0.59714206060E+00  0.59283353544E+02 -0.21546783549E+02  0.63080396855E+02  0.00000000000E+00 0.  1.
         11    1    3    3    0    0 -0.96089041109E+00 -0.33096368789E+02  0.58405368639E+01  0.33621493249E+02  0.00000000000E+00 0. -1.
        -13    1    4    4    0    0  0.18776944174E+02  0.12311823458E+02 -0.27307990105E+02  0.35353655440E+02  0.00000000000E+00 0.  1.
         13    1    4    4    0    0 -0.33539710829E+02 -0.60516874592E+02  0.12898218141E+02  0.70381590946E+02  0.00000000000E+00 0. -1.
         21    1    1    2  502  501  0.15126515006E+02  0.22018066378E+02  0.82298634940E+00  0.26726092303E+02  0.00000000000E+00 0.  1.
<scales pt_clust_5="13000.00000" pt_clust_6="13000.00000" pt_clust_7="13000.00000" pt_clust_8="13000.00000" pt_clust_9="26.71342"></scales>
<clustering>
<clus scale="   26.713">  1  9  2 -1</clus>
<clus scale="   91.753">  5  6 -1 -1</clus>
<clus scale="   91.818">  7  8 -1 -1</clus>
<clus scale="   98.990">  2  5  1 -1</clus>
<clus scale="   26.713">  1  5  2 -1</clus>
</clustering>
</event>
<event>
 9    1  0.1266593E-005  0.1195101E+03  0.7546771E-02  0.1244342E+00
          2   -1    0    0  502    0  0.00000000000E+00  0.00000000000E+00  0.86972759437E+02  0.86972759437E+02  0.00000000000E+00 0. -1.
         -2   -1    0    0    0  501 -0.00000000000E+00 -0.00000000000E+00 -0.73815502761E+03  0.73815502761E+03  0.00000000000E+00 0.  1.
         23    2    1    2    0    0  0.56521674062E+02 -0.51954237142E+02 -0.21756397313E+03  0.24805648028E+03  0.91126245447E+02 0.  0.
         23    2    1    2    0    0  0.63288093485E+01  0.81034917245E+02  0.14193033814E+02  0.12393682841E+03  0.92478016781E+02 0.  0.
        -11    1    3    3    0    0  0.32196257693E+02 -0.76352725234E+02 -0.13246346124E+03  0.15624629987E+03  0.00000000000E+00 0.  1.
         11    1    3    3    0    0  0.24325416368E+02  0.24398488092E+02 -0.85100511889E+02  0.91810180407E+02  0.00000000000E+00 0. -1.
        -13    1    4    4    0    0  0.43791443309E+02  0.43089661224E+02 -0.14867404836E+02  0.63209565242E+02  0.00000000000E+00 0.  1.
         13    1    4    4    0    0 -0.37462633961E+02  0.37945256021E+02  0.29060438650E+02  0.60727263172E+02  0.00000000000E+00 0. -1.
         21    1    1    2  502  501 -0.62850483410E+02 -0.29080680103E+02 -0.44781132886E+03  0.45313447835E+03  0.00000000000E+00 0.  1.
<scales pt_clust_5="13000.00000" pt_clust_6="13000.00000" pt_clust_7="13000.00000" pt_clust_8="13000.00000" pt_clust_9="69.25221"></scales>
<clustering>
<clus scale="   69.252">  2  9  1 -1</clus>
<clus scale="   91.126">  5  6 -1 -1</clus>
<clus scale="   92.478">  7  8 -1 -1</clus>
<clus scale="  118.467">  2  5  1 -1</clus>
<clus scale="  119.510">  1  5  2 -1</clus>
</clustering>
</event>
<event>
 9    1  0.1266593E-005  0.2578456E+03  0.7546771E-02  0.1108812E+00
          2   -1    0    0  502    0  0.00000000000E+00  0.00000000000E+00  0.71779930349E+02  0.71779930349E+02  0.00000000000E+00 0.  1.
         -2   -1    0    0    0  501 -0.00000000000E+00 -0.00000000000E+00 -0.10859566523E+04  0.10859566523E+04  0.00000000000E+00 0. -1.
         23    2    1    2    0    0 -0.12295615367E+03 -0.18957234137E+03 -0.54001387729E+03  0.59225892034E+03  0.89998626190E+02 0.  0.
         23    2    1    2    0    0  0.11607526447E+03  0.22026437200E+03 -0.36761790132E+03  0.45438683311E+03  0.96615796533E+02 0.  0.
        -13    1    3    3    0    0 -0.83355387767E+02 -0.18545712550E+03 -0.45698339298E+03  0.50017625646E+03  0.00000000000E+00 0. -1.
         13    1    3    3    0    0 -0.39600765904E+02 -0.41152158706E+01 -0.83030484318E+02  0.92082663883E+02  0.00000000000E+00 0.  1.
        -13    1    4    4    0    0  0.50166918399E+02  0.54985698352E+02 -0.18501776622E+03  0.19942848478E+03  0.00000000000E+00 0.  1.
         13    1    4    4    0    0  0.65908346072E+02  0.16527867365E+03 -0.18260013510E+03  0.25495834833E+03  0.00000000000E+00 0. -1.
         21    1    1    2  502  501  0.68808891997E+01 -0.30692030634E+02 -0.10654494337E+03  0.11109082923E+03  0.00000000000E+00 0. -1.
<scales pt_clust_5="13000.00000" pt_clust_6="13000.00000" pt_clust_7="13000.00000" pt_clust_8="13000.00000" pt_clust_9="31.45389"></scales>
<clustering>
<clus scale="   31.454">  2  9  1 -1</clus>
<clus scale="   89.999">  5  6 -1 -1</clus>
<clus scale="   96.616">  7  8 -1 -1</clus>
<clus scale="  255.440">  2  5  1 -1</clus>
<clus scale="  257.846">  1  5  2 -1</clus>
</clustering>
</event>
<event>
 9    1  0.1266593E-005  0.1109022E+03  0.7546771E-02  0.1259094E+00
          2   -1    0    0  502    0  0.00000000000E+00  0.00000000000E+00  0.81947119435E+02  0.81947119435E+02  0.00000000000E+00 0. -1.
         -2   -1    0    0    0  501 -0.00000000000E+00 -0.00000000000E+00 -0.39853274062E+03  0.39853274062E+03  0.00000000000E+00 0.  1.
         23    2    1    2    0    0  0.71838764757E+02  0.32658019534E+01 -0.31933582417E+03  0.33979011521E+03  0.91161835285E+02 0.  0.
         23    2    1    2    0    0 -0.58267002861E+02 -0.19573078243E+02  0.21436442539E+02  0.11241792973E+03  0.91652173148E+02 0.  0.
        -13    1    4    4    0    0 -0.66500807785E+02 -0.46709616687E+02  0.10154158545E+02  0.81897818425E+02  0.00000000000E+00 0.  1.
         13    1    4    4    0    0  0.82338049236E+01  0.27136538444E+02  0.11282283994E+02  0.30520111310E+02  0.00000000000E+00 0. -1.
        -13    1    3    3    0    0  0.51215917120E+02 -0.41556199436E+02 -0.16242402178E+03  0.17530416632E+03  0.00000000000E+00 0. -1.
         13    1    3    3    0    0  0.20622847636E+02  0.44822001389E+02 -0.15691180240E+03  0.16448594890E+03  0.00000000000E+00 0.  1.
         21    1    1    2  502  501 -0.13571761895E+02  0.16307276290E+02 -0.18686239554E+02  0.28271815110E+02  0.00000000000E+00 0.  1.
<scales pt_clust_5="13000.00000" pt_clust_6="13000.00000" pt_clust_7="13000.00000" pt_clust_8="13000.00000" pt_clust_9="21.21603"></scales>
<clustering>
<clus scale="   21.216">  2  9  1 -1</clus>
<clus scale="   91.162">  7  8 -1 -1</clus>
<clus scale="   91.652">  5  6 -1 -1</clus>
<clus scale="  110.497">  2  7  1 -1</clus>
<clus scale="  110.902">  1  5  2 -1</clus>
</clustering>
</event>
<event>
 9    1  0.1266593E-005  0.1492203E+03  0.7546771E-02  0.1203573E+00
          1   -1    0    0  502    0  0.00000000000E+00  0.00000000000E+00  0.18746121726E+03  0.18746121726E+03  0.00000000000E+00 0. -1.
         -1   -1    0    0    0  501 -0.00000000000E+00 -0.00000000000E+00 -0.15406808849E+03  0.15406808849E+03  0.00000000000E+00 0.  1.
         23    2    1    2    0    0  0.10741692384E+03 -0.46003976432E+02  0.22715839631E+02  0.14946087603E+03  0.90375786125E+02 0.  0.
         23    2    1    2    0    0 -0.10552195621E+03  0.12325765869E+02  0.34993338775E+02  0.15048618546E+03  0.10067149799E+03 0.  0.
        -11    1    3    3    0    0  0.36379713305E+02 -0.44474724915E+02 -0.26248253215E+02  0.63170052187E+02  0.00000000000E+00 0.  1.
         11    1    3    3    0    0  0.71037210534E+02 -0.15292515168E+01  0.48964092846E+02  0.86290823839E+02  0.00000000000E+00 0. -1.
        -13    1    4    4    0    0 -0.61224641445E+02 -0.38403818751E+02  0.40617022283E+02  0.82903875143E+02  0.00000000000E+00 0.  1.
         13    1    4    4    0    0 -0.44297314766E+02  0.50729584620E+02 -0.56236835077E+01  0.67582310314E+02  0.00000000000E+00 0. -1.
         21    1    1    2  502  501 -0.18949676288E+01  0.33678210563E+02 -0.24316049631E+02  0.41582244272E+02  0.00000000000E+00 0. -1.
<scales pt_clust_5="13000.00000" pt_clust_6="13000.00000" pt_clust_7="13000.00000" pt_clust_8="13000.00000" pt_clust_9="33.73148"></scales>
<clustering>
<clus scale="   33.731">  2  9  1 -1</clus>
<clus scale="   90.376">  5  6 -1 -1</clus>
<clus scale="  100.671">  7  8 -1 -1</clus>
<clus scale="  142.477">  2  5  1 -1</clus>
<clus scale="  149.220">  1  5  2 -1</clus>
</clustering>
</event>
<event>
 9    1  0.1266593E-005  0.9153794E+02  0.7546771E-02  0.1300573E+00
          1   -1    0    0  502    0  0.00000000000E+00  0.00000000000E+00  0.63980212947E+03  0.63980212947E+03  0.00000000000E+00 0. -1.
         -1   -1    0    0    0  501 -0.00000000000E+00 -0.00000000000E+00 -0.18094441515E+02  0.18094441515E+02  0.00000000000E+00 0.  1.
         23    2    1    2    0    0 -0.10832670057E+02 -0.11511721913E+02  0.19958586161E+03  0.21988635866E+03  0.90915499713E+02 0.  0.
         23    2    1    2    0    0  0.10093094313E+02 -0.97279661652E+01  0.38434887042E+03  0.39466892115E+03  0.88560709378E+02 0.  0.
        -11    1    3    3    0    0 -0.41925754401E+02 -0.30089073523E+02  0.82356318735E+02  0.97188911215E+02  0.00000000000E+00 0.  1.
         11    1    3    3    0    0  0.31093084344E+02  0.18577351610E+02  0.11722954287E+03  0.12269744744E+03  0.00000000000E+00 0. -1.
        -13    1    4    4    0    0 -0.97514526446E+01 -0.44080384077E+02  0.26714161682E+03  0.27092953794E+03  0.00000000000E+00 0.  1.
         13    1    4    4    0    0  0.19844546958E+02  0.34352417911E+02  0.11720725360E+03  0.12373938321E+03  0.00000000000E+00 0. -1.
         21    1    1    2  502  501  0.73957574430E+00  0.21239688078E+02  0.37772955924E+02  0.43341291180E+02  0.00000000000E+00 0. -1.
<scales pt_clust_5="13000.00000" pt_clust_6="13000.00000" pt_clust_7="13000.00000" pt_clust_8="13000.00000" pt_clust_9="21.25256"></scales>
<clustering>
<clus scale="   21.253">  2  9  1 -1</clus>
<clus scale="   88.561">  7  8 -1 -1</clus>
<clus scale="   89.200">  1  7  2 -1</clus>
<clus scale="   90.915">  5  6 -1 -1</clus>
<clus scale="   89.200">  1  5  2 -1</clus>
</clustering>
</event>
<event>
 9    1  0.1266593E-005  0.1556868E+03  0.7546771E-02  0.1207836E+00
         -1   -1    0    0    0  501 -0.00000000000E+00  0.00000000000E+00  0.34986099917E+02  0.34986099917E+02  0.00000000000E+00 0.  1.
          1   -1    0    0  502    0  0.00000000000E+00 -0.00000000000E+00 -0.11476667179E+04  0.11476667179E+04  0.00000000000E+00 0. -1.
         23    2    1    2    0    0 -0.13001426239E+02  0.66228550198E+02 -0.24612224136E+03  0.27143477836E+03  0.92441458581E+02 0.  0.
         23    2    1    2    0    0  0.16422538489E+01  0.59953799562E+02 -0.23731918669E+03  0.26935125084E+03  0.11239459451E+03 0.  0.
        -13    1    4    4    0    0  0.40619410243E+02  0.20630314273E+02 -0.19336112989E+03  0.19865566418E+03  0.00000000000E+00 0. -1.
         13    1    4    4    0    0 -0.38977156395E+02  0.39323485289E+02 -0.43958056798E+02  0.70695586661E+02  0.00000000000E+00 0.  1.
        -13    1    3    3    0    0  0.32446621622E+02  0.46915251684E+02 -0.18055886605E+03  0.18935503216E+03  0.00000000000E+00 0.  1.
         13    1    3    3    0    0 -0.45448047861E+02  0.19313298514E+02 -0.65563375313E+02  0.82079746200E+02  0.00000000000E+00 0. -1.
         21    1    1    2  502  501  0.11359172391E+02 -0.12618234976E+03 -0.62923918990E+03  0.64186678859E+03  0.00000000000E+00 0. -1.
<scales pt_clust_5="13000.00000" pt_clust_6="13000.00000" pt_clust_7="13000.00000" pt_clust_8="13000.00000" pt_clust_9="107.73042"></scales>
<clustering>
<clus scale="   92.441">  7  8 -1 -1</clus>
<clus scale="  112.395">  5  6 -1 -1</clus>
<clus scale="  114.458">  1  7  2 -1</clus>
<clus scale="  107.730">  2  9  1 -1</clus>
<clus scale="  107.730">  2  5  1 -1</clus>
</clustering>
</event>
<event>
 9    1  0.1266593E-005  0.1167219E+03  0.7546771E-02  0.1249238E+00
          1   -1    0    0  502    0  0.00000000000E+00  0.00000000000E+00  0.18570423778E+03  0.18570423778E+03  0.00000000000E+00 0. -1.
         -1   -1    0    0    0  501 -0.00000000000E+00 -0.00000000000E+00 -0.13783420006E+03  0.13783420006E+03  0.00000000000E+00 0.  1.
         23    2    1    2    0    0  0.17013984589E+02 -0.67398510033E+02  0.10555468341E+02  0.11412467021E+03  0.89894313568E+02 0.  0.
         23    2    1    2    0    0  0.61037425065E+01  0.74727599924E+02  0.91716921607E+02  0.14985068518E+03  0.91770170948E+02 0.  0.
        -11    1    3    3    0    0  0.51531613860E+01 -0.36067128827E+02  0.50322626872E+02  0.62126963787E+02  0.00000000000E+00 0. -1.
         11    1    3    3    0    0  0.11860823203E+02 -0.31331381206E+02 -0.39767158531E+02  0.51997706420E+02  0.00000000000E+00 0.  1.
        -13    1    4    4    0    0 -0.32662568419E+02  0.72302462990E+02  0.56281184954E+02  0.97273127378E+02  0.00000000000E+00 0.  1.
         13    1    4    4    0    0  0.38766310925E+02  0.24251369337E+01  0.35435736653E+02  0.52577557798E+02  0.00000000000E+00 0. -1.
         21    1    1    2  502  501 -0.23117727095E+02 -0.73290898906E+01 -0.54402352221E+02  0.59563082458E+02  0.00000000000E+00 0.  1.
<scales pt_clust_5="13000.00000" pt_clust_6="13000.00000" pt_clust_7="13000.00000" pt_clust_8="13000.00000" pt_clust_9="24.25170"></scales>
<clustering>
<clus scale="   24.252">  2  9  1 -1</clus>
<clus scale="   89.894">  5  6 -1 -1</clus>
<clus scale="   91.770">  7  8 -1 -1</clus>
<clus scale="  115.253">  2  5  1 -1</clus>
<clus scale="  116.722">  1  5  2 -1</clus>
</clustering>
</event>
<event>
 9    1  0.1266593E-005  0.1095861E+03  0.7546771E-02  0.1263038E+00
          1   -1    0    0  502    0  0.00000000000E+00  0.00000000000E+00  0.62178361635E+02  0.62178361635E+02  0.00000000000E+00 0. -1.
         -1   -1    0    0    0  501 -0.00000000000E+00 -0.00000000000E+00 -0.27678295851E+03  0.27678295851E+03  0.00000000000E+00 0.  1.
         23    2    1    2    0    0 -0.43482374731E+02  0.17235165447E+02 -0.15095733021E+03  0.18405692390E+03  0.94345470755E+02 0.  0.
         23    2    1    2    0    0  0.46877097785E+02 -0.37509080445E+02 -0.25047129285E+02  0.11117195543E+03  0.90152379753E+02 0.  0.
        -11    1    3    3    0    0 -0.55788110077E+02  0.39348446520E+02 -0.64308033107E+02  0.93787720900E+02  0.00000000000E+00 0. -1.
         11    1    3    3    0    0  0.12305735346E+02 -0.22113281073E+02 -0.86649297102E+02  0.90269203002E+02  0.00000000000E+00 0.  1.
        -11    1    4    4    0    0  0.18076461485E+01 -0.58541858134E+02 -0.12861192163E+02  0.59965214935E+02  0.00000000000E+00 0. -1.
         11    1    4    4    0    0  0.45069451637E+02  0.21032777689E+02 -0.12185937121E+02  0.51206740491E+02  0.00000000000E+00 0.  1.
         21    1    1    2  502  501 -0.33947230541E+01  0.20273914998E+02 -0.38600137381E+02  0.43732440817E+02  0.00000000000E+00 0. -1.
<scales pt_clust_5="13000.00000" pt_clust_6="13000.00000" pt_clust_7="13000.00000" pt_clust_8="13000.00000" pt_clust_9="20.55616"></scales>
<clustering>
<clus scale="   20.556">  2  9  1 -1</clus>
<clus scale="   90.152">  7  8 -1 -1</clus>
<clus scale="   94.345">  5  6 -1 -1</clus>
<clus scale="  105.998">  1  7  2 -1</clus>
<clus scale="  105.998">  1  5  2 -1</clus>
</clustering>
</event>
<event>
 9    1  0.1266593E-005  0.9198217E+02  0.7546771E-02  0.1299161E+00
          1   -1    0    0  502    0  0.00000000000E+00  0.00000000000E+00  0.32308188977E+02  0.32308188977E+02  0.00000000000E+00 0. -1.
         -1   -1    0    0    0  501 -0.00000000000E+00 -0.00000000000E+00 -0.54802714148E+03  0.54802714148E+03  0.00000000000E+00 0.  1.
         23    2    1    2    0    0  0.36020898602E+01 -0.21492930902E+02 -0.39712997491E+03  0.40782565466E+03  0.90192164267E+02 0.  0.
         23    2    1    2    0    0  0.14960494591E+01 -0.14266255914E+01 -0.61106783420E+02  0.11041700521E+03  0.91943475213E+02 0.  0.
        -11    1    4    4    0    0  0.24471339303E+02 -0.29697797290E+02  0.91001973465E+00  0.38491995883E+02  0.00000000000E+00 0.  1.
         11    1    4    4    0    0 -0.22975289844E+02  0.28271171698E+02 -0.62016803155E+02  0.71925009324E+02  0.00000000000E+00 0. -1.
        -13    1    3    3    0    0  0.46548155139E+02 -0.87781832373E+01 -0.18033034156E+03  0.18644789978E+03  0.00000000000E+00 0.  1.
         13    1    3    3    0    0 -0.42946065279E+02 -0.12714747665E+02 -0.21679963335E+03  0.22137775487E+03  0.00000000000E+00 0. -1.
         21    1    1    2  502  501 -0.50981393193E+01  0.22919556493E+02 -0.57482194175E+02  0.62092670594E+02  0.00000000000E+00 0.  1.
<scales pt_clust_5="13000.00000" pt_clust_6="13000.00000" pt_clust_7="13000.00000" pt_clust_8="13000.00000" pt_clust_9="23.47972"></scales>
<clustering>
<clus scale="   23.480">  2  9  1 -1</clus>
<clus scale="   90.192">  7  8 -1 -1</clus>
<clus scale="   90.232">  2  7  1 -1</clus>
<clus scale="   91.943">  5  6 -1 -1</clus>
<clus scale="   91.982">  1  5  2 -1</clus>
</clustering>
</event>
<event>
 9    1  0.1266593E-005  0.9234944E+02  0.7546771E-02  0.1297680E+00
         -1   -1    0    0    0  501 -0.00000000000E+00  0.00000000000E+00  0.13739527302E+03  0.13739527302E+03  0.00000000000E+00 0.  1.
          1   -1    0    0  502    0  0.00000000000E+00 -0.00000000000E+00 -0.11381946138E+03  0.11381946138E+03  0.00000000000E+00 0. -1.
         23    2    1    2    0    0 -0.30585646652E+02 -0.28068582629E+02 -0.90527472840E+01  0.99230868585E+02  0.89674332642E+02 0.  0.
         23    2    1    2    0    0  0.46912078051E+01  0.40818340719E+01 -0.17320960938E+02  0.90821454124E+02  0.88937348967E+02 0.  0.
        -11    1    3    3    0    0  0.21759213346E+02  0.38284299779E+01  0.21423703023E+02  0.30774913367E+02  0.00000000000E+00 0.  1.
         11    1    3    3    0    0 -0.52344859998E+02 -0.31897012606E+02 -0.30476450307E+02  0.68455955218E+02  0.00000000000E+00 0. -1.
        -13    1    4    4    0    0  0.16543502855E+02  0.44225808478E+02 -0.11084421854E+02  0.48502309534E+02  0.00000000000E+00 0.  1.
         13    1    4    4    0    0 -0.11852295050E+02 -0.40143974406E+02 -0.62365390836E+01  0.42319144590E+02  0.00000000000E+00 0. -1.
         21    1    1    2  502  501  0.25894438847E+02  0.23986748557E+02  0.49949519857E+02  0.61162411688E+02  0.00000000000E+00 0.  1.
<scales pt_clust_5="13000.00000" pt_clust_6="13000.00000" pt_clust_7="13000.00000" pt_clust_8="13000.00000" pt_clust_9="35.29711"></scales>
<clustering>
<clus scale="   35.297">  1  9  2 -1</clus>
<clus scale="   88.937">  7  8 -1 -1</clus>
<clus scale="   89.674">  5  6 -1 -1</clus>
<clus scale="   91.634">  2  7  1 -1</clus>
<clus scale="   91.634">  2  5  1 -1</clus>
</clustering>
</event>
<event>
 9    1  0.1266593E-005  0.2075513E+03  0.7546771E-02  0.1143611E+00
         -1   -1    0    0    0  501 -0.00000000000E+00  0.00000000000E+00  0.42356988072E+03  0.42356988072E+03  0.00000000000E+00 0.  1.
          1   -1    0    0  502    0  0.00000000000E+00 -0.00000000000E+00 -0.48676258264E+03  0.48676258264E+03  0.00000000000E+00 0. -1.
         23    2    1    2    0    0 -0.16511483720E+03 -0.27548903622E+02  0.16536282506E+03  0.25243683082E+03  0.91420118617E+02 0.  0.
         23    2    1    2    0    0  0.18803863152E+03  0.15049074366E+02 -0.41759806829E+03  0.46705845456E+03  0.90390551238E+02 0.  0.
        -11    1    4    4    0    0  0.75620249124E+01  0.27245730706E+02 -0.58327490306E+02  0.64819828663E+02  0.00000000000E+00 0.  1.
         11    1    4    4    0    0  0.18047660661E+03 -0.12196656340E+02 -0.35927057798E+03  0.40223862590E+03  0.00000000000E+00 0. -1.
        -13    1    3    3    0    0 -0.19294833655E+02  0.27210723627E+02  0.42633849723E+02  0.54132792541E+02  0.00000000000E+00 0. -1.
         13    1    3    3    0    0 -0.14582000354E+03 -0.54759627249E+02  0.12272897534E+03  0.19830403828E+03  0.00000000000E+00 0.  1.
         21    1    1    2  502  501 -0.22923794321E+02  0.12499829255E+02  0.18904254131E+03  0.19083717799E+03  0.00000000000E+00 0.  1.
<scales pt_clust_5="13000.00000" pt_clust_6="13000.00000" pt_clust_7="13000.00000" pt_clust_8="13000.00000" pt_clust_9="26.11027"></scales>
<clustering>
<clus scale="   26.110">  1  9  2 -1</clus>
<clus scale="   90.391">  5  6 -1 -1</clus>
<clus scale="   91.420">  7  8 -1 -1</clus>
<clus scale="  207.100">  2  5  1 -1</clus>
<clus scale="  207.100">  2  5  1 -1</clus>
</clustering>
</event>
<event>
 9    1  0.1266593E-005  0.1062227E+03  0.7546771E-02  0.1268927E+00
         -2   -1    0    0    0  501 -0.00000000000E+00  0.00000000000E+00  0.10692109340E+03  0.10692109340E+03  0.00000000000E+00 0.  1.
          2   -1    0    0  502    0  0.00000000000E+00 -0.00000000000E+00 -0.17751771689E+03  0.17751771689E+03  0.00000000000E+00 0. -1.
         23    2    1    2    0    0  0.11699324039E+02  0.50441633914E+02  0.30711693018E+02  0.10913459628E+03  0.91027025670E+02 0.  0.
         23    2    1    2    0    0  0.13037799330E+02 -0.64350328250E+02 -0.60148606002E+02  0.12530922606E+03  0.88168012191E+02 0.  0.
        -13    1    3    3    0    0  0.46316998664E+02  0.31089352439E+02  0.39701033255E+02  0.68468855999E+02  0.00000000000E+00 0.  1.
         13    1    3    3    0    0 -0.34617674625E+02  0.19352281475E+02 -0.89893402369E+01  0.40665740281E+02  0.00000000000E+00 0. -1.
        -13    1    4    4    0    0 -0.26831649006E+02  0.74015175313E+01 -0.16013035953E+02  0.32111324647E+02  0.00000000000E+00 0. -1.
         13    1    4    4    0    0  0.39869448336E+02 -0.71751845782E+02 -0.44135570049E+02  0.93197901410E+02  0.00000000000E+00 0.  1.
         21    1    1    2  502  501 -0.24737123369E+02  0.13908694336E+02 -0.41159710506E+02  0.49994987945E+02  0.00000000000E+00 0. -1.
<scales pt_clust_5="13000.00000" pt_clust_6="13000.00000" pt_clust_7="13000.00000" pt_clust_8="13000.00000" pt_clust_9="28.37917"></scales>
<clustering>
<clus scale="   28.379">  2  9  1 -1</clus>
<clus scale="   88.168">  7  8 -1 -1</clus>
<clus scale="   91.027">  5  6 -1 -1</clus>
<clus scale="  103.783">  2  7  1 -1</clus>
<clus scale="   28.379">  2  5  1 -1</clus>
</clustering>
</event>
<event>
 9    1  0.1266593E-005  0.1224177E+03  0.7546771E-02  0.1240115E+00
          1   -1    0    0  502    0  0.00000000000E+00  0.00000000000E+00  0.29252370119E+02  0.29252370119E+02  0.00000000000E+00 0. -1.
         -1   -1    0    0    0  501 -0.00000000000E+00 -0.00000000000E+00 -0.96292284155E+03  0.96292284155E+03  0.00000000000E+00 0.  1.
         23    2    1    2    0    0  0.36810592318E+02  0.67493944924E+02 -0.45631303930E+03  0.47066866497E+03  0.86005523308E+02 0.  0.
         23    2    1    2    0    0 -0.10038231789E+03 -0.49239553355E+02 -0.30475097776E+03  0.33666181403E+03  0.89257353884E+02 0.  0.
        -13    1    3    3    0    0  0.61416227395E+02  0.26571394653E+02 -0.24050318933E+03  0.24963929194E+03  0.00000000000E+00 0. -1.
         13    1    3    3    0    0 -0.24605635076E+02  0.40922550272E+02 -0.21580984997E+03  0.22102937303E+03  0.00000000000E+00 0.  1.
        -13    1    4    4    0    0 -0.31343683124E+02  0.40664154677E+01 -0.18954304637E+03  0.19216016402E+03  0.00000000000E+00 0.  1.
         13    1    4    4    0    0 -0.69038634769E+02 -0.53305968823E+02 -0.11520793138E+03  0.14450165001E+03  0.00000000000E+00 0. -1.
         21    1    1    2  502  501  0.63571725575E+02 -0.18254391569E+02 -0.17260645438E+03  0.18484473267E+03  0.00000000000E+00 0.  1.
<scales pt_clust_5="13000.00000" pt_clust_6="13000.00000" pt_clust_7="13000.00000" pt_clust_8="13000.00000" pt_clust_9="66.14066"></scales>
<clustering>
<clus scale="   66.141">  1  9  2 -1</clus>
<clus scale="   86.006">  5  6 -1 -1</clus>
<clus scale="   89.257">  7  8 -1 -1</clus>
<clus scale="  120.067">  2  5  1 -1</clus>
<clus scale="   66.141">  1  5  2 -1</clus>
</clustering>
</event>
<event>
 9    1  0.1266593E-005  0.2490834E+03  0.7546771E-02  0.1114245E+00
          1   -1    0    0  502    0  0.00000000000E+00  0.00000000000E+00  0.79685551771E+03  0.79685551771E+03  0.00000000000E+00 0. -1.
         -1   -1    0    0    0  501 -0.00000000000E+00 -0.00000000000E+00 -0.42635703614E+03  0.42635703614E+03  0.00000000000E+00 0.  1.
         23    2    1    2    0    0 -0.22569113278E+03 -0.44145279684E+02 -0.13686376130E+03  0.28113313963E+03  0.86132803903E+02 0.  0.
         23    2    1    2    0    0  0.21221353659E+03  0.93715997674E+02  0.69974039992E+03  0.74296071346E+03  0.92394378259E+02 0.  0.
        -11    1    4    4    0    0  0.82508846344E+01  0.33517997735E+02  0.13975121282E+03  0.14395115405E+03  0.00000000000E+00 0. -1.
         11    1    4    4    0    0  0.20396265196E+03  0.60197999939E+02  0.55998918710E+03  0.59900955941E+03  0.00000000000E+00 0.  1.
        -11    1    3    3    0    0 -0.76794225922E+02 -0.65032595458E+01 -0.25596977956E+01  0.77111591687E+02  0.00000000000E+00 0. -1.
         11    1    3    3    0    0 -0.14889690686E+03 -0.37642020138E+02 -0.13430406351E+03  0.20402154795E+03  0.00000000000E+00 0.  1.
         21    1    1    2  502  501  0.13477596190E+02 -0.49570717991E+02 -0.19237815705E+03  0.19911870076E+03  0.00000000000E+00 0.  1.
<scales pt_clust_5="13000.00000" pt_clust_6="13000.00000" pt_clust_7="13000.00000" pt_clust_8="13000.00000" pt_clust_9="51.37024"></scales>
<clustering>
<clus scale="   51.370">  2  9  1 -1</clus>
<clus scale="   86.133">  7  8 -1 -1</clus>
<clus scale="   92.394">  5  6 -1 -1</clus>
<clus scale="  246.829">  2  7  1 -1</clus>
<clus scale="  249.083">  1  5  2 -1</clus>
</clustering>
</event>
<event>
 9    1  0.1266593E-005  0.1654813E+03  0.7546771E-02  0.1206347E+00
         -1   -1    0    0    0  501 -0.00000000000E+00  0.00000000000E+00  0.41715415991E+03  0.41715415991E+03  0.00000000000E+00 0.  1.
          1   -1    0    0  502    0  0.00000000000E+00 -0.00000000000E+00 -0.12657964837E+03  0.12657964837E+03  0.00000000000E+00 0. -1.
         23    2    1    2    0    0  0.14156495217E+03  0.45311301588E+02  0.20079991196E+03  0.26576775237E+03  0.90653978540E+02 0.  0.
         23    2    1    2    0    0 -0.33524350179E+02  0.30804870527E+02 -0.26525195651E+02  0.10192036381E+03  0.87243065354E+02 0.  0.
        -11    1    4    4    0    0  0.18544582427E+02 -0.16671141100E+02  0.37702735479E+01  0.25219901776E+02  0.00000000000E+00 0.  1.
         11    1    4    4    0    0 -0.52068932606E+02  0.47476011626E+02 -0.30295469199E+02  0.76700462037E+02  0.00000000000E+00 0. -1.
        -13    1    3    3    0    0  0.41489557659E+02  0.52835605903E+02  0.46500015855E+02  0.81702118212E+02  0.00000000000E+00 0.  1.
         13    1    3    3    0    0  0.10007539451E+03 -0.75243043142E+01  0.15429989610E+03  0.18406563416E+03  0.00000000000E+00 0. -1.
         21    1    1    2  502  501 -0.10804060199E+03 -0.76116172115E+02  0.11629979522E+03  0.17604569209E+03  0.00000000000E+00 0.  1.
<scales pt_clust_5="13000.00000" pt_clust_6="13000.00000" pt_clust_7="13000.00000" pt_clust_8="13000.00000" pt_clust_9="138.44105"></scales>
<clustering>
<clus scale="   87.243">  5  6 -1 -1</clus>
<clus scale="   90.654">  7  8 -1 -1</clus>
<clus scale="   98.408">  2  5  1 -1</clus>
<clus scale="  138.441">  2  9  1 -1</clus>
<clus scale="   98.408">  2  5  1 -1</clus>
</clustering>
</event>
<event>
 9    1  0.1266593E-005  0.9499187E+02  0.7546771E-02  0.1291508E+00
          1   -1    0    0  502    0  0.00000000000E+00  0.00000000000E+00  0.21170580562E+03  0.21170580562E+03  0.00000000000E+00 0. -1.
         -1   -1    0    0    0  501 -0.00000000000E+00 -0.00000000000E+00 -0.79540166026E+02  0.79540166026E+02  0.00000000000E+00 0.  1.
         23    2    1    2    0    0  0.29013932585E+02 -0.18960720732E+02 -0.67962352723E+01  0.10004303703E+03  0.93600765107E+02 0.  0.
         23    2    1    2    0    0 -0.19841547801E+01  0.69348714879E+01  0.12923202164E+03  0.16005971735E+03  0.94160333414E+02 0.  0.
        -11    1    4    4    0    0 -0.34177262500E+02 -0.12708119429E+02  0.11347155995E+03  0.11918630999E+03  0.00000000000E+00 0.  1.
         11    1    4    4    0    0  0.32193107720E+02  0.19642990917E+02  0.15760461693E+02  0.40873407365E+02  0.00000000000E+00 0. -1.
        -11    1    3    3    0    0  0.10001130612E+02  0.37810101545E+02  0.36051868103E+01  0.39276249367E+02  0.00000000000E+00 0.  1.
         11    1    3    3    0    0  0.19012801974E+02 -0.56770822278E+02 -0.10401422083E+02  0.60766787658E+02  0.00000000000E+00 0. -1.
         21    1    1    2  502  501 -0.27029777805E+02  0.12025849244E+02  0.97298532280E+01  0.31143217272E+02  0.00000000000E+00 0. -1.
<scales pt_clust_5="13000.00000" pt_clust_6="13000.00000" pt_clust_7="13000.00000" pt_clust_8="13000.00000" pt_clust_9="29.58429"></scales>
<clustering>
<clus scale="   29.584">  2  9  1 -1</clus>
<clus scale="   93.601">  7  8 -1 -1</clus>
<clus scale="   94.160">  5  6 -1 -1</clus>
<clus scale="   94.437">  2  7  1 -1</clus>
<clus scale="   94.992">  1  5  2 -1</clus>
</clustering>
</event>
<event>
 9    1  0.1266593E-005  0.1080244E+03  0.7546771E-02  0.1265286E+00
         -2   -1    0    0    0  501 -0.00000000000E+00  0.00000000000E+00  0.79050521019E+02  0.79050521019E+02  0.00000000000E+00 0.  1.
          2   -1    0    0  502    0  0.00000000000E+00 -0.00000000000E+00 -0.28460462979E+03  0.28460462979E+03  0.00000000000E+00 0. -1.
         23    2    1    2    0    0  0.23169406424E+02 -0.32088884775E+01 -0.27490979252E+01  0.92811316141E+02  0.89773406447E+02 0.  0.
         23    2    1    2    0    0 -0.52120555359E+02  0.46668567712E+02 -0.17963106804E+03  0.21371289411E+03  0.92257102708E+02 0.  0.
        -11    1    3    3    0    0  0.31663030415E+02  0.35554911765E+02  0.14166818404E+02  0.49672910015E+02  0.00000000000E+00 0. -1.
         11    1    3    3    0    0 -0.84936239910E+01 -0.38763800243E+02 -0.16915916329E+02  0.43138406125E+02  0.00000000000E+00 0.  1.
        -11    1    4    4    0    0  0.83695423048E+01  0.50069408997E+02 -0.11167124416E+03  0.12266809580E+03  0.00000000000E+00 0. -1.
         11    1    4    4    0    0 -0.60490097664E+02 -0.34008412854E+01 -0.67959823883E+02  0.91044798309E+02  0.00000000000E+00 0.  1.
         21    1    1    2  502  501  0.28951148935E+02 -0.43459679234E+02 -0.23173942801E+02  0.57130940555E+02  0.00000000000E+00 0.  1.
<scales pt_clust_5="13000.00000" pt_clust_6="13000.00000" pt_clust_7="13000.00000" pt_clust_8="13000.00000" pt_clust_9="52.21985"></scales>
<clustering>
<clus scale="   52.220">  1  9  2 -1</clus>
<clus scale="   89.773">  5  6 -1 -1</clus>
<clus scale="   92.257">  7  8 -1 -1</clus>
<clus scale="  105.911">  1  5  2 -1</clus>
<clus scale="  108.024">  2  5  1 -1</clus>
</clustering>
</event>
<event>
 9    1  0.1266593E-005  0.9462227E+02  0.7546771E-02  0.1294209E+00
         -2   -1    0    0    0  501 -0.00000000000E+00  0.00000000000E+00  0.44138576337E+02  0.44138576337E+02  0.00000000000E+00 0.  1.
          2   -1    0    0  502    0  0.00000000000E+00 -0.00000000000E+00 -0.27995225064E+03  0.27995225064E+03  0.00000000000E+00 0. -1.
         23    2    1    2    0    0 -0.21650386887E+01 -0.42240075507E+01 -0.67510304332E+02  0.11553836661E+03  0.93642636311E+02 0.  0.
         23    2    1    2    0    0  0.29445035896E+02  0.13767363268E+01 -0.11748127645E+03  0.15080135310E+03  0.89834805272E+02 0.  0.
        -13    1    4    4    0    0  0.16204832157E+02  0.45532985000E+02 -0.56358462477E+02  0.74243690648E+02  0.00000000000E+00 0.  1.
         13    1    4    4    0    0  0.13240203739E+02 -0.44156248673E+02 -0.61122813976E+02  0.76557662453E+02  0.00000000000E+00 0. -1.
        -13    1    3    3    0    0  0.94527139705E+01  0.29122765133E+02  0.84568968045E+01  0.31764891846E+02  0.00000000000E+00 0.  1.
         13    1    3    3    0    0 -0.11617752659E+02 -0.33346772684E+02 -0.75967201137E+02  0.83773474763E+02  0.00000000000E+00 0. -1.
         21    1    1    2  502  501 -0.27279997207E+02  0.28472712239E+01 -0.50822093520E+02  0.57751107269E+02  0.00000000000E+00 0.  1.
<scales pt_clust_5="13000.00000" pt_clust_6="13000.00000" pt_clust_7="13000.00000" pt_clust_8="13000.00000" pt_clust_9="27.42818"></scales>
<clustering>
<clus scale="   27.428">  2  9  1 -1</clus>
<clus scale="   89.835">  5  6 -1 -1</clus>
<clus scale="   90.856">  2  5  1 -1</clus>
<clus scale="   93.643">  7  8 -1 -1</clus>
<clus scale="   27.428">  2  5  1 -1</clus>
</clustering>
</event>
<event>
 9    1  0.1266593E-005  0.1933174E+03  0.7546771E-02  0.1158986E+00
         -1   -1    0    0    0  501 -0.00000000000E+00  0.00000000000E+00  0.15749695749E+03  0.15749695749E+03  0.00000000000E+00 0.  1.
          1   -1    0    0  502    0  0.00000000000E+00 -0.00000000000E+00 -0.43735451951E+03  0.43735451951E+03  0.00000000000E+00 0. -1.
         23    2    1    2    0    0  0.72527665094E+02  0.13711657679E+03 -0.37177441137E+02  0.18548025690E+03  0.94654876980E+02 0.  0.
         23    2    1    2    0    0 -0.51503013788E+02 -0.14062941455E+03 -0.29539166397E+03  0.35251277512E+03  0.12074696191E+03 0.  0.
        -13    1    4    4    0    0 -0.63734544740E+02 -0.78556390642E+02 -0.82856136019E+02  0.13076061326E+03  0.00000000000E+00 0.  1.
         13    1    4    4    0    0  0.12231530951E+02 -0.62073023911E+02 -0.21253552795E+03  0.22175216186E+03  0.00000000000E+00 0. -1.
        -13    1    3    3    0    0  0.31771365801E+02  0.33323337597E+01 -0.32464464948E+02  0.45546301909E+02  0.00000000000E+00 0. -1.
         13    1    3    3    0    0  0.40756299292E+02  0.13378424303E+03 -0.47129761888E+01  0.13993395499E+03  0.00000000000E+00 0.  1.
         21    1    1    2  502  501 -0.21024651305E+02  0.35128377610E+01  0.52711543082E+02  0.56858444982E+02  0.00000000000E+00 0. -1.
<scales pt_clust_5="13000.00000" pt_clust_6="13000.00000" pt_clust_7="13000.00000" pt_clust_8="13000.00000" pt_clust_9="21.31610"></scales>
<clustering>
<clus scale="   21.316">  1  9  2 -1</clus>
<clus scale="   94.655">  7  8 -1 -1</clus>
<clus scale="  120.747">  5  6 -1 -1</clus>
<clus scale="  178.189">  1  7  2 -1</clus>
<clus scale="  193.317">  2  5  1 -1</clus>
</clustering>
</event>
<event>
 9    1  0.1266593E-005  0.9287715E+02  0.7546771E-02  0.1298012E+00
          1   -1    0    0  502    0  0.00000000000E+00  0.00000000000E+00  0.17634791581E+03  0.17634791581E+03  0.00000000000E+00 0. -1.
         -1   -1    0    0    0  501 -0.00000000000E+00 -0.00000000000E+00 -0.11119219879E+03  0.11119219879E+03  0.00000000000E+00 0.  1.
         23    2    1    2    0    0 -0.45340113396E+02  0.49576919193E+01 -0.37128340243E+02  0.10771641837E+03  0.90244160726E+02 0.  0.
         23    2    1    2    0    0  0.17061010321E+02  0.33686181947E+01  0.11713027882E+03  0.14681694835E+03  0.86794518532E+02 0.  0.
        -11    1    3    3    0    0 -0.61191880864E+02 -0.25878838922E+02 -0.23948766530E+02  0.70623678791E+02  0.00000000000E+00 0. -1.
         11    1    3    3    0    0  0.15851767468E+02  0.30836530841E+02 -0.13179573712E+02  0.37092739578E+02  0.00000000000E+00 0.  1.
        -13    1    4    4    0    0  0.42232121440E+02  0.74770371878E+01  0.21755812122E+02  0.48091304074E+02  0.00000000000E+00 0.  1.
         13    1    4    4    0    0 -0.25171111119E+02 -0.41084189931E+01  0.95374466693E+02  0.98725644281E+02  0.00000000000E+00 0. -1.
         21    1    1    2  502  501  0.28279103075E+02 -0.83263101140E+01 -0.14846221550E+02  0.33006747873E+02  0.00000000000E+00 0. -1.
<scales pt_clust_5="13000.00000" pt_clust_6="13000.00000" pt_clust_7="13000.00000" pt_clust_8="13000.00000" pt_clust_9="29.47940"></scales>
<clustering>
<clus scale="   29.479">  2  9  1 -1</clus>
<clus scale="   86.795">  7  8 -1 -1</clus>
<clus scale="   89.529">  1  7  2 -1</clus>
<clus scale="   90.244">  5  6 -1 -1</clus>
<clus scale="   89.529">  1  5  2 -1</clus>
</clustering>
</event>
<event>
 9    1  0.1266593E-005  0.1163594E+03  0.7546771E-02  0.1252701E+00
          3   -1    0    0  502    0  0.00000000000E+00  0.00000000000E+00  0.10404344943E+03  0.10404344943E+03  0.00000000000E+00 0. -1.
         -3   -1    0    0    0  501 -0.00000000000E+00 -0.00000000000E+00 -0.21945348231E+03  0.21945348231E+03  0.00000000000E+00 0.  1.
         23    2    1    2    0    0  0.82840008967E+02  0.47323059714E+02 -0.20033026077E+02  0.13756713166E+03  0.97064177292E+02 0.  0.
         23    2    1    2    0    0 -0.36431444616E+02 -0.86148653386E+01 -0.37818565649E+02  0.10247290518E+03  0.87572748769E+02 0.  0.
        -11    1    4    4    0    0  0.11249397017E+02  0.25920794722E+02 -0.32936771044E+02  0.43396629121E+02  0.00000000000E+00 0.  1.
         11    1    4    4    0    0 -0.47680841633E+02 -0.34535660060E+02 -0.48817946050E+01  0.59076276061E+02  0.00000000000E+00 0. -1.
        -13    1    3    3    0    0  0.52079300603E+02  0.73680740617E+02 -0.31330117672E+02  0.95512728799E+02  0.00000000000E+00 0.  1.
         13    1    3    3    0    0  0.30760708363E+02 -0.26357680903E+02  0.11297091595E+02  0.42054402863E+02  0.00000000000E+00 0. -1.
         21    1    1    2  502  501 -0.46408564351E+02 -0.38708194375E+02 -0.57558441158E+02  0.83456894894E+02  0.00000000000E+00 0. -1.
<scales pt_clust_5="13000.00000" pt_clust_6="13000.00000" pt_clust_7="13000.00000" pt_clust_8="13000.00000" pt_clust_9="60.43243"></scales>
<clustering>
<clus scale="   60.432">  2  9  1 -1</clus>
<clus scale="   87.573">  5  6 -1 -1</clus>
<clus scale="   97.064">  7  8 -1 -1</clus>
<clus scale="  108.568">  1  5  2 -1</clus>
<clus scale="  108.568">  1  5  2 -1</clus>
</clustering>
</event>
<event>
 9    1  0.1266593E-005  0.1004619E+03  0.7546771E-02  0.1281665E+00
          1   -1    0    0  502    0  0.00000000000E+00  0.00000000000E+00  0.42320957058E+03  0.42320957058E+03  0.00000000000E+00 0. -1.
         -1   -1    0    0    0  501 -0.00000000000E+00 -0.00000000000E+00 -0.35749540957E+02  0.35749540957E+02  0.00000000000E+00 0.  1.
         23    2    1    2    0    0 -0.42830963140E+02 -0.37627750349E+02  0.11519868982E+03  0.15819307381E+03  0.92216980345E+02 0.  0.
         23    2    1    2    0    0  0.23289243948E+02  0.23710245286E+02  0.25381410660E+03  0.27050259198E+03  0.87438475174E+02 0.  0.
        -13    1    3    3    0    0  0.93893266154E+01 -0.45558016656E+02  0.86168751648E+02  0.97922143035E+02  0.00000000000E+00 0. -1.
         13    1    3    3    0    0 -0.52220289756E+02  0.79302663073E+01  0.29029938177E+02  0.60270930774E+02  0.00000000000E+00 0.  1.
        -13    1    4    4    0    0  0.18954696695E+02 -0.21711858249E+02  0.28207178351E+02  0.40327784788E+02  0.00000000000E+00 0.  1.
         13    1    4    4    0    0  0.43345472532E+01  0.45422103534E+02  0.22560692825E+03  0.23017480719E+03  0.00000000000E+00 0. -1.
         21    1    1    2  502  501  0.19541719192E+02  0.13917505063E+02  0.18447233198E+02  0.30263445753E+02  0.00000000000E+00 0. -1.
<scales pt_clust_5="13000.00000" pt_clust_6="13000.00000" pt_clust_7="13000.00000" pt_clust_8="13000.00000" pt_clust_9="23.99116"></scales>
<clustering>
<clus scale="   23.991">  2  9  1 -1</clus>
<clus scale="   87.438">  7  8 -1 -1</clus>
<clus scale="   92.217">  5  6 -1 -1</clus>
<clus scale="   96.094">  1  7  2 -1</clus>
<clus scale="   96.094">  1  5  2 -1</clus>
</clustering>
</event>
<event>
 9    1  0.1266593E-005  0.1218701E+03  0.7546771E-02  0.1240497E+00
         -2   -1    0    0    0  501 -0.00000000000E+00  0.00000000000E+00  0.85927824944E+02  0.85927824944E+02  0.00000000000E+00 0.  1.
          2   -1    0    0  502    0  0.00000000000E+00 -0.00000000000E+00 -0.36067034260E+03  0.36067034260E+03  0.00000000000E+00 0. -1.
         23    2    1    2    0    0  0.28059779288E+02  0.43309294239E+02 -0.91762124243E+01  0.10435043010E+03  0.90231719513E+02 0.  0.
         23    2    1    2    0    0 -0.80914675824E+02 -0.42276228948E+02 -0.25827509492E+03  0.28888230800E+03  0.91719675774E+02 0.  0.
        -11    1    4    4    0    0 -0.89449410992E+02 -0.22700082185E+02 -0.24908889512E+03  0.26563465236E+03  0.00000000000E+00 0. -1.
         11    1    4    4    0    0  0.85347351672E+01 -0.19576146763E+02 -0.91861997961E+01  0.23247655649E+02  0.00000000000E+00 0.  1.
        -11    1    3    3    0    0  0.57497255719E+02  0.88631654590E+01 -0.29511892045E+00  0.58177119319E+02  0.00000000000E+00 0.  1.
         11    1    3    3    0    0 -0.29437476431E+02  0.34446128780E+02 -0.88810935038E+01  0.46173310780E+02  0.00000000000E+00 0. -1.
         21    1    1    2  502  501  0.52854896536E+02 -0.10330652909E+01 -0.72912103142E+01  0.53365429443E+02  0.00000000000E+00 0. -1.
<scales pt_clust_5="13000.00000" pt_clust_6="13000.00000" pt_clust_7="13000.00000" pt_clust_8="13000.00000" pt_clust_9="52.86499"></scales>
<clustering>
<clus scale="   52.865">  1  9  2 -1</clus>
<clus scale="   90.232">  7  8 -1 -1</clus>
<clus scale="   91.720">  5  6 -1 -1</clus>
<clus scale="  120.754">  1  7  2 -1</clus>
<clus scale="  121.870">  2  5  1 -1</clus>
</clustering>
</event>
<event>
 9    1  0.1266593E-005  0.1102332E+03  0.7546771E-02  0.1261938E+00
          4   -1    0    0  502    0  0.00000000000E+00  0.00000000000E+00  0.12757435830E+03  0.12757435830E+03  0.00000000000E+00 0. -1.
         -4   -1    0    0    0  501 -0.00000000000E+00 -0.00000000000E+00 -0.16286183293E+03  0.16286183293E+03  0.00000000000E+00 0.  1.
         23    2    1    2    0    0 -0.49726729703E+02  0.31062786219E+02 -0.37145760549E+02  0.11810806450E+03  0.95561828352E+02 0.  0.
         23    2    1    2    0    0  0.26958743904E+01 -0.66669897697E+02 -0.42614861981E+01  0.11302197738E+03  0.91124442987E+02 0.  0.
        -11    1    3    3    0    0 -0.40215283652E+00  0.48007900281E+02 -0.44471661026E+02  0.65441950236E+02  0.00000000000E+00 0.  1.
         11    1    3    3    0    0 -0.49324576866E+02 -0.16945114062E+02  0.73259004771E+01  0.52666114262E+02  0.00000000000E+00 0. -1.
        -13    1    4    4    0    0  0.31484626890E+02 -0.80773526128E+01 -0.28653691816E+02  0.43330813635E+02  0.00000000000E+00 0.  1.
         13    1    4    4    0    0 -0.28788752499E+02 -0.58592545084E+02  0.24392205617E+02  0.69691163750E+02  0.00000000000E+00 0. -1.
         21    1    1    2  502  501  0.47030855313E+02  0.35607111479E+02  0.61197721157E+01  0.59306149344E+02  0.00000000000E+00 0. -1.
<scales pt_clust_5="13000.00000" pt_clust_6="13000.00000" pt_clust_7="13000.00000" pt_clust_8="13000.00000" pt_clust_9="58.98956"></scales>
<clustering>
<clus scale="   58.990">  1  9  2 -1</clus>
<clus scale="   91.124">  7  8 -1 -1</clus>
<clus scale="   95.562">  5  6 -1 -1</clus>
<clus scale="  106.409">  1  7  2 -1</clus>
<clus scale="   58.990">  1  5  2 -1</clus>
</clustering>
</event>
<event>
 9    1  0.1266593E-005  0.1885170E+03  0.7546771E-02  0.1160346E+00
          2   -1    0    0  502    0  0.00000000000E+00  0.00000000000E+00  0.39468757351E+03  0.39468757351E+03  0.00000000000E+00 0. -1.
         -2   -1    0    0    0  501 -0.00000000000E+00 -0.00000000000E+00 -0.12028329942E+03  0.12028329942E+03  0.00000000000E+00 0.  1.
         23    2    1    2    0    0  0.17838657912E+03  0.40994419627E+02  0.74255278127E+02  0.21645347401E+03  0.88520879060E+02 0.  0.
         23    2    1    2    0    0 -0.14498049701E+03 -0.53166234353E+02  0.18885891993E+03  0.26121344185E+03  0.93374394665E+02 0.  0.
        -11    1    4    4    0    0 -0.25603531989E+02 -0.55389772197E+02  0.61339275124E+02  0.86522103460E+02  0.00000000000E+00 0. -1.
         11    1    4    4    0    0 -0.11937696502E+03  0.22235378447E+01  0.12751964481E+03  0.17469133839E+03  0.00000000000E+00 0.  1.
        -13    1    3    3    0    0  0.17727603939E+03  0.18528073594E+02  0.76260615109E+02  0.19387048530E+03  0.00000000000E+00 0.  1.
         13    1    3    3    0    0  0.11105397280E+01  0.22466346032E+02 -0.20053369825E+01  0.22582988707E+02  0.00000000000E+00 0. -1.
         21    1    1    2  502  501 -0.33406082115E+02  0.12171814726E+02  0.11290076036E+02  0.37303957067E+02  0.00000000000E+00 0. -1.
<scales pt_clust_5="13000.00000" pt_clust_6="13000.00000" pt_clust_7="13000.00000" pt_clust_8="13000.00000" pt_clust_9="35.55446"></scales>
<clustering>
<clus scale="   35.554">  2  9  1 -1</clus>
<clus scale="   88.521">  7  8 -1 -1</clus>
<clus scale="   93.374">  5  6 -1 -1</clus>
<clus scale="  186.161">  2  7  1 -1</clus>
<clus scale="  188.517">  1  5  2 -1</clus>
</clustering>
</event>
<event>
 9    1  0.1266593E-005  0.1026978E+03  0.7546771E-02  0.1276212E+00
          1   -1    0    0  502    0  0.00000000000E+00  0.00000000000E+00  0.21963555699E+03  0.21963555699E+03  0.00000000000E+00 0. -1.
         -1   -1    0    0    0  501 -0.00000000000E+00 -0.00000000000E+00 -0.14299438077E+03  0.14299438077E+03  0.00000000000E+00 0.  1.
         23    2    1    2    0    0  0.44228762182E+01  0.99628716226E+02 -0.22356527482E+02  0.13851372300E+03  0.93492214691E+02 0.  0.
         23    2    1    2    0    0 -0.44088328430E+01 -0.18803532713E+02  0.10388009887E+03  0.14314369924E+03  0.96571388313E+02 0.  0.
        -11    1    3    3    0    0 -0.23642685881E+02  0.25899643042E+01 -0.28729549665E+02  0.37297071396E+02  0.00000000000E+00 0.  1.
         11    1    3    3    0    0  0.28065562099E+02  0.97038751922E+02  0.63730221825E+01  0.10121665161E+03  0.00000000000E+00 0. -1.
        -11    1    4    4    0    0  0.16437724068E+02  0.29332822857E+02  0.77387630160E+02  0.84376884104E+02  0.00000000000E+00 0. -1.
         11    1    4    4    0    0 -0.20846556911E+02 -0.48136355570E+02  0.26492468708E+02  0.58766815133E+02  0.00000000000E+00 0.  1.
         21    1    1    2  502  501 -0.14043375143E-01 -0.80825183513E+02 -0.48823951670E+01  0.80972515520E+02  0.00000000000E+00 0.  1.
<scales pt_clust_5="13000.00000" pt_clust_6="13000.00000" pt_clust_7="13000.00000" pt_clust_8="13000.00000" pt_clust_9="80.82518"></scales>
<clustering>
<clus scale="   80.825">  2  9  1 -1</clus>
<clus scale="   93.492">  5  6 -1 -1</clus>
<clus scale="   96.571">  7  8 -1 -1</clus>
<clus scale="   99.808">  2  5  1 -1</clus>
<clus scale="  102.698">  1  5  2 -1</clus>
</clustering>
</event>
<event>
 9    1  0.1266593E-005  0.9675905E+02  0.7546771E-02  0.1287897E+00
          1   -1    0    0  502    0  0.00000000000E+00  0.00000000000E+00  0.58065409971E+03  0.58065409971E+03  0.00000000000E+00 0. -1.
         -1   -1    0    0    0  501 -0.00000000000E+00 -0.00000000000E+00 -0.57298061944E+02  0.57298061944E+02  0.00000000000E+00 0.  1.
         23    2    1    2    0    0  0.39763101891E+02  0.28667052433E+02  0.27131443499E+03  0.29031517156E+03  0.90931138982E+02 0.  0.
         23    2    1    2    0    0 -0.86822349080E+01 -0.21333488751E+02  0.28623728973E+03  0.30084867472E+03  0.89708640071E+02 0.  0.
        -13    1    4    4    0    0 -0.11230700242E+02  0.34324096587E+02  0.93954927355E+02  0.10065684581E+03  0.00000000000E+00 0. -1.
         13    1    4    4    0    0  0.25484653341E+01 -0.55657585337E+02  0.19228236238E+03  0.20019182891E+03  0.00000000000E+00 0.  1.
        -13    1    3    3    0    0 -0.22587717616E+02  0.18844432737E+02  0.35018540813E+02  0.45734186698E+02  0.00000000000E+00 0.  1.
         13    1    3    3    0    0  0.62350819507E+02  0.98226196960E+01  0.23629589418E+03  0.24458098486E+03  0.00000000000E+00 0. -1.
         21    1    1    2  502  501 -0.31080866983E+02 -0.73335636821E+01 -0.34195686957E+02  0.46788315370E+02  0.00000000000E+00 0.  1.
<scales pt_clust_5="13000.00000" pt_clust_6="13000.00000" pt_clust_7="13000.00000" pt_clust_8="13000.00000" pt_clust_9="31.93433"></scales>
<clustering>
<clus scale="   31.934">  2  9  1 -1</clus>
<clus scale="   89.709">  5  6 -1 -1</clus>
<clus scale="   90.931">  7  8 -1 -1</clus>
<clus scale="   95.611">  1  5  2 -1</clus>
<clus scale="   95.611">  1  5  2 -1</clus>
</clustering>
</event>
<event>
 9    1  0.1266593E-005  0.1279338E+03  0.7546771E-02  0.1232334E+00
          1   -1    0    0  502    0  0.00000000000E+00  0.00000000000E+00  0.33058861710E+03  0.33058861710E+03  0.00000000000E+00 0. -1.
         -1   -1    0    0    0  501 -0.00000000000E+00 -0.00000000000E+00 -0.10920621957E+03  0.10920621957E+03  0.00000000000E+00 0.  1.
         23    2    1    2    0    0  0.43961533754E+02  0.91570975346E+02 -0.24276703749E+02  0.13603950211E+03  0.87175270656E+02 0.  0.
         23    2    1    2    0    0 -0.16600058331E+02 -0.83345940931E+02  0.24440172066E+03  0.27515668888E+03  0.93578280426E+02 0.  0.
        -11    1    4    4    0    0  0.16922994633E+02 -0.46581345750E+02  0.36940072557E+02  0.61812445994E+02  0.00000000000E+00 0.  1.
         11    1    4    4    0    0 -0.33523052964E+02 -0.36764595181E+02  0.20746164811E+03  0.21334424289E+03  0.00000000000E+00 0. -1.
        -13    1    3    3    0    0  0.26245803859E+02  0.14757336043E+02  0.28269788215E+02  0.41301357278E+02  0.00000000000E+00 0. -1.
         13    1    3    3    0    0  0.17715729894E+02  0.76813639303E+02 -0.52546491964E+02  0.94738144833E+02  0.00000000000E+00 0.  1.
         21    1    1    2  502  501 -0.27361475423E+02 -0.82250344146E+01  0.12573806072E+01  0.28598645675E+02  0.00000000000E+00 0.  1.
<scales pt_clust_5="13000.00000" pt_clust_6="13000.00000" pt_clust_7="13000.00000" pt_clust_8="13000.00000" pt_clust_9="28.57099"></scales>
<clustering>
<clus scale="   28.571">  2  9  1 -1</clus>
<clus scale="   87.175">  7  8 -1 -1</clus>
<clus scale="   93.578">  5  6 -1 -1</clus>
<clus scale="  123.328">  2  7  1 -1</clus>
<clus scale="  127.934">  1  5  2 -1</clus>
</clustering>
</event>
<event>
 9    1  0.1266593E-005  0.1032836E+03  0.7546771E-02  0.1273907E+00
          1   -1    0    0  502    0  0.00000000000E+00  0.00000000000E+00  0.24603986554E+03  0.24603986554E+03  0.00000000000E+00 0. -1.
         -1   -1    0    0    0  501 -0.00000000000E+00 -0.00000000000E+00 -0.20023750409E+03  0.20023750409E+03  0.00000000000E+00 0.  1.
         23    2    1    2    0    0 -0.31844129950E+02  0.36692050488E+02 -0.16671282401E+03  0.19629012108E+03  0.91522078016E+02 0.  0.
         23    2    1    2    0    0  0.37607550044E+02 -0.16589060026E+02  0.20474704212E+03  0.22767825288E+03  0.90700114898E+02 0.  0.
        -11    1    3    3    0    0 -0.31191364056E+02  0.66611061290E+02 -0.11378854673E+03  0.13549084118E+03  0.00000000000E+00 0.  1.
         11    1    3    3    0    0 -0.65276589374E+00 -0.29919010802E+02 -0.52924277280E+02  0.60799279899E+02  0.00000000000E+00 0. -1.
        -13    1    4    4    0    0 -0.11237717538E+01 -0.43966515477E+02  0.53992122613E+02  0.69638112054E+02  0.00000000000E+00 0.  1.
         13    1    4    4    0    0  0.38731321798E+02  0.27377455452E+02  0.15075491951E+03  0.15804014082E+03  0.00000000000E+00 0. -1.
         21    1    1    2  502  501 -0.57634200936E+01 -0.20102990462E+02  0.77681433374E+01  0.22308995666E+02  0.00000000000E+00 0.  1.
<scales pt_clust_5="13000.00000" pt_clust_6="13000.00000" pt_clust_7="13000.00000" pt_clust_8="13000.00000" pt_clust_9="20.91285"></scales>
<clustering>
<clus scale="   20.913">  1  9  2 -1</clus>
<clus scale="   90.700">  7  8 -1 -1</clus>
<clus scale="   91.522">  5  6 -1 -1</clus>
<clus scale="  102.556">  1  7  2 -1</clus>
<clus scale="   20.913">  1  5  2 -1</clus>
</clustering>
</event>
<event>
 9    1  0.1836834E-005  0.1049445E+03  0.7546771E-02  0.1270446E+00
         -1   -1    0    0    0  501 -0.00000000000E+00  0.00000000000E+00  0.31083038790E+03  0.31083038790E+03  0.00000000000E+00 0.  1.
          1   -1    0    0  502    0  0.00000000000E+00 -0.00000000000E+00 -0.19158969626E+03  0.19158969626E+03  0.00000000000E+00 0. -1.
         23    2    1    2    0    0 -0.18505126588E+02 -0.73221595447E+02  0.24089636227E+03  0.26818296930E+03  0.90483180318E+02 0.  0.
         23    2    1    2    0    0  0.12440521448E+02  0.50288958417E+02 -0.15906007920E+03  0.18994518493E+03  0.89973988287E+02 0.  0.
        -13    1    4    4    0    0 -0.11432246768E+02  0.71183568419E+02 -0.11088204289E+03  0.13225968438E+03  0.00000000000E+00 0. -1.
         13    1    4    4    0    0  0.23872768215E+02 -0.20894610002E+02 -0.48178036315E+02  0.57685500540E+02  0.00000000000E+00 0.  1.
        -13    1    3    3    0    0 -0.33862605032E+02  0.81679668696E+01  0.78630424711E+02  0.86000787162E+02  0.00000000000E+00 0. -1.
         13    1    3    3    0    0  0.15357478444E+02 -0.81389562316E+02  0.16226593756E+03  0.18218218214E+03  0.00000000000E+00 0.  1.
         21    1    1    2  502  501  0.60646051403E+01  0.22932637030E+02  0.37404408571E+02  0.44291929933E+02  0.00000000000E+00 0.  1.
<scales pt_clust_5="13000.00000" pt_clust_6="13000.00000" pt_clust_7="13000.00000" pt_clust_8="13000.00000" pt_clust_9="23.72099"></scales>
<clustering>
<clus scale="   23.721">  1  9  2 -1</clus>
<clus scale="   89.974">  5  6 -1 -1</clus>
<clus scale="   90.483">  7  8 -1 -1</clus>
<clus scale="  104.506">  2  5  1 -1</clus>
<clus scale="  104.506">  2  5  1 -1</clus>
</clustering>
</event>
<event>
 9    1  0.1266593E-005  0.1306357E+03  0.7546771E-02  0.1227111E+00
          1   -1    0    0  502    0  0.00000000000E+00  0.00000000000E+00  0.30081033831E+03  0.30081033831E+03  0.00000000000E+00 0. -1.
         -1   -1    0    0    0  501 -0.00000000000E+00 -0.00000000000E+00 -0.13674323780E+03  0.13674323780E+03  0.00000000000E+00 0.  1.
         23    2    1    2    0    0 -0.46487284798E+01 -0.10282203826E+03 -0.42243612397E+02  0.14361202190E+03  0.90806981110E+02 0.  0.
         23    2    1    2    0    0 -0.11435461221E+02  0.89109417139E+02  0.22895117971E+03  0.26296853572E+03  0.93072821449E+02 0.  0.
        -11    1    4    4    0    0 -0.22775218899E+02 -0.12944164932E+02  0.37906787619E+02  0.46078048453E+02  0.00000000000E+00 0.  1.
         11    1    4    4    0    0  0.11339757678E+02  0.10205358207E+03  0.19104439209E+03  0.21689048727E+03  0.00000000000E+00 0. -1.
        -13    1    3    3    0    0  0.16513977173E+02 -0.98319053601E+02 -0.59354572745E+02  0.11602720823E+03  0.00000000000E+00 0.  1.
         13    1    3    3    0    0 -0.21162705653E+02 -0.45029846566E+01  0.17110960349E+02  0.27584813674E+02  0.00000000000E+00 0. -1.
         21    1    1    2  502  501  0.16084189701E+02  0.13712621119E+02 -0.22640466807E+02  0.30973018476E+02  0.00000000000E+00 0. -1.
<scales pt_clust_5="13000.00000" pt_clust_6="13000.00000" pt_clust_7="13000.00000" pt_clust_8="13000.00000" pt_clust_9="21.13616"></scales>
<clustering>
<clus scale="   21.136">  2  9  1 -1</clus>
<clus scale="   90.807">  7  8 -1 -1</clus>
<clus scale="   93.073">  5  6 -1 -1</clus>
<clus scale="  129.031">  2  7  1 -1</clus>
<clus scale="  130.636">  1  5  2 -1</clus>
</clustering>
</event>
<event>
 9    1  0.1266593E-005  0.9504811E+02  0.7546771E-02  0.1293351E+00
         -1   -1    0    0    0  501 -0.00000000000E+00  0.00000000000E+00  0.54484717556E+02  0.54484717556E+02  0.00000000000E+00 0.  1.
          1   -1    0    0  502    0  0.00000000000E+00 -0.00000000000E+00 -0.38801554895E+03  0.38801554895E+03  0.00000000000E+00 0. -1.
         23    2    1    2    0    0 -0.18428915919E+02 -0.86590834878E+00 -0.88993294466E+02  0.12812425878E+03  0.90308606948E+02 0.  0.
         23    2    1    2    0    0 -0.25035743798E+02  0.53170098224E+01 -0.25178917163E+03  0.27008633450E+03  0.94306850604E+02 0.  0.
        -11    1    4    4    0    0  0.25337714574E+02  0.19771138487E+02 -0.37059375684E+02  0.49054001091E+02  0.00000000000E+00 0.  1.
         11    1    4    4    0    0 -0.50373458372E+02 -0.14454128665E+02 -0.21472979595E+03  0.22103233341E+03  0.00000000000E+00 0. -1.
        -13    1    3    3    0    0  0.24174226086E+01 -0.43161446340E+02 -0.55194476592E+02  0.70108377734E+02  0.00000000000E+00 0.  1.
         13    1    3    3    0    0 -0.20846338528E+02  0.42295537991E+02 -0.33798817874E+02  0.58015881047E+02  0.00000000000E+00 0. -1.
         21    1    1    2  502  501  0.43464659717E+02 -0.44511014736E+01  0.72516347039E+01  0.44289673227E+02  0.00000000000E+00 0.  1.
<scales pt_clust_5="13000.00000" pt_clust_6="13000.00000" pt_clust_7="13000.00000" pt_clust_8="13000.00000" pt_clust_9="43.69198"></scales>
<clustering>
<clus scale="   43.692">  1  9  2 -1</clus>
<clus scale="   90.309">  7  8 -1 -1</clus>
<clus scale="   91.082">  1  7  2 -1</clus>
<clus scale="   94.307">  5  6 -1 -1</clus>
<clus scale="   95.048">  2  5  1 -1</clus>
</clustering>
</event>
<event>
 9    1  0.1266593E-005  0.1130992E+03  0.7546771E-02  0.1256669E+00
          2   -1    0    0  502    0  0.00000000000E+00  0.00000000000E+00  0.50134075386E+03  0.50134075386E+03  0.00000000000E+00 0. -1.
         -2   -1    0    0    0  501 -0.00000000000E+00 -0.00000000000E+00 -0.85776829983E+02  0.85776829983E+02  0.00000000000E+00 0.  1.
         23    2    1    2    0    0  0.16776327207E+02 -0.38629499540E+02 -0.12835534360E+02  0.10373599841E+03  0.93929351290E+02 0.  0.
         23    2    1    2    0    0  0.45029244015E+02  0.52071308644E+02  0.39712395857E+03  0.41282120176E+03  0.89302027685E+02 0.  0.
        -13    1    4    4    0    0  0.66223224096E+01 -0.25415280568E+02  0.90279898916E+02  0.94022613177E+02  0.00000000000E+00 0.  1.
         13    1    4    4    0    0  0.38406921606E+02  0.77486589211E+02  0.30684405966E+03  0.31879858858E+03  0.00000000000E+00 0. -1.
        -13    1    3    3    0    0 -0.35448533947E+02  0.30446196828E+01 -0.95613721457E+01  0.36841391197E+02  0.00000000000E+00 0. -1.
         13    1    3    3    0    0  0.52224861154E+02 -0.41674119223E+02 -0.32741622145E+01  0.66894607209E+02  0.00000000000E+00 0.  1.
         21    1    1    2  502  501 -0.61805571222E+02 -0.13441809104E+02  0.31275499669E+02  0.70560383684E+02  0.00000000000E+00 0. -1.
<scales pt_clust_5="13000.00000" pt_clust_6="13000.00000" pt_clust_7="13000.00000" pt_clust_8="13000.00000" pt_clust_9="63.25038"></scales>
<clustering>
<clus scale="   63.250">  2  9  1 -1</clus>
<clus scale="   89.302">  5  6 -1 -1</clus>
<clus scale="   93.929">  7  8 -1 -1</clus>
<clus scale="  109.287">  1  5  2 -1</clus>
<clus scale="  109.287">  1  5  2 -1</clus>
</clustering>
</event>
<event>
 9    1  0.1266593E-005  0.9559822E+02  0.7546771E-02  0.1289878E+00
          1   -1    0    0  502    0  0.00000000000E+00  0.00000000000E+00  0.14466379527E+03  0.14466379527E+03  0.00000000000E+00 0. -1.
         -1   -1    0    0    0  501 -0.00000000000E+00 -0.00000000000E+00 -0.14324499987E+03  0.14324499987E+03  0.00000000000E+00 0.  1.
         23    2    1    2    0    0  0.16697602302E+02  0.16469399394E+00 -0.20720285572E+02  0.93505010138E+02  0.89638271067E+02 0.  0.
         23    2    1    2    0    0  0.37672913567E+02 -0.45014916608E+02  0.50550890684E+02  0.11841084852E+03  0.89555264305E+02 0.  0.
        -11    1    3    3    0    0 -0.33520908113E+02 -0.16708785304E+02 -0.27201414999E+01  0.37553081855E+02  0.00000000000E+00 0. -1.
         11    1    3    3    0    0  0.50218510415E+02  0.16873479298E+02 -0.18000144072E+02  0.55951928282E+02  0.00000000000E+00 0.  1.
        -13    1    4    4    0    0  0.63029867179E+02 -0.28470261560E+02  0.13336373013E+02  0.70435635832E+02  0.00000000000E+00 0.  1.
         13    1    4    4    0    0 -0.25356953612E+02 -0.16544655047E+02  0.37214517671E+02  0.47975212690E+02  0.00000000000E+00 0. -1.
         21    1    1    2  502  501 -0.54370515869E+02  0.44850222614E+02 -0.28411809706E+02  0.75992936482E+02  0.00000000000E+00 0. -1.
<scales pt_clust_5="13000.00000" pt_clust_6="13000.00000" pt_clust_7="13000.00000" pt_clust_8="13000.00000" pt_clust_9="70.48188"></scales>
<clustering>
<clus scale="   70.482">  2  9  1 -1</clus>
<clus scale="   89.555">  7  8 -1 -1</clus>
<clus scale="   89.638">  5  6 -1 -1</clus>
<clus scale="   95.520">  1  7  2 -1</clus>
<clus scale="   95.520">  1  5  2 -1</clus>
</clustering>
</event>
<event>
 9    1  0.1266593E-005  0.1080949E+03  0.7546771E-02  0.1264141E+00
          2   -1    0    0  502    0  0.00000000000E+00  0.00000000000E+00  0.30598497683E+03  0.30598497683E+03  0.00000000000E+00 0. -1.
         -2   -1    0    0    0  501 -0.00000000000E+00 -0.00000000000E+00 -0.15645320791E+03  0.15645320791E+03  0.00000000000E+00 0.  1.
         23    2    1    2    0    0 -0.41603252423E+02 -0.82207899448E+01 -0.66328582994E+02  0.11959621201E+03  0.90029778444E+02 0.  0.
         23    2    1    2    0    0  0.61780960448E+02 -0.54917958259E+01  0.26572019769E+03  0.28733360281E+03  0.90035153952E+02 0.  0.
        -11    1    4    4    0    0 -0.14906875608E+02 -0.21413927907E+02  0.10966505650E+03  0.11272619867E+03  0.00000000000E+00 0.  1.
         11    1    4    4    0    0  0.76687836056E+02  0.15922132081E+02  0.15605514119E+03  0.17460740414E+03  0.00000000000E+00 0. -1.
        -13    1    3    3    0    0  0.17837157434E+02 -0.30286891401E+02 -0.31803100393E+02  0.47401446926E+02  0.00000000000E+00 0. -1.
         13    1    3    3    0    0 -0.59440409856E+02  0.22066101456E+02 -0.34525482601E+02  0.72194765088E+02  0.00000000000E+00 0.  1.
         21    1    1    2  502  501 -0.20177708025E+02  0.13712585771E+02 -0.49859845779E+02  0.55508369916E+02  0.00000000000E+00 0. -1.
<scales pt_clust_5="13000.00000" pt_clust_6="13000.00000" pt_clust_7="13000.00000" pt_clust_8="13000.00000" pt_clust_9="24.39621"></scales>
<clustering>
<clus scale="   24.396">  2  9  1 -1</clus>
<clus scale="   90.030">  7  8 -1 -1</clus>
<clus scale="   90.035">  5  6 -1 -1</clus>
<clus scale="  108.090">  2  7  1 -1</clus>
<clus scale="  108.095">  1  5  2 -1</clus>
</clustering>
</event>
<event>
 9    1  0.1266593E-005  0.1834612E+03  0.7546771E-02  0.1164636E+00
          1   -1    0    0  502    0  0.00000000000E+00  0.00000000000E+00  0.46335530050E+03  0.46335530050E+03  0.00000000000E+00 0. -1.
         -1   -1    0    0    0  501 -0.00000000000E+00 -0.00000000000E+00 -0.17950994932E+03  0.17950994932E+03  0.00000000000E+00 0.  1.
         23    2    1    2    0    0  0.13785944318E+03 -0.71163861915E+02 -0.90440598261E+02  0.20130746279E+03  0.90970717514E+02 0.  0.
         23    2    1    2    0    0 -0.16582062487E+03  0.75553225119E+02  0.34445372076E+03  0.40043533502E+03  0.92170072876E+02 0.  0.
        -11    1    4    4    0    0 -0.33908102706E+02  0.11355161983E+02  0.13144366244E+02  0.38098208576E+02  0.00000000000E+00 0.  1.
         11    1    4    4    0    0 -0.13191252216E+03  0.64198063136E+02  0.33130935451E+03  0.36233712645E+03  0.00000000000E+00 0. -1.
        -11    1    3    3    0    0  0.30957968129E+02 -0.59213997860E+02 -0.59263137222E+02  0.89313004466E+02  0.00000000000E+00 0. -1.
         11    1    3    3    0    0  0.10690147505E+03 -0.11949864054E+02 -0.31177461038E+02  0.11199445832E+03  0.00000000000E+00 0.  1.
         21    1    1    2  502  501  0.27961181693E+02 -0.43893632043E+01  0.29832228680E+02  0.41122452006E+02  0.00000000000E+00 0.  1.
<scales pt_clust_5="13000.00000" pt_clust_6="13000.00000" pt_clust_7="13000.00000" pt_clust_8="13000.00000" pt_clust_9="28.30361"></scales>
<clustering>
<clus scale="   28.304">  1  9  2 -1</clus>
<clus scale="   90.971">  7  8 -1 -1</clus>
<clus scale="   92.170">  5  6 -1 -1</clus>
<clus scale="  182.862">  2  7  1 -1</clus>
<clus scale="   28.304">  1  5  2 -1</clus>
</clustering>
</event>
<event>
 9    1  0.1266593E-005  0.1987148E+03  0.7546771E-02  0.1173910E+00
         -1   -1    0    0    0  501 -0.00000000000E+00  0.00000000000E+00  0.37033517095E+03  0.37033517095E+03  0.00000000000E+00 0.  1.
          1   -1    0    0  502    0  0.00000000000E+00 -0.00000000000E+00 -0.20389046633E+03  0.20389046633E+03  0.00000000000E+00 0. -1.
         23    2    1    2    0    0 -0.73915534694E+02 -0.30926363561E+01  0.87434900060E+02  0.14555400333E+03  0.89822243731E+02 0.  0.
         23    2    1    2    0    0  0.18106092995E+03  0.91868470796E+02 -0.65612946681E+02  0.22798026721E+03  0.80293631035E+02 0.  0.
        -11    1    3    3    0    0 -0.89390789894E+02 -0.18650214593E+02  0.82495902126E+02  0.12306143868E+03  0.00000000000E+00 0.  1.
         11    1    3    3    0    0  0.15475255200E+02  0.15557578237E+02  0.49389979342E+01  0.22492564654E+02  0.00000000000E+00 0. -1.
        -13    1    4    4    0    0  0.14285792213E+03  0.81018568766E+02 -0.83711702490E+02  0.18433676664E+03  0.00000000000E+00 0. -1.
         13    1    4    4    0    0  0.38203007821E+02  0.10849902030E+02  0.18098755809E+02  0.43643500575E+02  0.00000000000E+00 0.  1.
         21    1    1    2  502  501 -0.10714539526E+03 -0.88775834440E+02  0.14462275124E+03  0.20069136673E+03  0.00000000000E+00 0.  1.
<scales pt_clust_5="13000.00000" pt_clust_6="13000.00000" pt_clust_7="13000.00000" pt_clust_8="13000.00000" pt_clust_9="181.77042"></scales>
<clustering>
<clus scale="   80.294">  7  8 -1 -1</clus>
<clus scale="   89.822">  5  6 -1 -1</clus>
<clus scale="  116.366">  1  5  2 -1</clus>
<clus scale="  181.770">  1  9  2 -1</clus>
<clus scale="  198.715">  2  5  1 -1</clus>
</clustering>
</event>
<event>
 9    1  0.1266593E-005  0.9502942E+02  0.7546771E-02  0.1294278E+00
          2   -1    0    0  502    0  0.00000000000E+00  0.00000000000E+00  0.22743903826E+03  0.22743903826E+03  0.00000000000E+00 0. -1.
         -2   -1    0    0    0  501 -0.00000000000E+00 -0.00000000000E+00 -0.11686119404E+03  0.11686119404E+03  0.00000000000E+00 0.  1.
         23    2    1    2    0    0  0.61096632758E+02 -0.42357721180E+02  0.48270149718E+02  0.12885388808E+03  0.93521880021E+02 0.  0.
         23    2    1    2    0    0  0.82341375540E+01 -0.33618997299E+01  0.91663519685E+02  0.12736227119E+03  0.87976382572E+02 0.  0.
        -11    1    4    4    0    0 -0.17929757537E+02  0.18443382615E+02 -0.38032460977E+01  0.26001908555E+02  0.00000000000E+00 0.  1.
         11    1    4    4    0    0  0.26163895091E+02 -0.21805282345E+02  0.95466765783E+02  0.10136036263E+03  0.00000000000E+00 0. -1.
        -13    1    3    3    0    0  0.31891855737E+02 -0.49048595148E+02  0.70450507171E+02  0.91575810720E+02  0.00000000000E+00 0.  1.
         13    1    3    3    0    0  0.29204777021E+02  0.66908739678E+01 -0.22180357452E+02  0.37278077365E+02  0.00000000000E+00 0. -1.
         21    1    1    2  502  501 -0.69330770312E+02  0.45719620910E+02 -0.29355825179E+02  0.88084073022E+02  0.00000000000E+00 0.  1.
<scales pt_clust_5="13000.00000" pt_clust_6="13000.00000" pt_clust_7="13000.00000" pt_clust_8="13000.00000" pt_clust_9="83.04842"></scales>
<clustering>
<clus scale="   83.048">  2  9  1 -1</clus>
<clus scale="   87.976">  5  6 -1 -1</clus>
<clus scale="   89.577">  1  5  2 -1</clus>
<clus scale="   93.522">  7  8 -1 -1</clus>
<clus scale="   89.577">  1  5  2 -1</clus>
</clustering>
</event>
<event>
 9    1  0.1266593E-005  0.9312619E+02  0.7546771E-02  0.1295640E+00
          1   -1    0    0  502    0  0.00000000000E+00  0.00000000000E+00  0.21127694701E+03  0.21127694701E+03  0.00000000000E+00 0. -1.
         -1   -1    0    0    0  501 -0.00000000000E+00 -0.00000000000E+00 -0.62552824575E+02  0.62552824575E+02  0.00000000000E+00 0.  1.
         23    2    1    2    0    0  0.26618643099E+02  0.21384567944E+02  0.19871855748E+02  0.99407400560E+02  0.91220001802E+02 0.  0.
         23    2    1    2    0    0 -0.73222182791E+01 -0.10701102103E+02  0.11890816144E+03  0.15022787408E+03  0.90890785160E+02 0.  0.
        -13    1    3    3    0    0 -0.25915072426E+02  0.21585297564E+02 -0.14410774335E+02  0.36676783756E+02  0.00000000000E+00 0.  1.
         13    1    3    3    0    0  0.52533715525E+02 -0.20072962029E+00  0.34282630083E+02  0.62730616804E+02  0.00000000000E+00 0. -1.
        -13    1    4    4    0    0  0.15863631936E+02 -0.46369814368E+02  0.57989269742E+02  0.75924764787E+02  0.00000000000E+00 0. -1.
         13    1    4    4    0    0 -0.23185850215E+02  0.35668712266E+02  0.60918891701E+02  0.74303109296E+02  0.00000000000E+00 0.  1.
         21    1    1    2  502  501 -0.19296424820E+02 -0.10683465841E+02  0.99441052450E+01  0.24194496943E+02  0.00000000000E+00 0.  1.
<scales pt_clust_5="13000.00000" pt_clust_6="13000.00000" pt_clust_7="13000.00000" pt_clust_8="13000.00000" pt_clust_9="22.05648"></scales>
<clustering>
<clus scale="   22.056">  2  9  1 -1</clus>
<clus scale="   90.891">  7  8 -1 -1</clus>
<clus scale="   91.220">  5  6 -1 -1</clus>
<clus scale="   92.804">  1  7  2 -1</clus>
<clus scale="   92.804">  1  5  2 -1</clus>
</clustering>
</event>
<event>
 9    1  0.1266593E-005  0.1509555E+03  0.7546771E-02  0.1199701E+00
         -1   -1    0    0    0  501 -0.00000000000E+00  0.00000000000E+00  0.19866208783E+03  0.19866208783E+03  0.00000000000E+00 0.  1.
          1   -1    0    0  502    0  0.00000000000E+00 -0.00000000000E+00 -0.29503748573E+03  0.29503748573E+03  0.00000000000E+00 0. -1.
         23    2    1    2    0    0  0.41507839645E+02  0.68991044199E+02  0.12531444212E+02  0.12216131562E+03  0.91014751598E+02 0.  0.
         23    2    1    2    0    0 -0.81543324337E+02 -0.11096088012E+03 -0.20306903336E+03  0.26094519566E+03  0.88846677852E+02 0.  0.
        -11    1    4    4    0    0 -0.78082267337E+02 -0.47040656665E+02 -0.15883695616E+03  0.18313613104E+03  0.00000000000E+00 0. -1.
         11    1    4    4    0    0 -0.34610569995E+01 -0.63920223459E+02 -0.44232077204E+02  0.77809064616E+02  0.00000000000E+00 0.  1.
        -11    1    3    3    0    0 -0.61655687899E+01  0.30715887898E+02 -0.33324259480E+02  0.45738236496E+02  0.00000000000E+00 0. -1.
         11    1    3    3    0    0  0.47673408435E+02  0.38275156302E+02  0.45855703693E+02  0.76423079125E+02  0.00000000000E+00 0.  1.
         21    1    1    2  502  501  0.40035484691E+02  0.41969835925E+02  0.94162191254E+02  0.11059306228E+03  0.00000000000E+00 0.  1.
<scales pt_clust_5="13000.00000" pt_clust_6="13000.00000" pt_clust_7="13000.00000" pt_clust_8="13000.00000" pt_clust_9="58.00265"></scales>
<clustering>
<clus scale="   58.003">  1  9  2 -1</clus>
<clus scale="   88.847">  5  6 -1 -1</clus>
<clus scale="   91.015">  7  8 -1 -1</clus>
<clus scale="  149.658">  2  5  1 -1</clus>
<clus scale="  149.658">  2  5  1 -1</clus>
</clustering>
</event>
<event>
 9    1  0.1266593E-005  0.2338921E+03  0.7546771E-02  0.1124062E+00
         -1   -1    0    0    0  501 -0.00000000000E+00  0.00000000000E+00  0.80252666737E+02  0.80252666737E+02  0.00000000000E+00 0.  1.
          1   -1    0    0  502    0  0.00000000000E+00 -0.00000000000E+00 -0.83117065768E+03  0.83117065768E+03  0.00000000000E+00 0. -1.
         23    2    1    2    0    0 -0.14755053900E+03  0.14872937406E+03 -0.21575710858E+03  0.31464628203E+03  0.92517915157E+02 0.  0.
         23    2    1    2    0    0  0.14919733412E+03 -0.16929800749E+03 -0.50049086777E+03  0.55643115626E+03  0.90569658772E+02 0.  0.
        -11    1    4    4    0    0  0.10749225181E+03 -0.14251715795E+03 -0.29294098246E+03  0.34304539600E+03  0.00000000000E+00 0. -1.
         11    1    4    4    0    0  0.41705082317E+02 -0.26780849536E+02 -0.20754988530E+03  0.21338576026E+03  0.00000000000E+00 0.  1.
        -13    1    3    3    0    0 -0.11471475825E+03  0.52163183424E+02 -0.10447918445E+03  0.16369597872E+03  0.00000000000E+00 0.  1.
         13    1    3    3    0    0 -0.32835780749E+02  0.96566190633E+02 -0.11127792413E+03  0.15095030331E+03  0.00000000000E+00 0. -1.
         21    1    1    2  502  501 -0.16467951262E+01  0.20568633434E+02 -0.34670014592E+02  0.40345886126E+02  0.00000000000E+00 0.  1.
<scales pt_clust_5="13000.00000" pt_clust_6="13000.00000" pt_clust_7="13000.00000" pt_clust_8="13000.00000" pt_clust_9="20.63445"></scales>
<clustering>
<clus scale="   20.634">  2  9  1 -1</clus>
<clus scale="   90.570">  5  6 -1 -1</clus>
<clus scale="   92.518">  7  8 -1 -1</clus>
<clus scale="  233.128">  2  5  1 -1</clus>
<clus scale="   20.634">  2  5  1 -1</clus>
</clustering>
</event>
<event>
 9    1  0.1266593E-005  0.9700661E+02  0.7546771E-02  0.1287992E+00
          1   -1    0    0  502    0  0.00000000000E+00  0.00000000000E+00  0.12164500278E+03  0.12164500278E+03  0.00000000000E+00 0. -1.
         -1   -1    0    0    0  501 -0.00000000000E+00 -0.00000000000E+00 -0.12564597598E+03  0.12564597598E+03  0.00000000000E+00 0.  1.
         23    2    1    2    0    0  0.23281827014E+02 -0.24047100468E+02 -0.14524330924E+02  0.99546214847E+02  0.92618498107E+02 0.  0.
         23    2    1    2    0    0  0.22298473884E+02  0.31823207289E+02  0.20737873826E+02  0.10039111563E+03  0.90212960415E+02 0.  0.
        -11    1    4    4    0    0  0.35903778137E+00  0.39986514089E+02 -0.26292106500E+02  0.47857340934E+02  0.00000000000E+00 0.  1.
         11    1    4    4    0    0  0.21939436102E+02 -0.81633067991E+01  0.47029980325E+02  0.52533774696E+02  0.00000000000E+00 0. -1.
        -11    1    3    3    0    0 -0.34033447283E+02  0.41394052383E+01 -0.89445273108E+01  0.35431832841E+02  0.00000000000E+00 0.  1.
         11    1    3    3    0    0  0.57315274297E+02 -0.28186505706E+02 -0.55798036128E+01  0.64114382006E+02  0.00000000000E+00 0. -1.
         21    1    1    2  502  501 -0.45580300898E+02 -0.77761068216E+01 -0.10214516102E+02  0.47353648291E+02  0.00000000000E+00 0.  1.
<scales pt_clust_5="13000.00000" pt_clust_6="13000.00000" pt_clust_7="13000.00000" pt_clust_8="13000.00000" pt_clust_9="46.23885"></scales>
<clustering>
<clus scale="   46.239">  2  9  1 -1</clus>
<clus scale="   90.213">  5  6 -1 -1</clus>
<clus scale="   92.618">  7  8 -1 -1</clus>
<clus scale="   94.713">  1  5  2 -1</clus>
<clus scale="   94.713">  1  5  2 -1</clus>
</clustering>
</event>
<event>
 9    1  0.1266593E-005  0.1089419E+03  0.7546771E-02  0.1263135E+00
         -2   -1    0    0    0  501 -0.00000000000E+00  0.00000000000E+00  0.33576396283E+02  0.33576396283E+02  0.00000000000E+00 0.  1.
          2   -1    0    0  502    0  0.00000000000E+00 -0.00000000000E+00 -0.49359369635E+03  0.49359369635E+03  0.00000000000E+00 0. -1.
         23    2    1    2    0    0 -0.69308468647E+02  0.18954522345E+02 -0.16537842471E+03  0.20181792383E+03  0.90650500682E+02 0.  0.
         23    2    1    2    0    0  0.43553675820E+02 -0.34866199381E+02 -0.25199137327E+03  0.27305207078E+03  0.89135888493E+02 0.  0.
        -11    1    4    4    0    0  0.66063764122E+02 -0.64758766323E+01 -0.18984244356E+03  0.20111318029E+03  0.00000000000E+00 0. -1.
         11    1    4    4    0    0 -0.22510088302E+02 -0.28390322748E+02 -0.62148929704E+02  0.71938890486E+02  0.00000000000E+00 0.  1.
        -13    1    3    3    0    0 -0.77638859723E+02 -0.14094484581E+02 -0.94068619838E+02  0.12278172614E+03  0.00000000000E+00 0.  1.
         13    1    3    3    0    0  0.83303910755E+01  0.33049006926E+02 -0.71309804874E+02  0.79036197691E+02  0.00000000000E+00 0. -1.
         21    1    1    2  502  501  0.25754792827E+02  0.15911677035E+02 -0.42647502090E+02  0.52300098032E+02  0.00000000000E+00 0. -1.
<scales pt_clust_5="13000.00000" pt_clust_6="13000.00000" pt_clust_7="13000.00000" pt_clust_8="13000.00000" pt_clust_9="30.27360"></scales>
<clustering>
<clus scale="   30.274">  1  9  2 -1</clus>
<clus scale="   89.136">  5  6 -1 -1</clus>
<clus scale="   90.651">  7  8 -1 -1</clus>
<clus scale="  107.685">  2  5  1 -1</clus>
<clus scale="  107.685">  2  5  1 -1</clus>
</clustering>
</event>
<event>
 9    1  0.1266593E-005  0.1026867E+03  0.7546771E-02  0.1275833E+00
          2   -1    0    0  502    0  0.00000000000E+00  0.00000000000E+00  0.18430923568E+03  0.18430923568E+03  0.00000000000E+00 0. -1.
         -2   -1    0    0    0  501 -0.00000000000E+00 -0.00000000000E+00 -0.98116539249E+02  0.98116539249E+02  0.00000000000E+00 0.  1.
         23    2    1    2    0    0  0.19130642724E+02  0.26144356279E+02 -0.24372207419E+02  0.99664608471E+02  0.91046805715E+02 0.  0.
         23    2    1    2    0    0  0.22302521872E+01 -0.54866832655E+02  0.10218275457E+03  0.14599802042E+03  0.88649666007E+02 0.  0.
        -11    1    3    3    0    0  0.55640604982E+02  0.98469183985E+01 -0.11521365144E+02  0.57667847016E+02  0.00000000000E+00 0.  1.
         11    1    3    3    0    0 -0.36509962258E+02  0.16297437881E+02 -0.12850842275E+02  0.41996761455E+02  0.00000000000E+00 0. -1.
        -13    1    4    4    0    0 -0.35795822731E+02 -0.68069480473E+01  0.14938794026E+02  0.39380744453E+02  0.00000000000E+00 0.  1.
         13    1    4    4    0    0  0.38026074918E+02 -0.48059884607E+02  0.87243960545E+02  0.10661727596E+03  0.00000000000E+00 0. -1.
         21    1    1    2  502  501 -0.21360894911E+02  0.28722476376E+02  0.83821492824E+01  0.36763146045E+02  0.00000000000E+00 0.  1.
<scales pt_clust_5="13000.00000" pt_clust_6="13000.00000" pt_clust_7="13000.00000" pt_clust_8="13000.00000" pt_clust_9="35.79481"></scales>
<clustering>
<clus scale="   35.795">  2  9  1 -1</clus>
<clus scale="   88.650">  7  8 -1 -1</clus>
<clus scale="   91.047">  5  6 -1 -1</clus>
<clus scale="  100.567">  1  7  2 -1</clus>
<clus scale="  100.567">  1  5  2 -1</clus>
</clustering>
</event>
<event>
 9    1  0.1266593E-005  0.9478720E+02  0.7546771E-02  0.1295035E+00
          1   -1    0    0  502    0  0.00000000000E+00  0.00000000000E+00  0.12373200300E+03  0.12373200300E+03  0.00000000000E+00 0. -1.
         -1   -1    0    0    0  501 -0.00000000000E+00 -0.00000000000E+00 -0.14656277247E+03  0.14656277247E+03  0.00000000000E+00 0.  1.
         23    2    1    2    0    0 -0.19146777721E+02  0.26570190746E+02 -0.67048831897E+01  0.96044070592E+02  0.90038513448E+02 0.  0.
         23    2    1    2    0    0 -0.70166210567E+01 -0.31104709539E+02  0.50160599411E+02  0.10284353801E+03  0.83928372138E+02 0.  0.
        -11    1    3    3    0    0 -0.16486235404E+02  0.58913635886E+02  0.53829614670E+01  0.61413261803E+02  0.00000000000E+00 0.  1.
         11    1    3    3    0    0 -0.26605423170E+01 -0.32343445140E+02 -0.12087844657E+02  0.34630808789E+02  0.00000000000E+00 0. -1.
        -13    1    4    4    0    0 -0.40078419691E+02 -0.23408232051E+02  0.54881451669E+01  0.46736974550E+02  0.00000000000E+00 0. -1.
         13    1    4    4    0    0  0.33061798634E+02 -0.76964774876E+01  0.44672454244E+02  0.56106563456E+02  0.00000000000E+00 0.  1.
         21    1    1    2  502  501  0.26163398778E+02  0.45345187931E+01 -0.66286485683E+02  0.71407166871E+02  0.00000000000E+00 0.  1.
<scales pt_clust_5="13000.00000" pt_clust_6="13000.00000" pt_clust_7="13000.00000" pt_clust_8="13000.00000" pt_clust_9="26.55344"></scales>
<clustering>
<clus scale="   26.553">  2  9  1 -1</clus>
<clus scale="   83.928">  7  8 -1 -1</clus>
<clus scale="   89.004">  1  7  2 -1</clus>
<clus scale="   90.039">  5  6 -1 -1</clus>
<clus scale="   89.004">  1  5  2 -1</clus>
</clustering>
</event>
<event>
 9    1  0.1266593E-005  0.9608985E+02  0.7546771E-02  0.1290285E+00
          2   -1    0    0  502    0  0.00000000000E+00  0.00000000000E+00  0.25737241356E+03  0.25737241356E+03  0.00000000000E+00 0. -1.
         -2   -1    0    0    0  501 -0.00000000000E+00 -0.00000000000E+00 -0.43757818339E+02  0.43757818339E+02  0.00000000000E+00 0.  1.
         23    2    1    2    0    0 -0.16261481466E+02  0.34185704169E+02  0.80064065449E+02  0.12672164234E+03  0.90636758064E+02 0.  0.
         23    2    1    2    0    0  0.22737509535E+02 -0.14913868109E+02  0.10936654954E+03  0.14281416751E+03  0.87723579964E+02 0.  0.
        -13    1    3    3    0    0 -0.28567034670E+02 -0.20079453584E+02  0.82603951847E+01  0.35881667390E+02  0.00000000000E+00 0.  1.
         13    1    3    3    0    0  0.12305553204E+02  0.54265157753E+02  0.71803670265E+02  0.90839974951E+02  0.00000000000E+00 0. -1.
        -13    1    4    4    0    0  0.36469653255E-02 -0.24012823437E+02 -0.61033971267E+01  0.24776342733E+02  0.00000000000E+00 0.  1.
         13    1    4    4    0    0  0.22733862570E+02  0.90989553278E+01  0.11546994666E+03  0.11803782477E+03  0.00000000000E+00 0. -1.
         21    1    1    2  502  501 -0.64760280690E+01 -0.19271836059E+02  0.24183980237E+02  0.31594422051E+02  0.00000000000E+00 0.  1.
<scales pt_clust_5="13000.00000" pt_clust_6="13000.00000" pt_clust_7="13000.00000" pt_clust_8="13000.00000" pt_clust_9="20.33083"></scales>
<clustering>
<clus scale="   20.331">  1  9  2 -1</clus>
<clus scale="   87.724">  7  8 -1 -1</clus>
<clus scale="   90.637">  5  6 -1 -1</clus>
<clus scale="   93.347">  1  7  2 -1</clus>
<clus scale="   20.331">  1  5  2 -1</clus>
</clustering>
</event>
<event>
 9    1  0.1266593E-005  0.2075392E+03  0.7546771E-02  0.1143541E+00
          1   -1    0    0  502    0  0.00000000000E+00  0.00000000000E+00  0.55486974509E+03  0.55486974509E+03  0.00000000000E+00 0. -1.
         -1   -1    0    0    0  501 -0.00000000000E+00 -0.00000000000E+00 -0.17990195664E+03  0.17990195664E+03  0.00000000000E+00 0.  1.
         23    2    1    2    0    0  0.69352404843E+02 -0.66852907205E+02 -0.25445147614E+02  0.13530150804E+03  0.91542204914E+02 0.  0.
         23    2    1    2    0    0 -0.18489996070E+03  0.12726463855E+03  0.40161291148E+03  0.46907749877E+03  0.91413814554E+02 0.  0.
        -11    1    3    3    0    0  0.58763884765E+02 -0.47521041615E+02 -0.58500898824E+02  0.95570909341E+02  0.00000000000E+00 0.  1.
         11    1    3    3    0    0  0.10588520078E+02 -0.19331865590E+02  0.33055751211E+02  0.39730598696E+02  0.00000000000E+00 0. -1.
        -13    1    4    4    0    0 -0.13454523098E+03  0.51050330427E+02  0.29813832083E+03  0.33105137632E+03  0.00000000000E+00 0. -1.
         13    1    4    4    0    0 -0.50354729718E+02  0.76214308123E+02  0.10347459065E+03  0.13802612245E+03  0.00000000000E+00 0.  1.
         21    1    1    2  502  501  0.11554755585E+03 -0.60411731345E+02 -0.11999754141E+01  0.13039269492E+03  0.00000000000E+00 0.  1.
<scales pt_clust_5="13000.00000" pt_clust_6="13000.00000" pt_clust_7="13000.00000" pt_clust_8="13000.00000" pt_clust_9="130.38717"></scales>
<clustering>
<clus scale="   91.414">  7  8 -1 -1</clus>
<clus scale="   91.542">  5  6 -1 -1</clus>
<clus scale="  130.387">  2  9  1 -1</clus>
<clus scale="  207.483">  1  7  2 -1</clus>
<clus scale="  207.483">  1  5  2 -1</clus>
</clustering>
</event>
<event>
 9    1  0.1266593E-005  0.9390518E+02  0.7546771E-02  0.1295021E+00
          2   -1    0    0  502    0  0.00000000000E+00  0.00000000000E+00  0.28072327043E+03  0.28072327043E+03  0.00000000000E+00 0. -1.
         -2   -1    0    0    0  501 -0.00000000000E+00 -0.00000000000E+00 -0.41930618919E+02  0.41930618919E+02  0.00000000000E+00 0.  1.
         23    2    1    2    0    0 -0.15100880703E+01  0.38093801093E+00  0.85000571362E+02  0.12601301070E+03  0.93014817391E+02 0.  0.
         23    2    1    2    0    0  0.11524381487E+02 -0.25993322290E+02  0.12123791301E+03  0.15402569240E+03  0.90646666758E+02 0.  0.
        -11    1    4    4    0    0 -0.27696665842E+02  0.15003625852E+02  0.73179076205E+02  0.79670517016E+02  0.00000000000E+00 0. -1.
         11    1    4    4    0    0  0.39221047329E+02 -0.40996948142E+02  0.48058836807E+02  0.74355175380E+02  0.00000000000E+00 0.  1.
        -13    1    3    3    0    0 -0.41791922114E+02 -0.21648448242E+02  0.40969355393E+02  0.62399584506E+02  0.00000000000E+00 0.  1.
         13    1    3    3    0    0  0.40281834043E+02  0.22029386252E+02  0.44031215969E+02  0.63613426195E+02  0.00000000000E+00 0. -1.
         21    1    1    2  502  501 -0.10014293417E+02  0.25612384279E+02  0.32554167133E+02  0.42615186247E+02  0.00000000000E+00 0. -1.
<scales pt_clust_5="13000.00000" pt_clust_6="13000.00000" pt_clust_7="13000.00000" pt_clust_8="13000.00000" pt_clust_9="27.50055"></scales>
<clustering>
<clus scale="   27.501">  1  9  2 -1</clus>
<clus scale="   90.647">  5  6 -1 -1</clus>
<clus scale="   91.560">  1  5  2 -1</clus>
<clus scale="   93.015">  7  8 -1 -1</clus>
<clus scale="   27.501">  1  5  2 -1</clus>
</clustering>
</event>
<event>
 9    1  0.1266593E-005  0.9291008E+02  0.7546771E-02  0.1296759E+00
         -1   -1    0    0    0  501 -0.00000000000E+00  0.00000000000E+00  0.10424966765E+03  0.10424966765E+03  0.00000000000E+00 0.  1.
          1   -1    0    0  502    0  0.00000000000E+00 -0.00000000000E+00 -0.43752562110E+03  0.43752562110E+03  0.00000000000E+00 0. -1.
         23    2    1    2    0    0  0.40414029023E+01 -0.28346854384E+01  0.37597878514E+00  0.90503510307E+02  0.90368001189E+02 0.  0.
         23    2    1    2    0    0  0.80983154878E+01 -0.14815565050E+02 -0.38473068991E+03  0.39588275796E+03  0.91762577364E+02 0.  0.
        -11    1    4    4    0    0 -0.38549530540E+02  0.51068156379E+01 -0.22361585749E+03  0.22697179911E+03  0.00000000000E+00 0.  1.
         11    1    4    4    0    0  0.46647846028E+02 -0.19922380687E+02 -0.16111483243E+03  0.16891095885E+03  0.00000000000E+00 0. -1.
        -13    1    3    3    0    0 -0.29259565785E+02 -0.41007118386E+01  0.32704527500E+02  0.44074075674E+02  0.00000000000E+00 0.  1.
         13    1    3    3    0    0  0.33300968687E+02  0.12660264002E+01 -0.32328548715E+02  0.46429434633E+02  0.00000000000E+00 0. -1.
         21    1    1    2  502  501 -0.12139718390E+02  0.17650250488E+02  0.51078757674E+02  0.55389020486E+02  0.00000000000E+00 0.  1.
<scales pt_clust_5="13000.00000" pt_clust_6="13000.00000" pt_clust_7="13000.00000" pt_clust_8="13000.00000" pt_clust_9="21.42205"></scales>
<clustering>
<clus scale="   21.422">  1  9  2 -1</clus>
<clus scale="   90.368">  7  8 -1 -1</clus>
<clus scale="   91.533">  1  7  2 -1</clus>
<clus scale="   91.763">  5  6 -1 -1</clus>
<clus scale="   92.910">  2  5  1 -1</clus>
</clustering>
</event>
<event>
 9    1  0.1266593E-005  0.2812629E+03  0.7546771E-02  0.1095056E+00
          1   -1    0    0  502    0  0.00000000000E+00  0.00000000000E+00  0.17907145996E+03  0.17907145996E+03  0.00000000000E+00 0. -1.
         -1   -1    0    0    0  501 -0.00000000000E+00 -0.00000000000E+00 -0.61736336757E+03  0.61736336757E+03  0.00000000000E+00 0.  1.
         23    2    1    2    0    0 -0.52918147741E+02  0.26779115786E+03 -0.34438171201E+03  0.44896294858E+03  0.91959398881E+02 0.  0.
         23    2    1    2    0    0  0.17317422676E+01 -0.26414019018E+03 -0.59123430957E+02  0.28547593823E+03  0.90707729681E+02 0.  0.
        -11    1    3    3    0    0  0.18244145900E+02  0.11628475571E+02 -0.19151204792E+02  0.28893579714E+02  0.00000000000E+00 0.  1.
         11    1    3    3    0    0 -0.71162293642E+02  0.25616268229E+03 -0.32523050722E+03  0.42006936887E+03  0.00000000000E+00 0. -1.
        -13    1    4    4    0    0  0.23992971589E+01 -0.95534301536E+02  0.22459645188E+02  0.98168197798E+02  0.00000000000E+00 0. -1.
         13    1    4    4    0    0 -0.66755489132E+00 -0.16860588864E+03 -0.81583076145E+02  0.18730774044E+03  0.00000000000E+00 0.  1.
         21    1    1    2  502  501  0.51186405474E+02 -0.36509676845E+01 -0.34786764649E+02  0.61995940715E+02  0.00000000000E+00 0. -1.
<scales pt_clust_5="13000.00000" pt_clust_6="13000.00000" pt_clust_7="13000.00000" pt_clust_8="13000.00000" pt_clust_9="51.31645"></scales>
<clustering>
<clus scale="   51.316">  2  9  1 -1</clus>
<clus scale="   90.708">  7  8 -1 -1</clus>
<clus scale="   91.959">  5  6 -1 -1</clus>
<clus scale="  280.856">  1  7  2 -1</clus>
<clus scale="  280.856">  1  5  2 -1</clus>
</clustering>
</event>
<event>
 9    1  0.1266593E-005  0.9710575E+02  0.7546771E-02  0.1288665E+00
          2   -1    0    0  502    0  0.00000000000E+00  0.00000000000E+00  0.31578338561E+03  0.31578338561E+03  0.00000000000E+00 0. -1.
         -2   -1    0    0    0  501 -0.00000000000E+00 -0.00000000000E+00 -0.63226383878E+02  0.63226383878E+02  0.00000000000E+00 0.  1.
         23    2    1    2    0    0 -0.23830295666E+02 -0.30424274852E+02  0.14887447411E+02  0.97775514894E+02  0.88571415991E+02 0.  0.
         23    2    1    2    0    0  0.19903548031E+02 -0.21808765931E+02  0.16745592828E+03  0.19363480723E+03  0.92634643407E+02 0.  0.
        -11    1    3    3    0    0 -0.25363960493E+01  0.29748004723E+02  0.16129855884E+02  0.33934486010E+02  0.00000000000E+00 0. -1.
         11    1    3    3    0    0 -0.21293899617E+02 -0.60172279575E+02 -0.12424084732E+01  0.63841028884E+02  0.00000000000E+00 0.  1.
        -13    1    4    4    0    0  0.11552711510E+02  0.33252802375E+02  0.10083100055E+03  0.10679936648E+03  0.00000000000E+00 0. -1.
         13    1    4    4    0    0  0.83508365206E+01 -0.55061568306E+02  0.66624927729E+02  0.86835440747E+02  0.00000000000E+00 0.  1.
         21    1    1    2  502  501  0.39267476353E+01  0.52233040783E+02  0.70213626043E+02  0.87599447364E+02  0.00000000000E+00 0. -1.
<scales pt_clust_5="13000.00000" pt_clust_6="13000.00000" pt_clust_7="13000.00000" pt_clust_8="13000.00000" pt_clust_9="52.38043"></scales>
<clustering>
<clus scale="   52.380">  1  9  2 -1</clus>
<clus scale="   88.571">  5  6 -1 -1</clus>
<clus scale="   92.635">  7  8 -1 -1</clus>
<clus scale="   93.238">  2  5  1 -1</clus>
<clus scale="   52.380">  1  5  2 -1</clus>
</clustering>
</event>
<event>
 9    1  0.1266593E-005  0.1340297E+03  0.7546771E-02  0.1224819E+00
         -2   -1    0    0    0  501 -0.00000000000E+00  0.00000000000E+00  0.77776320618E+02  0.77776320618E+02  0.00000000000E+00 0.  1.
          2   -1    0    0  502    0  0.00000000000E+00 -0.00000000000E+00 -0.44333844426E+03  0.44333844426E+03  0.00000000000E+00 0. -1.
         23    2    1    2    0    0  0.54770429167E+02 -0.22127996303E+01 -0.71887516886E+01  0.11774107600E+03  0.10395473262E+03 0.  0.
         23    2    1    2    0    0 -0.90547022808E+02  0.10413615192E+02 -0.33643998179E+03  0.36061516187E+03  0.92434987419E+02 0.  0.
        -13    1    4    4    0    0 -0.75606925095E+02 -0.33945535965E+02 -0.22260357437E+03  0.23753117239E+03  0.00000000000E+00 0.  1.
         13    1    4    4    0    0 -0.14940097713E+02  0.44359151156E+02 -0.11383640742E+03  0.12308398948E+03  0.00000000000E+00 0. -1.
        -13    1    3    3    0    0  0.31919848072E+02 -0.12989742446E+02 -0.54282917651E+02  0.64298096849E+02  0.00000000000E+00 0. -1.
         13    1    3    3    0    0  0.22850581095E+02  0.10776942816E+02  0.47094165962E+02  0.53442979151E+02  0.00000000000E+00 0.  1.
         21    1    1    2  502  501  0.35776593641E+02 -0.82008155617E+01 -0.21933390167E+02  0.42758527017E+02  0.00000000000E+00 0. -1.
<scales pt_clust_5="13000.00000" pt_clust_6="13000.00000" pt_clust_7="13000.00000" pt_clust_8="13000.00000" pt_clust_9="36.70447"></scales>
<clustering>
<clus scale="   36.704">  1  9  2 -1</clus>
<clus scale="   92.435">  5  6 -1 -1</clus>
<clus scale="  103.955">  7  8 -1 -1</clus>
<clus scale="  125.306">  2  5  1 -1</clus>
<clus scale="  125.306">  2  5  1 -1</clus>
</clustering>
</event>
<event>
 9    1  0.1266593E-005  0.1333354E+03  0.7546771E-02  0.1223295E+00
         -1   -1    0    0    0  501 -0.00000000000E+00  0.00000000000E+00  0.36521141976E+03  0.36521141976E+03  0.00000000000E+00 0.  1.
          1   -1    0    0  502    0  0.00000000000E+00 -0.00000000000E+00 -0.12023166205E+03  0.12023166205E+03  0.00000000000E+00 0. -1.
         23    2    1    2    0    0  0.39777434544E+02  0.10346089317E+03  0.52393369660E+02  0.15256487582E+03  0.90799644466E+02 0.  0.
         23    2    1    2    0    0 -0.90101020435E+02 -0.37561321934E+02  0.13981199140E+02  0.13596444240E+03  0.93604534505E+02 0.  0.
        -11    1    3    3    0    0  0.41780306828E+02  0.27190368271E+01  0.88325135975E+01  0.42790191590E+02  0.00000000000E+00 0.  1.
         11    1    3    3    0    0 -0.20028722838E+01  0.10074185634E+03  0.43560856063E+02  0.10977468423E+03  0.00000000000E+00 0. -1.
        -13    1    4    4    0    0 -0.56076879992E+02  0.36121487706E+01 -0.32710852794E+02  0.65020488916E+02  0.00000000000E+00 0. -1.
         13    1    4    4    0    0 -0.34024140443E+02 -0.41173470704E+02  0.46692051933E+02  0.70943953488E+02  0.00000000000E+00 0.  1.
         21    1    1    2  502  501  0.50323585891E+02 -0.65899571235E+02  0.17860518891E+03  0.19691376359E+03  0.00000000000E+00 0.  1.
<scales pt_clust_5="13000.00000" pt_clust_6="13000.00000" pt_clust_7="13000.00000" pt_clust_8="13000.00000" pt_clust_9="82.91693"></scales>
<clustering>
<clus scale="   82.917">  1  9  2 -1</clus>
<clus scale="   90.800">  5  6 -1 -1</clus>
<clus scale="   93.605">  7  8 -1 -1</clus>
<clus scale="  131.381">  1  5  2 -1</clus>
<clus scale="  133.335">  2  5  1 -1</clus>
</clustering>
</event>
<event>
 9    1  0.1266593E-005  0.1110706E+03  0.7546771E-02  0.1259253E+00
          2   -1    0    0  502    0  0.00000000000E+00  0.00000000000E+00  0.36643015081E+03  0.36643015081E+03  0.00000000000E+00 0. -1.
         -2   -1    0    0    0  501 -0.00000000000E+00 -0.00000000000E+00 -0.71330850509E+02  0.71330850509E+02  0.00000000000E+00 0.  1.
         23    2    1    2    0    0 -0.42424929553E+02 -0.87173091414E+01  0.24406456886E+02  0.10484116836E+03  0.92304546583E+02 0.  0.
         23    2    1    2    0    0  0.52828381567E+02 -0.44054929661E+02  0.24905572976E+03  0.27494306442E+03  0.93985410682E+02 0.  0.
        -11    1    3    3    0    0 -0.63320459291E+02  0.76964220290E+01  0.38761391579E+02  0.74640210035E+02  0.00000000000E+00 0.  1.
         11    1    3    3    0    0  0.20895529738E+02 -0.16413731170E+02 -0.14354934693E+02  0.30200958329E+02  0.00000000000E+00 0. -1.
        -13    1    4    4    0    0 -0.27093525779E+02 -0.53705557999E+01  0.55526081117E+02  0.62016511455E+02  0.00000000000E+00 0.  1.
         13    1    4    4    0    0  0.79921907346E+02 -0.38684373861E+02  0.19352964864E+03  0.21292655297E+03  0.00000000000E+00 0. -1.
         21    1    1    2  502  501 -0.10403452014E+02  0.52772238802E+02  0.21637113654E+02  0.57976768531E+02  0.00000000000E+00 0. -1.
<scales pt_clust_5="13000.00000" pt_clust_6="13000.00000" pt_clust_7="13000.00000" pt_clust_8="13000.00000" pt_clust_9="53.78793"></scales>
<clustering>
<clus scale="   53.788">  2  9  1 -1</clus>
<clus scale="   92.305">  5  6 -1 -1</clus>
<clus scale="   93.985">  7  8 -1 -1</clus>
<clus scale="  109.652">  2  5  1 -1</clus>
<clus scale="  111.071">  1  5  2 -1</clus>
</clustering>
</event>
<event>
 9    1  0.1266593E-005  0.9251544E+02  0.7546771E-02  0.1297015E+00
         -3   -1    0    0    0  501 -0.00000000000E+00  0.00000000000E+00  0.60869575282E+03  0.60869575282E+03  0.00000000000E+00 0.  1.
          3   -1    0    0  502    0  0.00000000000E+00 -0.00000000000E+00 -0.30091857526E+02  0.30091857526E+02  0.00000000000E+00 0. -1.
         23    2    1    2    0    0 -0.78231328514E+01  0.11288374037E+01  0.43631232597E+03  0.44590389559E+03  0.91648036666E+02 0.  0.
         23    2    1    2    0    0  0.24709540224E+02 -0.11873834280E+02  0.14405210653E+03  0.17279129819E+03  0.91401717795E+02 0.  0.
        -11    1    4    4    0    0 -0.67116877128E+01  0.36195271808E+02  0.69908874247E+02  0.79008829581E+02  0.00000000000E+00 0.  1.
         11    1    4    4    0    0  0.31421227936E+02 -0.48069106088E+02  0.74143232288E+02  0.93782468613E+02  0.00000000000E+00 0. -1.
        -11    1    3    3    0    0 -0.37386940709E+01 -0.45045764666E+02  0.19383384949E+03  0.19903431854E+03  0.00000000000E+00 0. -1.
         11    1    3    3    0    0 -0.40844387804E+01  0.46174602069E+02  0.24247847648E+03  0.24686957705E+03  0.00000000000E+00 0.  1.
         21    1    1    2  502  501 -0.16886407372E+02  0.10744996877E+02 -0.17605372181E+01  0.20092416557E+02  0.00000000000E+00 0. -1.
<scales pt_clust_5="13000.00000" pt_clust_6="13000.00000" pt_clust_7="13000.00000" pt_clust_8="13000.00000" pt_clust_9="20.01514"></scales>
<clustering>
<clus scale="   20.015">  2  9  1 -1</clus>
<clus scale="   91.402">  5  6 -1 -1</clus>
<clus scale="   91.648">  7  8 -1 -1</clus>
<clus scale="   92.271">  2  5  1 -1</clus>
<clus scale="   20.015">  2  5  1 -1</clus>
</clustering>
</event>
<event>
 9    1  0.1266593E-005  0.1135675E+03  0.7546771E-02  0.1255546E+00
          1   -1    0    0  502    0  0.00000000000E+00  0.00000000000E+00  0.13402666936E+03  0.13402666936E+03  0.00000000000E+00 0. -1.
         -1   -1    0    0    0  501 -0.00000000000E+00 -0.00000000000E+00 -0.15287186782E+03  0.15287186782E+03  0.00000000000E+00 0.  1.
         23    2    1    2    0    0  0.46338604291E+02 -0.34067458674E+02 -0.20876560684E+02  0.11137674855E+03  0.93064984522E+02 0.  0.
         23    2    1    2    0    0 -0.67205361352E+02  0.21541165551E+02  0.48081817693E+02  0.12343557146E+03  0.89128540335E+02 0.  0.
        -13    1    3    3    0    0 -0.23176332742E+02  0.11570286285E+02 -0.87392010613E+01  0.27338389844E+02  0.00000000000E+00 0.  1.
         13    1    3    3    0    0  0.69514937034E+02 -0.45637744960E+02 -0.12137359622E+02  0.84038358708E+02  0.00000000000E+00 0. -1.
        -13    1    4    4    0    0 -0.37823422902E+02 -0.33908933520E+02  0.24499114770E+02  0.56397107346E+02  0.00000000000E+00 0. -1.
         13    1    4    4    0    0 -0.29381938451E+02  0.55450099072E+02  0.23582702924E+02  0.67038464119E+02  0.00000000000E+00 0.  1.
         21    1    1    2  502  501  0.20866757061E+02  0.12526293123E+02 -0.46050455468E+02  0.52086217164E+02  0.00000000000E+00 0.  1.
<scales pt_clust_5="13000.00000" pt_clust_6="13000.00000" pt_clust_7="13000.00000" pt_clust_8="13000.00000" pt_clust_9="24.33782"></scales>
<clustering>
<clus scale="   24.338">  2  9  1 -1</clus>
<clus scale="   89.129">  7  8 -1 -1</clus>
<clus scale="   93.065">  5  6 -1 -1</clus>
<clus scale="  110.365">  1  7  2 -1</clus>
<clus scale="  110.365">  1  5  2 -1</clus>
</clustering>
</event>
<event>
 9    1  0.1266593E-005  0.1287283E+03  0.7546771E-02  0.1234623E+00
         -2   -1    0    0    0  501 -0.00000000000E+00  0.00000000000E+00  0.46045236584E+02  0.46045236584E+02  0.00000000000E+00 0.  1.
          2   -1    0    0  502    0  0.00000000000E+00 -0.00000000000E+00 -0.63641882066E+03  0.63641882066E+03  0.00000000000E+00 0. -1.
         23    2    1    2    0    0  0.35686665580E+02 -0.58100282875E+02 -0.96019275399E+02  0.15772981838E+03  0.10492765788E+03 0.  0.
         23    2    1    2    0    0 -0.19531468095E+02  0.97292304442E+02 -0.39496616143E+03  0.41668328434E+03  0.88201020531E+02 0.  0.
        -11    1    3    3    0    0  0.72092295728E+01 -0.85181233248E+02 -0.60186187094E+02  0.10454756145E+03  0.00000000000E+00 0.  1.
         11    1    3    3    0    0  0.28477436007E+02  0.27080950373E+02 -0.35833088305E+02  0.53182256930E+02  0.00000000000E+00 0. -1.
        -13    1    4    4    0    0  0.30059036569E+02  0.69355558723E+02 -0.21234635227E+03  0.22539900738E+03  0.00000000000E+00 0.  1.
         13    1    4    4    0    0 -0.49590504664E+02  0.27936745720E+02 -0.18261980916E+03  0.19128427696E+03  0.00000000000E+00 0. -1.
         21    1    1    2  502  501 -0.16155197485E+02 -0.39192021567E+02 -0.99388147250E+02  0.10805095453E+03  0.00000000000E+00 0.  1.
<scales pt_clust_5="13000.00000" pt_clust_6="13000.00000" pt_clust_7="13000.00000" pt_clust_8="13000.00000" pt_clust_9="42.39110"></scales>
<clustering>
<clus scale="   42.391">  2  9  1 -1</clus>
<clus scale="   88.201">  7  8 -1 -1</clus>
<clus scale="  104.928">  5  6 -1 -1</clus>
<clus scale="  115.501">  2  7  1 -1</clus>
<clus scale="   42.391">  2  5  1 -1</clus>
</clustering>
</event>
<event>
 9    1  0.1266593E-005  0.2471353E+03  0.7546771E-02  0.1115256E+00
         -1   -1    0    0    0  501 -0.00000000000E+00  0.00000000000E+00  0.49252626632E+03  0.49252626632E+03  0.00000000000E+00 0.  1.
          1   -1    0    0  502    0  0.00000000000E+00 -0.00000000000E+00 -0.27781903242E+03  0.27781903242E+03  0.00000000000E+00 0. -1.
         23    2    1    2    0    0 -0.18732435482E+03 -0.18634814656E+03 -0.24167026509E+01  0.28004837419E+03  0.92764248510E+02 0.  0.
         23    2    1    2    0    0  0.17841261425E+03  0.10539039391E+03 -0.31796839589E+02  0.22839020521E+03  0.90624780138E+02 0.  0.
        -11    1    3    3    0    0 -0.12737080321E+03 -0.12307300520E+03  0.42274627572E+02  0.18209181820E+03  0.00000000000E+00 0.  1.
         11    1    3    3    0    0 -0.59953551605E+02 -0.63275141364E+02 -0.44691330223E+02  0.97956555992E+02  0.00000000000E+00 0. -1.
        -11    1    4    4    0    0  0.30060412845E+02 -0.16191068468E+02 -0.12637492938E+01  0.34166887198E+02  0.00000000000E+00 0.  1.
         11    1    4    4    0    0  0.14835220141E+03  0.12158146238E+03 -0.30533090295E+02  0.19422331801E+03  0.00000000000E+00 0. -1.
         21    1    1    2  502  501  0.89117405665E+01  0.80957752650E+02  0.24892077614E+03  0.26190671933E+03  0.00000000000E+00 0.  1.
<scales pt_clust_5="13000.00000" pt_clust_6="13000.00000" pt_clust_7="13000.00000" pt_clust_8="13000.00000" pt_clust_9="81.44677"></scales>
<clustering>
<clus scale="   81.447">  1  9  2 -1</clus>
<clus scale="   90.625">  7  8 -1 -1</clus>
<clus scale="   92.764">  5  6 -1 -1</clus>
<clus scale="  246.340">  2  7  1 -1</clus>
<clus scale="  246.340">  2  5  1 -1</clus>
</clustering>
</event>
<event>
 9    1  0.1266593E-005  0.1858824E+03  0.7546771E-02  0.1187956E+00
          1   -1    0    0  502    0  0.00000000000E+00  0.00000000000E+00  0.89367378664E+03  0.89367378664E+03  0.00000000000E+00 0. -1.
         -1   -1    0    0    0  501 -0.00000000000E+00 -0.00000000000E+00 -0.75421615108E+02  0.75421615108E+02  0.00000000000E+00 0.  1.
         23    2    1    2    0    0 -0.10830486386E+03 -0.14559964248E+03  0.47512436748E+03  0.51269887895E+03  0.64713031779E+02 0.  0.
         23    2    1    2    0    0 -0.26308403512E+02  0.36553518036E+02  0.22192189750E+03  0.24496648521E+03  0.93439598192E+02 0.  0.
        -11    1    3    3    0    0 -0.73312799691E+02 -0.81603768278E+02  0.20043576500E+03  0.22849165737E+03  0.00000000000E+00 0.  1.
         11    1    3    3    0    0 -0.34992064166E+02 -0.63995874204E+02  0.27468860247E+03  0.28420722158E+03  0.00000000000E+00 0. -1.
        -11    1    4    4    0    0 -0.31368110854E+02 -0.15010304463E+02  0.29220681038E+02  0.45421534749E+02  0.00000000000E+00 0.  1.
         11    1    4    4    0    0  0.50597073411E+01  0.51563822499E+02  0.19270121646E+03  0.19954495046E+03  0.00000000000E+00 0. -1.
         21    1    1    2  502  501  0.13461326737E+03  0.10904612445E+03  0.12120590655E+03  0.21143003758E+03  0.00000000000E+00 0. -1.
<scales pt_clust_5="13000.00000" pt_clust_6="13000.00000" pt_clust_7="13000.00000" pt_clust_8="13000.00000" pt_clust_9="174.25406"></scales>
<clustering>
<clus scale="   64.713">  5  6 -1 -1</clus>
<clus scale="   93.440">  7  8 -1 -1</clus>
<clus scale="  103.727">  1  7  2 -1</clus>
<clus scale="  174.254">  2  9  1 -1</clus>
<clus scale="  103.727">  1  5  2 -1</clus>
</clustering>
</event>
<event>
 9    1  0.1266593E-005  0.2862336E+03  0.7546771E-02  0.1092530E+00
         -2   -1    0    0    0  501 -0.00000000000E+00  0.00000000000E+00  0.20265686903E+03  0.20265686903E+03  0.00000000000E+00 0.  1.
          2   -1    0    0  502    0  0.00000000000E+00 -0.00000000000E+00 -0.59540884239E+03  0.59540884239E+03  0.00000000000E+00 0. -1.
         23    2    1    2    0    0  0.24161981539E+03  0.22006401589E+02 -0.90604904616E+02  0.27536257298E+03  0.93546143470E+02 0.  0.
         23    2    1    2    0    0 -0.28077479526E+03 -0.51943119173E+02 -0.34425967693E+03  0.45787419986E+03  0.97987164748E+02 0.  0.
        -11    1    4    4    0    0 -0.25771265875E+03 -0.17747444166E+02 -0.27528770053E+03  0.37751040293E+03  0.00000000000E+00 0. -1.
         11    1    4    4    0    0 -0.23062136516E+02 -0.34195675007E+02 -0.68971976395E+02  0.80363796934E+02  0.00000000000E+00 0.  1.
        -11    1    3    3    0    0  0.63443519391E+01  0.19886870021E+02 -0.21892902513E+02  0.30249588116E+02  0.00000000000E+00 0. -1.
         11    1    3    3    0    0  0.23527546345E+03  0.21195315683E+01 -0.68712002102E+02  0.24511298487E+03  0.00000000000E+00 0.  1.
         21    1    1    2  502  501  0.39154979874E+02  0.29936717584E+02  0.42112608186E+02  0.64828938576E+02  0.00000000000E+00 0.  1.
<scales pt_clust_5="13000.00000" pt_clust_6="13000.00000" pt_clust_7="13000.00000" pt_clust_8="13000.00000" pt_clust_9="49.28813"></scales>
<clustering>
<clus scale="   49.288">  1  9  2 -1</clus>
<clus scale="   93.546">  7  8 -1 -1</clus>
<clus scale="   97.987">  5  6 -1 -1</clus>
<clus scale="  284.744">  1  7  2 -1</clus>
<clus scale="  286.234">  2  5  1 -1</clus>
</clustering>
</event>
<event>
 9    1  0.1266593E-005  0.9455137E+02  0.7546771E-02  0.1294246E+00
         -1   -1    0    0    0  501 -0.00000000000E+00  0.00000000000E+00  0.11179703936E+03  0.11179703936E+03  0.00000000000E+00 0.  1.
          1   -1    0    0  502    0  0.00000000000E+00 -0.00000000000E+00 -0.13818796225E+03  0.13818796225E+03  0.00000000000E+00 0. -1.
         23    2    1    2    0    0 -0.26962349127E+02 -0.17274322543E+00 -0.42368515381E+01  0.95031046325E+02  0.91027197826E+02 0.  0.
         23    2    1    2    0    0  0.16462683601E+01 -0.38124100852E+02 -0.42976603449E+02  0.10454433264E+03  0.87329100411E+02 0.  0.
        -11    1    3    3    0    0  0.28340061163E+02 -0.30165183868E+01  0.19759422039E+02  0.34679867491E+02  0.00000000000E+00 0.  1.
         11    1    3    3    0    0 -0.55302410290E+02  0.28437751614E+01 -0.23996273577E+02  0.60351178834E+02  0.00000000000E+00 0. -1.
        -11    1    4    4    0    0 -0.21904609141E+02 -0.55582033722E+02 -0.45534531422E+02  0.75117028203E+02  0.00000000000E+00 0. -1.
         11    1    4    4    0    0  0.23550877501E+02  0.17457932870E+02  0.25579279722E+01  0.29427304441E+02  0.00000000000E+00 0.  1.
         21    1    1    2  502  501  0.25316080767E+02  0.38296844078E+02  0.20822532101E+02  0.50409622641E+02  0.00000000000E+00 0.  1.
<scales pt_clust_5="13000.00000" pt_clust_6="13000.00000" pt_clust_7="13000.00000" pt_clust_8="13000.00000" pt_clust_9="45.90808"></scales>
<clustering>
<clus scale="   45.908">  1  9  2 -1</clus>
<clus scale="   87.329">  7  8 -1 -1</clus>
<clus scale="   90.997">  2  7  1 -1</clus>
<clus scale="   91.027">  5  6 -1 -1</clus>
<clus scale="   90.997">  2  5  1 -1</clus>
</clustering>
</event>
<event>
 9    1  0.1266593E-005  0.9877092E+02  0.7546771E-02  0.1283408E+00
          1   -1    0    0  502    0  0.00000000000E+00  0.00000000000E+00  0.14948747064E+03  0.14948747064E+03  0.00000000000E+00 0. -1.
         -1   -1    0    0    0  501 -0.00000000000E+00 -0.00000000000E+00 -0.18291135296E+03  0.18291135296E+03  0.00000000000E+00 0.  1.
         23    2    1    2    0    0 -0.15017839939E+02 -0.44151224867E+02 -0.10350286383E+03  0.14591907054E+03  0.91676966317E+02 0.  0.
         23    2    1    2    0    0  0.26871212601E+02  0.23990494934E+02  0.10571823944E+03  0.14385213078E+03  0.90661366998E+02 0.  0.
        -11    1    4    4    0    0  0.48802151337E+02  0.21620285074E+02  0.10917453897E+03  0.12152434596E+03  0.00000000000E+00 0. -1.
         11    1    4    4    0    0 -0.21930938737E+02  0.23702098598E+01 -0.34562995263E+01  0.22327784822E+02  0.00000000000E+00 0.  1.
        -13    1    3    3    0    0 -0.36347804945E+02 -0.50778553421E+02 -0.10642461594E+03  0.12339296288E+03  0.00000000000E+00 0.  1.
         13    1    3    3    0    0  0.21329965006E+02  0.66273285537E+01  0.29217521050E+01  0.22526107659E+02  0.00000000000E+00 0. -1.
         21    1    1    2  502  501 -0.11853372662E+02  0.20160729933E+02 -0.35639257936E+02  0.42627622278E+02  0.00000000000E+00 0.  1.
<scales pt_clust_5="13000.00000" pt_clust_6="13000.00000" pt_clust_7="13000.00000" pt_clust_8="13000.00000" pt_clust_9="23.38712"></scales>
<clustering>
<clus scale="   23.387">  2  9  1 -1</clus>
<clus scale="   90.661">  5  6 -1 -1</clus>
<clus scale="   91.677">  7  8 -1 -1</clus>
<clus scale="   97.829">  1  5  2 -1</clus>
<clus scale="   97.829">  1  5  2 -1</clus>
</clustering>
</event>
<event>
 9    1  0.1266593E-005  0.1279846E+03  0.7546771E-02  0.1231363E+00
         -3   -1    0    0    0  501 -0.00000000000E+00  0.00000000000E+00  0.48007157665E+03  0.48007157665E+03  0.00000000000E+00 0.  1.
          3   -1    0    0  502    0  0.00000000000E+00 -0.00000000000E+00 -0.48167688572E+02  0.48167688572E+02  0.00000000000E+00 0. -1.
         23    2    1    2    0    0  0.72476973986E+02  0.41089803034E+02  0.28787931802E+03  0.31442591066E+03  0.95120281102E+02 0.  0.
         23    2    1    2    0    0 -0.60285993901E+02 -0.63715644176E+02  0.95776439933E+02  0.15914681321E+03  0.91980961817E+02 0.  0.
        -11    1    4    4    0    0 -0.26246476801E+02 -0.56962894698E+02  0.61297445140E+01  0.63017637885E+02  0.00000000000E+00 0. -1.
         11    1    4    4    0    0 -0.34039517101E+02 -0.67527494776E+01  0.89646695419E+02  0.96129175330E+02  0.00000000000E+00 0.  1.
        -13    1    3    3    0    0  0.75948807352E+02  0.54522401392E+01  0.11531870871E+03  0.13818955401E+03  0.00000000000E+00 0.  1.
         13    1    3    3    0    0 -0.34718333659E+01  0.35637562895E+02  0.17256060932E+03  0.17623635665E+03  0.00000000000E+00 0. -1.
         21    1    1    2  502  501 -0.12190980085E+02  0.22625841142E+02  0.48248130123E+02  0.54666541350E+02  0.00000000000E+00 0. -1.
<scales pt_clust_5="13000.00000" pt_clust_6="13000.00000" pt_clust_7="13000.00000" pt_clust_8="13000.00000" pt_clust_9="25.70114"></scales>
<clustering>
<clus scale="   25.701">  1  9  2 -1</clus>
<clus scale="   91.981">  5  6 -1 -1</clus>
<clus scale="   95.120">  7  8 -1 -1</clus>
<clus scale="  125.669">  2  5  1 -1</clus>
<clus scale="  125.669">  2  5  1 -1</clus>
</clustering>
</event>
<event>
 9    1  0.1266593E-005  0.1044971E+03  0.7546771E-02  0.1275252E+00
          1   -1    0    0  502    0  0.00000000000E+00  0.00000000000E+00  0.42626549555E+03  0.42626549555E+03  0.00000000000E+00 0. -1.
         -1   -1    0    0    0  501 -0.00000000000E+00 -0.00000000000E+00 -0.12494112403E+03  0.12494112403E+03  0.00000000000E+00 0.  1.
         23    2    1    2    0    0  0.44558258518E+02  0.64544562565E+02 -0.23192021616E+02  0.12761737197E+03  0.97963691249E+02 0.  0.
         23    2    1    2    0    0  0.50597881656E+01 -0.33933613380E+02  0.34785533214E+03  0.36079046704E+03  0.89383093705E+02 0.  0.
        -11    1    4    4    0    0 -0.26556593909E+02 -0.48810425412E+02  0.26678939999E+03  0.27251475970E+03  0.00000000000E+00 0. -1.
         11    1    4    4    0    0  0.31616382074E+02  0.14876812032E+02  0.81065932147E+02  0.88275707341E+02  0.00000000000E+00 0.  1.
        -13    1    3    3    0    0  0.65941419792E+02  0.38206891329E+02 -0.43822740105E+02  0.87911716737E+02  0.00000000000E+00 0. -1.
         13    1    3    3    0    0 -0.21383161274E+02  0.26337671236E+02  0.20630718489E+02  0.39705655234E+02  0.00000000000E+00 0.  1.
         21    1    1    2  502  501 -0.49618046683E+02 -0.30610949185E+02 -0.23338939000E+02  0.62798780564E+02  0.00000000000E+00 0. -1.
<scales pt_clust_5="13000.00000" pt_clust_6="13000.00000" pt_clust_7="13000.00000" pt_clust_8="13000.00000" pt_clust_9="58.30078"></scales>
<clustering>
<clus scale="   58.301">  2  9  1 -1</clus>
<clus scale="   89.383">  5  6 -1 -1</clus>
<clus scale="   96.499">  1  5  2 -1</clus>
<clus scale="   97.964">  7  8 -1 -1</clus>
<clus scale="   96.499">  1  5  2 -1</clus>
</clustering>
</event>
<event>
 9    1  0.1266593E-005  0.1143696E+03  0.7546771E-02  0.1257484E+00
         -2   -1    0    0    0  501 -0.00000000000E+00  0.00000000000E+00  0.11184655377E+03  0.11184655377E+03  0.00000000000E+00 0.  1.
          2   -1    0    0  502    0  0.00000000000E+00 -0.00000000000E+00 -0.19795310780E+03  0.19795310780E+03  0.00000000000E+00 0. -1.
         23    2    1    2    0    0  0.38414529629E+01 -0.53112088437E+02 -0.33945887141E+02  0.11044825935E+03  0.90613707798E+02 0.  0.
         23    2    1    2    0    0  0.21850640976E+02  0.47439922487E+02 -0.94989463556E+02  0.14908647427E+03  0.10235126705E+03 0.  0.
        -11    1    3    3    0    0 -0.10371213219E+02 -0.71271341446E+02 -0.44949336032E+02  0.84897638276E+02  0.00000000000E+00 0. -1.
         11    1    3    3    0    0  0.14212666182E+02  0.18159253009E+02  0.11003448892E+02  0.25550621075E+02  0.00000000000E+00 0.  1.
        -13    1    4    4    0    0 -0.13614198440E+02  0.70923305835E+02 -0.63481077419E+02  0.96152529348E+02  0.00000000000E+00 0.  1.
         13    1    4    4    0    0  0.35464839416E+02 -0.23483383348E+02 -0.31508386137E+02  0.52933944924E+02  0.00000000000E+00 0. -1.
         21    1    1    2  502  501 -0.25692093939E+02  0.56721659497E+01  0.42828796662E+02  0.50264927942E+02  0.00000000000E+00 0.  1.
<scales pt_clust_5="13000.00000" pt_clust_6="13000.00000" pt_clust_7="13000.00000" pt_clust_8="13000.00000" pt_clust_9="26.31078"></scales>
<clustering>
<clus scale="   26.311">  1  9  2 -1</clus>
<clus scale="   90.614">  5  6 -1 -1</clus>
<clus scale="  102.351">  7  8 -1 -1</clus>
<clus scale="  103.997">  1  5  2 -1</clus>
<clus scale="  114.370">  2  5  1 -1</clus>
</clustering>
</event>
<event>
 9    1  0.1266593E-005  0.1054169E+03  0.7546771E-02  0.1269659E+00
         -2   -1    0    0    0  501 -0.00000000000E+00  0.00000000000E+00  0.49373846449E+02  0.49373846449E+02  0.00000000000E+00 0.  1.
          2   -1    0    0  502    0  0.00000000000E+00 -0.00000000000E+00 -0.38729101561E+03  0.38729101561E+03  0.00000000000E+00 0. -1.
         23    2    1    2    0    0  0.15887038132E+02  0.50507083681E+02 -0.12490505569E+03  0.16349612185E+03  0.91248810620E+02 0.  0.
         23    2    1    2    0    0  0.10230854755E+02 -0.54204068894E+02 -0.22145239433E+03  0.24547306601E+03  0.90405263744E+02 0.  0.
        -11    1    4    4    0    0 -0.36897947210E+02 -0.34083633952E+02 -0.74586159209E+02  0.89923566195E+02  0.00000000000E+00 0.  1.
         11    1    4    4    0    0  0.47128801965E+02 -0.20120434942E+02 -0.14686623512E+03  0.15554949982E+03  0.00000000000E+00 0. -1.
        -13    1    3    3    0    0  0.42584162710E+02  0.60452436669E+02 -0.10622674529E+03  0.12942963118E+03  0.00000000000E+00 0. -1.
         13    1    3    3    0    0 -0.26697124578E+02 -0.99453529889E+01 -0.18678310399E+02  0.34066490664E+02  0.00000000000E+00 0.  1.
         21    1    1    2  502  501 -0.26117892887E+02  0.36969852133E+01  0.84402808525E+01  0.27695674200E+02  0.00000000000E+00 0.  1.
<scales pt_clust_5="13000.00000" pt_clust_6="13000.00000" pt_clust_7="13000.00000" pt_clust_8="13000.00000" pt_clust_9="26.37825"></scales>
<clustering>
<clus scale="   26.378">  1  9  2 -1</clus>
<clus scale="   90.405">  5  6 -1 -1</clus>
<clus scale="   91.249">  7  8 -1 -1</clus>
<clus scale="  104.688">  2  5  1 -1</clus>
<clus scale="  104.688">  2  5  1 -1</clus>
</clustering>
</event>
<event>
 9    1  0.1266593E-005  0.1179882E+03  0.7546771E-02  0.1246886E+00
         -2   -1    0    0    0  501 -0.00000000000E+00  0.00000000000E+00  0.20785904234E+03  0.20785904234E+03  0.00000000000E+00 0.  1.
          2   -1    0    0  502    0  0.00000000000E+00 -0.00000000000E+00 -0.15115117078E+03  0.15115117078E+03  0.00000000000E+00 0. -1.
         23    2    1    2    0    0 -0.69714698711E+02 -0.25627560154E+00  0.93162937772E+02  0.14904141170E+03  0.93133262229E+02 0.  0.
         23    2    1    2    0    0  0.68622312692E+02 -0.28049257369E+02 -0.90648842358E+02  0.14881847946E+03  0.91836510001E+02 0.  0.
        -13    1    4    4    0    0 -0.72592777799E+01 -0.36614503747E+02 -0.12030044502E+02  0.39217865434E+02  0.00000000000E+00 0.  1.
         13    1    4    4    0    0  0.75881590472E+02  0.85652463779E+01 -0.78618797855E+02  0.10960061402E+03  0.00000000000E+00 0. -1.
        -13    1    3    3    0    0 -0.91665487644E+02 -0.85725116590E+01  0.66824698781E+02  0.11376110912E+03  0.00000000000E+00 0.  1.
         13    1    3    3    0    0  0.21950788933E+02  0.83162360575E+01  0.26338238991E+02  0.35280302579E+02  0.00000000000E+00 0. -1.
         21    1    1    2  502  501  0.10923860192E+01  0.28305532970E+02  0.54193776146E+02  0.61150321969E+02  0.00000000000E+00 0.  1.
<scales pt_clust_5="13000.00000" pt_clust_6="13000.00000" pt_clust_7="13000.00000" pt_clust_8="13000.00000" pt_clust_9="28.32660"></scales>
<clustering>
<clus scale="   28.327">  1  9  2 -1</clus>
<clus scale="   91.837">  5  6 -1 -1</clus>
<clus scale="   93.133">  7  8 -1 -1</clus>
<clus scale="  116.967">  2  5  1 -1</clus>
<clus scale="  116.967">  2  5  1 -1</clus>
</clustering>
</event>
<event>
 9    1  0.1266593E-005  0.9991460E+02  0.7546771E-02  0.1281690E+00
          1   -1    0    0  502    0  0.00000000000E+00  0.00000000000E+00  0.16022075265E+03  0.16022075265E+03  0.00000000000E+00 0. -1.
         -1   -1    0    0    0  501 -0.00000000000E+00 -0.00000000000E+00 -0.80386213034E+02  0.80386213034E+02  0.00000000000E+00 0.  1.
         23    2    1    2    0    0  0.11483417544E+01  0.22563803434E+02  0.15041161395E+02  0.98353243215E+02  0.94534015045E+02 0.  0.
         23    2    1    2    0    0 -0.22726298639E+02 -0.21401241796E+02  0.40006908627E+02  0.10937015746E+03  0.96885400367E+02 0.  0.
        -11    1    4    4    0    0  0.20082156541E+02  0.21106497893E+02  0.39447408997E+02  0.49039528354E+02  0.00000000000E+00 0. -1.
         11    1    4    4    0    0 -0.42808455179E+02 -0.42507739689E+02  0.55949963048E+00  0.60330629104E+02  0.00000000000E+00 0.  1.
        -13    1    3    3    0    0 -0.30567407951E+02 -0.14292043194E+02 -0.19255571721E+02  0.38851074242E+02  0.00000000000E+00 0.  1.
         13    1    3    3    0    0  0.31715749705E+02  0.36855846628E+02  0.34296733115E+02  0.59502168972E+02  0.00000000000E+00 0. -1.
         21    1    1    2  502  501  0.21577956884E+02 -0.11625616378E+01  0.24786469595E+02  0.32883565011E+02  0.00000000000E+00 0. -1.
<scales pt_clust_5="13000.00000" pt_clust_6="13000.00000" pt_clust_7="13000.00000" pt_clust_8="13000.00000" pt_clust_9="21.60925"></scales>
<clustering>
<clus scale="   21.609">  1  9  2 -1</clus>
<clus scale="   94.534">  7  8 -1 -1</clus>
<clus scale="   96.885">  5  6 -1 -1</clus>
<clus scale="   97.636">  2  7  1 -1</clus>
<clus scale="   21.609">  1  5  2 -1</clus>
</clustering>
</event>
<event>
 9    1  0.1266593E-005  0.1008262E+03  0.7546771E-02  0.1279965E+00
          2   -1    0    0  502    0  0.00000000000E+00  0.00000000000E+00  0.19437816629E+03  0.19437816629E+03  0.00000000000E+00 0. -1.
         -2   -1    0    0    0  501 -0.00000000000E+00 -0.00000000000E+00 -0.13559353238E+03  0.13559353238E+03  0.00000000000E+00 0.  1.
         23    2    1    2    0    0  0.16001175935E+02 -0.67029598795E+02  0.17922909345E+02  0.11402746289E+03  0.89061927150E+02 0.  0.
         23    2    1    2    0    0 -0.20257711634E+02  0.24381980946E+02  0.10221111114E+03  0.14110651376E+03  0.91973263023E+02 0.  0.
        -11    1    4    4    0    0  0.69327004479E+01  0.51899921463E+02  0.82437218130E+02  0.97660427586E+02  0.00000000000E+00 0. -1.
         11    1    4    4    0    0 -0.27190412082E+02 -0.27517940517E+02  0.19773893008E+02  0.43446086178E+02  0.00000000000E+00 0.  1.
        -13    1    3    3    0    0  0.31851730169E+02  0.88963006452E+01  0.15252829474E+02  0.36418754604E+02  0.00000000000E+00 0. -1.
         13    1    3    3    0    0 -0.15850554234E+02 -0.75925899440E+02  0.26700798712E+01  0.77608708286E+02  0.00000000000E+00 0.  1.
         21    1    1    2  502  501  0.42565356990E+01  0.42647617849E+02 -0.61349386572E+02  0.74837722020E+02  0.00000000000E+00 0.  1.
<scales pt_clust_5="13000.00000" pt_clust_6="13000.00000" pt_clust_7="13000.00000" pt_clust_8="13000.00000" pt_clust_9="42.85951"></scales>
<clustering>
<clus scale="   42.860">  2  9  1 -1</clus>
<clus scale="   89.062">  7  8 -1 -1</clus>
<clus scale="   91.973">  5  6 -1 -1</clus>
<clus scale="   98.178">  2  7  1 -1</clus>
<clus scale="  100.826">  1  5  2 -1</clus>
</clustering>
</event>
<event>
 9    1  0.1266593E-005  0.2034720E+03  0.7546771E-02  0.1146853E+00
          1   -1    0    0  502    0  0.00000000000E+00  0.00000000000E+00  0.57510942579E+03  0.57510942579E+03  0.00000000000E+00 0. -1.
         -1   -1    0    0    0  501 -0.00000000000E+00 -0.00000000000E+00 -0.13251610535E+03  0.13251610535E+03  0.00000000000E+00 0.  1.
         23    2    1    2    0    0  0.16358200497E+03 -0.60175053764E+02  0.18041967044E+03  0.26702670619E+03  0.91498059514E+02 0.  0.
         23    2    1    2    0    0 -0.18555354085E+03  0.32590503609E+02  0.31430229855E+03  0.37766193755E+03  0.91380231751E+02 0.  0.
        -11    1    4    4    0    0 -0.16410696606E+03  0.11852045352E+02  0.19723240977E+03  0.25685052219E+03  0.00000000000E+00 0. -1.
         11    1    4    4    0    0 -0.21446574786E+02  0.20738458257E+02  0.11706988879E+03  0.12081141536E+03  0.00000000000E+00 0.  1.
        -13    1    3    3    0    0  0.13466094422E+02 -0.23470202770E+02  0.75592474492E+02  0.80289528065E+02  0.00000000000E+00 0. -1.
         13    1    3    3    0    0  0.15011591055E+03 -0.36704850994E+02  0.10482719594E+03  0.18673717813E+03  0.00000000000E+00 0.  1.
         21    1    1    2  502  501  0.21971535877E+02  0.27584550155E+02 -0.52128648548E+02  0.62936887399E+02  0.00000000000E+00 0.  1.
<scales pt_clust_5="13000.00000" pt_clust_6="13000.00000" pt_clust_7="13000.00000" pt_clust_8="13000.00000" pt_clust_9="35.26550"></scales>
<clustering>
<clus scale="   35.266">  2  9  1 -1</clus>
<clus scale="   91.380">  5  6 -1 -1</clus>
<clus scale="   91.498">  7  8 -1 -1</clus>
<clus scale="  203.419">  1  5  2 -1</clus>
<clus scale="  203.419">  1  5  2 -1</clus>
</clustering>
</event>
<event>
 9    1  0.1266593E-005  0.3023459E+03  0.7546771E-02  0.1084287E+00
          1   -1    0    0  502    0  0.00000000000E+00  0.00000000000E+00  0.71600080195E+03  0.71600080195E+03  0.00000000000E+00 0. -1.
         -1   -1    0    0    0  501 -0.00000000000E+00 -0.00000000000E+00 -0.51845299767E+03  0.51845299767E+03  0.00000000000E+00 0.  1.
         23    2    1    2    0    0 -0.17954972420E+03  0.25026329848E+02 -0.62299166874E+02  0.21051762277E+03  0.87017599708E+02 0.  0.
         23    2    1    2    0    0  0.32372873893E+03  0.17191493126E+02  0.57965478193E+03  0.67059927147E+03  0.92778622784E+02 0.  0.
        -11    1    4    4    0    0  0.52336081175E+02 -0.98968358610E+01  0.17249344771E+03  0.18052978219E+03  0.00000000000E+00 0. -1.
         11    1    4    4    0    0  0.27139265776E+03  0.27088328987E+02  0.40716133422E+03  0.49006948929E+03  0.00000000000E+00 0.  1.
        -13    1    3    3    0    0 -0.25473446736E+02  0.38281305317E+02 -0.83635504708E+01  0.46736536049E+02  0.00000000000E+00 0.  1.
         13    1    3    3    0    0 -0.15407627746E+03 -0.13254975469E+02 -0.53935616404E+02  0.16378108672E+03  0.00000000000E+00 0. -1.
         21    1    1    2  502  501 -0.14417901474E+03 -0.42217822974E+02 -0.31980781078E+03  0.35333690538E+03  0.00000000000E+00 0.  1.
<scales pt_clust_5="13000.00000" pt_clust_6="13000.00000" pt_clust_7="13000.00000" pt_clust_8="13000.00000" pt_clust_9="150.23293"></scales>
<clustering>
<clus scale="   87.018">  7  8 -1 -1</clus>
<clus scale="   92.779">  5  6 -1 -1</clus>
<clus scale="  150.233">  2  9  1 -1</clus>
<clus scale="  300.628">  2  7  1 -1</clus>
<clus scale="  302.346">  1  5  2 -1</clus>
</clustering>
</event>
<event>
 9    1  0.1266593E-005  0.1578264E+03  0.7546771E-02  0.1191257E+00
         -1   -1    0    0    0  501 -0.00000000000E+00  0.00000000000E+00  0.53084304114E+03  0.53084304114E+03  0.00000000000E+00 0.  1.
          1   -1    0    0  502    0  0.00000000000E+00 -0.00000000000E+00 -0.86275662686E+02  0.86275662686E+02  0.00000000000E+00 0. -1.
         23    2    1    2    0    0 -0.11586341184E+03 -0.11033292859E+03  0.21164136969E+03  0.28038264573E+03  0.90689984706E+02 0.  0.
         23    2    1    2    0    0  0.11305597691E+03  0.34528437512E+02  0.86984283861E+02  0.17225751960E+03  0.90180488508E+02 0.  0.
        -11    1    3    3    0    0 -0.36046601565E+02 -0.42468365245E+02  0.14718858375E+03  0.15737661426E+03  0.00000000000E+00 0.  1.
         11    1    3    3    0    0 -0.79816810279E+02 -0.67864563348E+02  0.64452785940E+02  0.12300603147E+03  0.00000000000E+00 0. -1.
        -13    1    4    4    0    0 -0.12009965790E+01  0.26921484801E+02 -0.23103899135E+01  0.27047118853E+02  0.00000000000E+00 0. -1.
         13    1    4    4    0    0  0.11425697349E+03  0.76069527108E+01  0.89294673775E+02  0.14521040075E+03  0.00000000000E+00 0.  1.
         21    1    1    2  502  501  0.28074349346E+01  0.75804491080E+02  0.14594172491E+03  0.16447853850E+03  0.00000000000E+00 0.  1.
<scales pt_clust_5="13000.00000" pt_clust_6="13000.00000" pt_clust_7="13000.00000" pt_clust_8="13000.00000" pt_clust_9="75.85646"></scales>
<clustering>
<clus scale="   75.856">  1  9  2 -1</clus>
<clus scale="   90.180">  7  8 -1 -1</clus>
<clus scale="   90.690">  5  6 -1 -1</clus>
<clus scale="  157.534">  2  7  1 -1</clus>
<clus scale="  157.534">  2  5  1 -1</clus>
</clustering>
</event>
<event>
 9    1  0.1266593E-005  0.1528065E+03  0.7546771E-02  0.1197306E+00
          2   -1    0    0  502    0  0.00000000000E+00  0.00000000000E+00  0.98953345804E+03  0.98953345804E+03  0.00000000000E+00 0. -1.
         -2   -1    0    0    0  501 -0.00000000000E+00 -0.00000000000E+00 -0.60851079113E+02  0.60851079113E+02  0.00000000000E+00 0.  1.
         23    2    1    2    0    0  0.10408379041E+03 -0.21160658457E+02  0.18342892444E+03  0.23101314601E+03  0.91867809454E+02 0.  0.
         23    2    1    2    0    0 -0.11792980014E+03  0.45724742342E+02  0.76752536734E+03  0.78343889465E+03  0.93183272691E+02 0.  0.
        -11    1    3    3    0    0  0.79732699485E+02 -0.38799642350E+02  0.18011980475E+03  0.20076319303E+03  0.00000000000E+00 0. -1.
         11    1    3    3    0    0  0.24351090926E+02  0.17638983892E+02  0.33091196960E+01  0.30249952978E+02  0.00000000000E+00 0.  1.
        -13    1    4    4    0    0 -0.98166542717E+02 -0.92873995804E+01  0.49072724798E+03  0.50053587065E+03  0.00000000000E+00 0.  1.
         13    1    4    4    0    0 -0.19763257420E+02  0.55012141922E+02  0.27679811936E+03  0.28290302400E+03  0.00000000000E+00 0. -1.
         21    1    1    2  502  501  0.13846009727E+02 -0.24564083884E+02 -0.22271912856E+02  0.35932496499E+02  0.00000000000E+00 0.  1.
<scales pt_clust_5="13000.00000" pt_clust_6="13000.00000" pt_clust_7="13000.00000" pt_clust_8="13000.00000" pt_clust_9="28.19763"></scales>
<clustering>
<clus scale="   28.198">  2  9  1 -1</clus>
<clus scale="   91.868">  5  6 -1 -1</clus>
<clus scale="   93.183">  7  8 -1 -1</clus>
<clus scale="  152.008">  2  5  1 -1</clus>
<clus scale="  152.807">  1  5  2 -1</clus>
</clustering>
</event>
<event>
 9    1  0.1266593E-005  0.9999317E+02  0.7546771E-02  0.1280924E+00
         -2   -1    0    0    0  501 -0.00000000000E+00  0.00000000000E+00  0.92088034746E+02  0.92088034746E+02  0.00000000000E+00 0.  1.
          2   -1    0    0  502    0  0.00000000000E+00 -0.00000000000E+00 -0.44058570615E+03  0.44058570615E+03  0.00000000000E+00 0. -1.
         23    2    1    2    0    0  0.19166498253E+02  0.41316697177E+02 -0.13346234181E+03  0.16812501320E+03  0.91539058668E+02 0.  0.
         23    2    1    2    0    0  0.25455864529E+02 -0.37698424379E+02 -0.27311264413E+03  0.29121918644E+03  0.90271401467E+02 0.  0.
        -11    1    4    4    0    0 -0.31793306766E+02 -0.19272214727E+02 -0.68351239982E+02  0.77808255492E+02  0.00000000000E+00 0. -1.
         11    1    4    4    0    0  0.57249171295E+02 -0.18426209652E+02 -0.20476140415E+03  0.21341093094E+03  0.00000000000E+00 0.  1.
        -13    1    3    3    0    0 -0.12464403903E+02  0.33568123098E+02 -0.13061532887E+03  0.13543464988E+03  0.00000000000E+00 0. -1.
         13    1    3    3    0    0  0.31630902156E+02  0.77485740795E+01 -0.28470129431E+01  0.32690363322E+02  0.00000000000E+00 0.  1.
         21    1    1    2  502  501 -0.44622362782E+02 -0.36182727988E+01  0.58077314535E+02  0.73329541263E+02  0.00000000000E+00 0.  1.
<scales pt_clust_5="13000.00000" pt_clust_6="13000.00000" pt_clust_7="13000.00000" pt_clust_8="13000.00000" pt_clust_9="44.76882"></scales>
<clustering>
<clus scale="   44.769">  1  9  2 -1</clus>
<clus scale="   90.271">  5  6 -1 -1</clus>
<clus scale="   91.539">  7  8 -1 -1</clus>
<clus scale="   98.834">  2  5  1 -1</clus>
<clus scale="   98.834">  2  5  1 -1</clus>
</clustering>
</event>
<event>
 9    1  0.1266593E-005  0.1086928E+03  0.7546771E-02  0.1263409E+00
          1   -1    0    0  502    0  0.00000000000E+00  0.00000000000E+00  0.29642479330E+03  0.29642479330E+03  0.00000000000E+00 0. -1.
         -1   -1    0    0    0  501 -0.00000000000E+00 -0.00000000000E+00 -0.84030423678E+02  0.84030423678E+02  0.00000000000E+00 0.  1.
         23    2    1    2    0    0 -0.32025387352E+01 -0.43147385544E+02 -0.10788526781E+02  0.10160107477E+03  0.91293115571E+02 0.  0.
         23    2    1    2    0    0  0.29569025546E+02  0.55970736308E+02  0.22384178928E+03  0.24952729288E+03  0.90286613997E+02 0.  0.
        -11    1    3    3    0    0  0.38477595079E+02 -0.30230728599E+02  0.14666361311E+02  0.51083504468E+02  0.00000000000E+00 0. -1.
         11    1    3    3    0    0 -0.41680133814E+02 -0.12916656945E+02 -0.25454888093E+02  0.50517570302E+02  0.00000000000E+00 0.  1.
        -11    1    4    4    0    0 -0.18860995556E+02  0.58779660082E+02  0.12277239215E+03  0.13741850628E+03  0.00000000000E+00 0.  1.
         11    1    4    4    0    0  0.48430021102E+02 -0.28089237744E+01  0.10106939713E+03  0.11210878660E+03  0.00000000000E+00 0. -1.
         21    1    1    2  502  501 -0.26366486811E+02 -0.12823350764E+02 -0.65889288326E+00  0.29326849326E+02  0.00000000000E+00 0. -1.
<scales pt_clust_5="13000.00000" pt_clust_6="13000.00000" pt_clust_7="13000.00000" pt_clust_8="13000.00000" pt_clust_9="29.31945"></scales>
<clustering>
<clus scale="   29.319">  2  9  1 -1</clus>
<clus scale="   90.287">  7  8 -1 -1</clus>
<clus scale="   91.293">  5  6 -1 -1</clus>
<clus scale="  107.849">  1  7  2 -1</clus>
<clus scale="  107.849">  1  5  2 -1</clus>
</clustering>
</event>
<event>
 9    1  0.1266593E-005  0.1101935E+03  0.7546771E-02  0.1260406E+00
          2   -1    0    0  502    0  0.00000000000E+00  0.00000000000E+00  0.39513991327E+03  0.39513991327E+03  0.00000000000E+00 0. -1.
         -2   -1    0    0    0  501 -0.00000000000E+00 -0.00000000000E+00 -0.77833629781E+02  0.77833629781E+02  0.00000000000E+00 0.  1.
         23    2    1    2    0    0  0.69139131905E+02 -0.21107765900E+02  0.17263043399E+00  0.11672674593E+03  0.91647946366E+02 0.  0.
         23    2    1    2    0    0 -0.49896825316E+02  0.31268509028E+02  0.31607812494E+03  0.33446099432E+03  0.92148590995E+02 0.  0.
        -11    1    3    3    0    0  0.74943038982E+02  0.17632689874E+02 -0.53090942314E+01  0.77172257487E+02  0.00000000000E+00 0.  1.
         11    1    3    3    0    0 -0.58039070777E+01 -0.38740455774E+02  0.54817246654E+01  0.39554488446E+02  0.00000000000E+00 0. -1.
        -13    1    4    4    0    0 -0.70938344043E+02  0.38568075731E+02  0.28506065376E+03  0.29627575237E+03  0.00000000000E+00 0. -1.
         13    1    4    4    0    0  0.21041518726E+02 -0.72995667028E+01  0.31017471188E+02  0.38185241956E+02  0.00000000000E+00 0.  1.
         21    1    1    2  502  501 -0.19242306588E+02 -0.10160743128E+02  0.10555281104E+01  0.21785802793E+02  0.00000000000E+00 0. -1.
<scales pt_clust_5="13000.00000" pt_clust_6="13000.00000" pt_clust_7="13000.00000" pt_clust_8="13000.00000" pt_clust_9="21.76022"></scales>
<clustering>
<clus scale="   21.760">  2  9  1 -1</clus>
<clus scale="   91.648">  5  6 -1 -1</clus>
<clus scale="   92.149">  7  8 -1 -1</clus>
<clus scale="  109.775">  2  5  1 -1</clus>
<clus scale="  110.193">  1  5  2 -1</clus>
</clustering>
</event>
<event>
 9    1  0.1266593E-005  0.2424122E+03  0.7546771E-02  0.1118308E+00
          1   -1    0    0  502    0  0.00000000000E+00  0.00000000000E+00  0.73351679836E+03  0.73351679836E+03  0.00000000000E+00 0. -1.
         -1   -1    0    0    0  501 -0.00000000000E+00 -0.00000000000E+00 -0.15409400710E+03  0.15409400710E+03  0.00000000000E+00 0.  1.
         23    2    1    2    0    0  0.14954760374E+03  0.17875826043E+03  0.80344813275E+01  0.24893197408E+03  0.87083714741E+02 0.  0.
         23    2    1    2    0    0 -0.16229905184E+03 -0.15466274180E+03  0.55884116480E+03  0.60866842824E+03  0.88950897314E+02 0.  0.
        -13    1    4    4    0    0 -0.13633673718E+03 -0.15694016267E+03  0.43511421384E+03  0.48222639875E+03  0.00000000000E+00 0. -1.
         13    1    4    4    0    0 -0.25962314657E+02  0.22774208720E+01  0.12372695095E+03  0.12644202948E+03  0.00000000000E+00 0.  1.
        -13    1    3    3    0    0  0.14745526703E+03  0.12915334281E+03 -0.95733311004E+01  0.19625312839E+03  0.00000000000E+00 0.  1.
         13    1    3    3    0    0  0.20923367078E+01  0.49604917615E+02  0.17607812428E+02  0.52678845687E+02  0.00000000000E+00 0. -1.
         21    1    1    2  502  501  0.12751448101E+02 -0.24095518624E+02  0.12547145138E+02  0.30010403156E+02  0.00000000000E+00 0. -1.
<scales pt_clust_5="13000.00000" pt_clust_6="13000.00000" pt_clust_7="13000.00000" pt_clust_8="13000.00000" pt_clust_9="27.26157"></scales>
<clustering>
<clus scale="   27.262">  2  9  1 -1</clus>
<clus scale="   87.084">  7  8 -1 -1</clus>
<clus scale="   88.951">  5  6 -1 -1</clus>
<clus scale="  241.733">  2  7  1 -1</clus>
<clus scale="  242.412">  1  5  2 -1</clus>
</clustering>
</event>
<event>
 9    1  0.1266593E-005  0.1087527E+03  0.7546771E-02  0.1263716E+00
          1   -1    0    0  502    0  0.00000000000E+00  0.00000000000E+00  0.13121351642E+03  0.13121351642E+03  0.00000000000E+00 0. -1.
         -1   -1    0    0    0  501 -0.00000000000E+00 -0.00000000000E+00 -0.13082233363E+03  0.13082233363E+03  0.00000000000E+00 0.  1.
         23    2    1    2    0    0  0.59669599952E+02 -0.10647831553E+02 -0.86914444280E+01  0.10885732103E+03  0.90002986954E+02 0.  0.
         23    2    1    2    0    0 -0.48905873046E+02  0.31037651088E+02  0.38883002182E+02  0.11550008815E+03  0.92050324828E+02 0.  0.
        -13    1    3    3    0    0  0.67414559615E+02  0.19304457383E+02 -0.24287665324E+02  0.74211020812E+02  0.00000000000E+00 0.  1.
         13    1    3    3    0    0 -0.77449596630E+01 -0.29952288936E+02  0.15596220896E+02  0.34646300220E+02  0.00000000000E+00 0. -1.
        -13    1    4    4    0    0  0.20499472226E+01 -0.27601280070E+02 -0.19334145333E+01  0.27744747915E+02  0.00000000000E+00 0.  1.
         13    1    4    4    0    0 -0.50955820269E+02  0.58638931158E+02  0.40816416715E+02  0.87755340237E+02  0.00000000000E+00 0. -1.
         21    1    1    2  502  501 -0.10763726906E+02 -0.20389819536E+02 -0.29800374969E+02  0.37678440863E+02  0.00000000000E+00 0. -1.
<scales pt_clust_5="13000.00000" pt_clust_6="13000.00000" pt_clust_7="13000.00000" pt_clust_8="13000.00000" pt_clust_9="23.05651"></scales>
<clustering>
<clus scale="   23.057">  2  9  1 -1</clus>
<clus scale="   90.003">  5  6 -1 -1</clus>
<clus scale="   92.050">  7  8 -1 -1</clus>
<clus scale="  107.025">  2  5  1 -1</clus>
<clus scale="  108.753">  1  5  2 -1</clus>
</clustering>
</event>
<event>
 9    1  0.1266593E-005  0.1002295E+03  0.7546771E-02  0.1280475E+00
          1   -1    0    0  502    0  0.00000000000E+00  0.00000000000E+00  0.50609028766E+03  0.50609028766E+03  0.00000000000E+00 0. -1.
         -1   -1    0    0    0  501 -0.00000000000E+00 -0.00000000000E+00 -0.65624556597E+02  0.65624556597E+02  0.00000000000E+00 0.  1.
         23    2    1    2    0    0  0.13116361625E+02 -0.79185610019E+01  0.39596678348E+02  0.10008151409E+03  0.90629299766E+02 0.  0.
         23    2    1    2    0    0 -0.45216858182E+02 -0.17894165643E+01  0.42047035782E+03  0.43278879556E+03  0.91994855736E+02 0.  0.
        -11    1    3    3    0    0 -0.15788124446E+02 -0.39120551468E+02  0.31966087220E+00  0.42187493452E+02  0.00000000000E+00 0.  1.
         11    1    3    3    0    0  0.28904486072E+02  0.31201990466E+02  0.39277017476E+02  0.57894020640E+02  0.00000000000E+00 0. -1.
        -11    1    4    4    0    0  0.13943301612E+02 -0.31427590027E+02  0.10615390966E+03  0.11158298083E+03  0.00000000000E+00 0.  1.
         11    1    4    4    0    0 -0.59160159793E+02  0.29638173463E+02  0.31431644815E+03  0.32120581472E+03  0.00000000000E+00 0. -1.
         21    1    1    2  502  501  0.32100496556E+02  0.97079775662E+01 -0.19601305098E+02  0.38844534611E+02  0.00000000000E+00 0. -1.
<scales pt_clust_5="13000.00000" pt_clust_6="13000.00000" pt_clust_7="13000.00000" pt_clust_8="13000.00000" pt_clust_9="33.53635"></scales>
<clustering>
<clus scale="   33.536">  2  9  1 -1</clus>
<clus scale="   90.629">  5  6 -1 -1</clus>
<clus scale="   91.995">  7  8 -1 -1</clus>
<clus scale="   98.978">  2  5  1 -1</clus>
<clus scale="  100.230">  1  5  2 -1</clus>
</clustering>
</event>
<event>
 9    1  0.1266593E-005  0.2191567E+03  0.7546771E-02  0.1163211E+00
          1   -1    0    0  502    0  0.00000000000E+00  0.00000000000E+00  0.21018443053E+03  0.21018443053E+03  0.00000000000E+00 0. -1.
         -1   -1    0    0    0  501 -0.00000000000E+00 -0.00000000000E+00 -0.46139930588E+03  0.46139930588E+03  0.00000000000E+00 0.  1.
         23    2    1    2    0    0 -0.34520198589E+02 -0.51073638581E+02 -0.20546565953E+03  0.23346860324E+03  0.92148200110E+02 0.  0.
         23    2    1    2    0    0  0.19785376954E+03  0.46351524269E+02  0.63595369535E+02  0.24150284436E+03  0.11395031761E+03 0.  0.
        -11    1    3    3    0    0  0.25640259327E+00  0.20130034173E+02 -0.97423251871E+02  0.99481526040E+02  0.00000000000E+00 0. -1.
         11    1    3    3    0    0 -0.34776601183E+02 -0.71203672754E+02 -0.10804240766E+03  0.13398707720E+03  0.00000000000E+00 0.  1.
        -13    1    4    4    0    0  0.88357067507E+02  0.21562242645E+02 -0.29545584798E+02  0.95628673876E+02  0.00000000000E+00 0.  1.
         13    1    4    4    0    0  0.10949670204E+03  0.24789281623E+02  0.93140954333E+02  0.14587417049E+03  0.00000000000E+00 0. -1.
         21    1    1    2  502  501 -0.16333357096E+03  0.47221143126E+01 -0.10934458536E+03  0.19661228881E+03  0.00000000000E+00 0. -1.
<scales pt_clust_5="13000.00000" pt_clust_6="13000.00000" pt_clust_7="13000.00000" pt_clust_8="13000.00000" pt_clust_9="187.20307"></scales>
<clustering>
<clus scale="   92.148">  5  6 -1 -1</clus>
<clus scale="  110.867">  2  5  1 -1</clus>
<clus scale="  113.950">  7  8 -1 -1</clus>
<clus scale="  187.203">  2  9  1 -1</clus>
<clus scale="  219.157">  1  5  2 -1</clus>
</clustering>
</event>
<event>
 9    1  0.1266593E-005  0.1098477E+03  0.7546771E-02  0.1261037E+00
         -3   -1    0    0    0  501 -0.00000000000E+00  0.00000000000E+00  0.50985999319E+03  0.50985999319E+03  0.00000000000E+00 0.  1.
          3   -1    0    0  502    0  0.00000000000E+00 -0.00000000000E+00 -0.30503365166E+02  0.30503365166E+02  0.00000000000E+00 0. -1.
         23    2    1    2    0    0  0.48909578554E+02 -0.40827628406E+02  0.27639032454E+03  0.29819481026E+03  0.92029838914E+02 0.  0.
         23    2    1    2    0    0 -0.55005110373E+02  0.21345252270E+02  0.14974978106E+03  0.18517103282E+03  0.91553986856E+02 0.  0.
        -11    1    4    4    0    0 -0.25841010623E+02  0.43622061551E+02  0.13739008333E+03  0.14644684047E+03  0.00000000000E+00 0.  1.
         11    1    4    4    0    0 -0.29164099750E+02 -0.22276809281E+02  0.12359697721E+02  0.38724192357E+02  0.00000000000E+00 0. -1.
        -13    1    3    3    0    0  0.49989853532E+02 -0.93925568804E+01  0.25531695007E+03  0.26033430541E+03  0.00000000000E+00 0.  1.
         13    1    3    3    0    0 -0.10802749788E+01 -0.31435071525E+02  0.21073374472E+02  0.37860504850E+02  0.00000000000E+00 0. -1.
         21    1    1    2  502  501  0.60955318192E+01  0.19482376135E+02  0.53216522432E+02  0.56997515277E+02  0.00000000000E+00 0.  1.
<scales pt_clust_5="13000.00000" pt_clust_6="13000.00000" pt_clust_7="13000.00000" pt_clust_8="13000.00000" pt_clust_9="20.41368"></scales>
<clustering>
<clus scale="   20.414">  1  9  2 -1</clus>
<clus scale="   91.554">  5  6 -1 -1</clus>
<clus scale="   92.030">  7  8 -1 -1</clus>
<clus scale="  109.449">  2  5  1 -1</clus>
<clus scale="  109.449">  2  5  1 -1</clus>
</clustering>
</event>
<event>
 9    1  0.1266593E-005  0.1908103E+03  0.7546771E-02  0.1176638E+00
          1   -1    0    0  502    0  0.00000000000E+00  0.00000000000E+00  0.78496648197E+02  0.78496648197E+02  0.00000000000E+00 0. -1.
         -1   -1    0    0    0  501 -0.00000000000E+00 -0.00000000000E+00 -0.93959666513E+03  0.93959666513E+03  0.00000000000E+00 0.  1.
         23    2    1    2    0    0  0.21187714148E+03  0.37373720326E+02 -0.59150215127E+03  0.63579927250E+03  0.89873254663E+02 0.  0.
         23    2    1    2    0    0 -0.86319076629E+02 -0.67773449701E+01 -0.63208579793E+02  0.13878325430E+03  0.88139388017E+02 0.  0.
        -11    1    3    3    0    0  0.12029550651E+03  0.33577654074E+02 -0.21826486055E+03  0.25147170237E+03  0.00000000000E+00 0.  1.
         11    1    3    3    0    0  0.91581634966E+02  0.37960662527E+01 -0.37323729072E+03  0.38432757014E+03  0.00000000000E+00 0. -1.
        -13    1    4    4    0    0 -0.31489313985E+01 -0.29101468778E+02 -0.40055304025E+02  0.49610872140E+02  0.00000000000E+00 0.  1.
         13    1    4    4    0    0 -0.83170145230E+02  0.22324123808E+02 -0.23153275768E+02  0.89172382161E+02  0.00000000000E+00 0. -1.
         21    1    1    2  502  501 -0.12555806485E+03 -0.30596375356E+02 -0.20638928587E+03  0.24351078653E+03  0.00000000000E+00 0. -1.
<scales pt_clust_5="13000.00000" pt_clust_6="13000.00000" pt_clust_7="13000.00000" pt_clust_8="13000.00000" pt_clust_9="168.31919"></scales>
<clustering>
<clus scale="   88.139">  7  8 -1 -1</clus>
<clus scale="   89.873">  5  6 -1 -1</clus>
<clus scale="  123.553">  1  7  2 -1</clus>
<clus scale="  168.319">  2  9  1 -1</clus>
<clus scale="  123.553">  1  5  2 -1</clus>
</clustering>
</event>
<event>
 9    1  0.1266593E-005  0.9587479E+02  0.7546771E-02  0.1299993E+00
          3   -1    0    0  502    0  0.00000000000E+00  0.00000000000E+00  0.26493619188E+03  0.26493619188E+03  0.00000000000E+00 0. -1.
         -3   -1    0    0    0  501 -0.00000000000E+00 -0.00000000000E+00 -0.65822955652E+02  0.65822955652E+02  0.00000000000E+00 0.  1.
         23    2    1    2    0    0 -0.96376874567E+01 -0.18834933039E+02  0.81883703974E+01  0.93851261451E+02  0.91067942461E+02 0.  0.
         23    2    1    2    0    0  0.32721802021E+02 -0.13909896112E+02  0.17689241811E+03  0.19445780045E+03  0.72516943074E+02 0.  0.
        -11    1    4    4    0    0 -0.15915900233E+02 -0.24558717485E+02  0.47199061538E+02  0.55535555231E+02  0.00000000000E+00 0. -1.
         11    1    4    4    0    0  0.48637702254E+02  0.10648821372E+02  0.12969335657E+03  0.13892224521E+03  0.00000000000E+00 0.  1.
        -11    1    3    3    0    0 -0.14161137678E+02 -0.39026773314E+02 -0.29449129463E+02  0.50900668775E+02  0.00000000000E+00 0.  1.
         11    1    3    3    0    0  0.45234502212E+01  0.20191840274E+02  0.37637499860E+02  0.42950592677E+02  0.00000000000E+00 0. -1.
         21    1    1    2  502  501 -0.23084114564E+02  0.32744829152E+02  0.14032447723E+02  0.42450085636E+02  0.00000000000E+00 0. -1.
<scales pt_clust_5="13000.00000" pt_clust_6="13000.00000" pt_clust_7="13000.00000" pt_clust_8="13000.00000" pt_clust_9="40.06370"></scales>
<clustering>
<clus scale="   40.064">  2  9  1 -1</clus>
<clus scale="   72.517">  5  6 -1 -1</clus>
<clus scale="   78.469">  1  5  2 -1</clus>
<clus scale="   91.068">  7  8 -1 -1</clus>
<clus scale="   78.469">  1  5  2 -1</clus>
</clustering>
</event>
<event>
 9    1  0.1266593E-005  0.1602411E+03  0.7546771E-02  0.1189831E+00
          2   -1    0    0  502    0  0.00000000000E+00  0.00000000000E+00  0.57567574227E+03  0.57567574227E+03  0.00000000000E+00 0. -1.
         -2   -1    0    0    0  501 -0.00000000000E+00 -0.00000000000E+00 -0.83382637135E+02  0.83382637135E+02  0.00000000000E+00 0.  1.
         23    2    1    2    0    0  0.10749178656E+03 -0.25125326849E+02  0.20055200082E+03  0.24632707546E+03  0.90940402706E+02 0.  0.
         23    2    1    2    0    0 -0.13993959965E+03  0.16474452020E+02  0.32350385510E+03  0.36650825183E+03  0.99091146296E+02 0.  0.
        -11    1    4    4    0    0 -0.46412960863E+02  0.15481815945E+02  0.22662632139E+03  0.23184766358E+03  0.00000000000E+00 0. -1.
         11    1    4    4    0    0 -0.93526638788E+02  0.99263607529E+00  0.96877533707E+02  0.13466058825E+03  0.00000000000E+00 0.  1.
        -11    1    3    3    0    0  0.18007514688E+02  0.16981970849E+02  0.24015759537E+01  0.24868162099E+02  0.00000000000E+00 0.  1.
         11    1    3    3    0    0  0.89484271876E+02 -0.42107297698E+02  0.19815042487E+03  0.22145891336E+03  0.00000000000E+00 0. -1.
         21    1    1    2  502  501  0.32447813087E+02  0.86508748288E+01 -0.31762750785E+02  0.46223052115E+02  0.00000000000E+00 0.  1.
<scales pt_clust_5="13000.00000" pt_clust_6="13000.00000" pt_clust_7="13000.00000" pt_clust_8="13000.00000" pt_clust_9="33.58122"></scales>
<clustering>
<clus scale="   33.581">  2  9  1 -1</clus>
<clus scale="   90.940">  7  8 -1 -1</clus>
<clus scale="   99.091">  5  6 -1 -1</clus>
<clus scale="  155.333">  2  7  1 -1</clus>
<clus scale="  160.241">  1  5  2 -1</clus>
</clustering>
</event>
<event>
 9    1  0.1266593E-005  0.9824749E+02  0.7546771E-02  0.1286332E+00
         -2   -1    0    0    0  501 -0.00000000000E+00  0.00000000000E+00  0.30464504651E+02  0.30464504651E+02  0.00000000000E+00 0.  1.
          2   -1    0    0  502    0  0.00000000000E+00 -0.00000000000E+00 -0.63091136409E+03  0.63091136409E+03  0.00000000000E+00 0. -1.
         23    2    1    2    0    0 -0.30952507325E+02 -0.16309977356E+02 -0.10674203513E+03  0.14524057944E+03  0.92070031945E+02 0.  0.
         23    2    1    2    0    0  0.35061214446E+02 -0.52388026975E+01 -0.48218750970E+03  0.49135868880E+03  0.87588998995E+02 0.  0.
        -11    1    3    3    0    0  0.16387560540E+01  0.31361600640E+02 -0.10705323401E+02  0.33178900904E+02  0.00000000000E+00 0. -1.
         11    1    3    3    0    0 -0.32591263379E+02 -0.47671577996E+02 -0.96036711728E+02  0.11206167854E+03  0.00000000000E+00 0.  1.
        -11    1    4    4    0    0 -0.28456768575E+02 -0.78622662278E+00 -0.10297270999E+03  0.10683531641E+03  0.00000000000E+00 0.  1.
         11    1    4    4    0    0  0.63517983021E+02 -0.44525760747E+01 -0.37921479970E+03  0.38452337239E+03  0.00000000000E+00 0. -1.
         21    1    1    2  502  501 -0.41087071212E+01  0.21548780054E+02 -0.11517314612E+02  0.24776600491E+02  0.00000000000E+00 0.  1.
<scales pt_clust_5="13000.00000" pt_clust_6="13000.00000" pt_clust_7="13000.00000" pt_clust_8="13000.00000" pt_clust_9="21.93699"></scales>
<clustering>
<clus scale="   21.937">  1  9  2 -1</clus>
<clus scale="   87.589">  7  8 -1 -1</clus>
<clus scale="   92.070">  5  6 -1 -1</clus>
<clus scale="   94.061">  2  7  1 -1</clus>
<clus scale="   94.061">  2  5  1 -1</clus>
</clustering>
</event>
<event>
 9    1  0.1266593E-005  0.9910147E+02  0.7546771E-02  0.1285140E+00
          1   -1    0    0  502    0  0.00000000000E+00  0.00000000000E+00  0.34023968360E+03  0.34023968360E+03  0.00000000000E+00 0. -1.
         -1   -1    0    0    0  501 -0.00000000000E+00 -0.00000000000E+00 -0.42060267669E+02  0.42060267669E+02  0.00000000000E+00 0.  1.
         23    2    1    2    0    0  0.28430972386E+02  0.34460061684E+01  0.10125761273E+03  0.13699930781E+03  0.87724062014E+02 0.  0.
         23    2    1    2    0    0 -0.58547279439E+02  0.94746358952E+01  0.18444780741E+03  0.21023591028E+03  0.81612447929E+02 0.  0.
        -11    1    3    3    0    0  0.68363780581E+00 -0.40175979667E+02  0.50656431206E+02  0.64657951756E+02  0.00000000000E+00 0.  1.
         11    1    3    3    0    0  0.27747334580E+02  0.43621985835E+02  0.50601181524E+02  0.72341356057E+02  0.00000000000E+00 0. -1.
        -13    1    4    4    0    0 -0.32356202050E+02  0.11861859932E+02  0.18035711032E+03  0.18362002825E+03  0.00000000000E+00 0. -1.
         13    1    4    4    0    0 -0.26191077389E+02 -0.23872240370E+01  0.40906970909E+01  0.26615882027E+02  0.00000000000E+00 0.  1.
         21    1    1    2  502  501  0.30116307053E+02 -0.12920642064E+02  0.12473995793E+02  0.35064733179E+02  0.00000000000E+00 0. -1.
<scales pt_clust_5="13000.00000" pt_clust_6="13000.00000" pt_clust_7="13000.00000" pt_clust_8="13000.00000" pt_clust_9="32.77095"></scales>
<clustering>
<clus scale="   32.771">  2  9  1 -1</clus>
<clus scale="   81.612">  7  8 -1 -1</clus>
<clus scale="   87.724">  5  6 -1 -1</clus>
<clus scale="   93.735">  1  7  2 -1</clus>
<clus scale="   93.735">  1  5  2 -1</clus>
</clustering>
</event>
<event>
 9    1  0.1266593E-005  0.1051468E+03  0.7546771E-02  0.1272130E+00
          1   -1    0    0  502    0  0.00000000000E+00  0.00000000000E+00  0.17497563699E+03  0.17497563699E+03  0.00000000000E+00 0. -1.
         -1   -1    0    0    0  501 -0.00000000000E+00 -0.00000000000E+00 -0.99346699084E+02  0.99346699084E+02  0.00000000000E+00 0.  1.
         23    2    1    2    0    0 -0.81199193168E+01 -0.48916455380E+02  0.28871259430E+02  0.10467356185E+03  0.87545715100E+02 0.  0.
         23    2    1    2    0    0 -0.19224445575E+02  0.48922994437E+02  0.74989080141E+02  0.13034576704E+03  0.92755690670E+02 0.  0.
        -11    1    3    3    0    0 -0.20404261013E+02  0.20909462693E+02  0.13225323422E+02  0.32069435249E+02  0.00000000000E+00 0.  1.
         11    1    3    3    0    0  0.12284341696E+02 -0.69825918073E+02  0.15645936008E+02  0.72604126599E+02  0.00000000000E+00 0. -1.
        -13    1    4    4    0    0  0.41535555515E+01  0.61809791875E+02  0.13629340190E+02  0.63430759962E+02  0.00000000000E+00 0.  1.
         13    1    4    4    0    0 -0.23378001127E+02 -0.12886797438E+02  0.61359739951E+02  0.66915007074E+02  0.00000000000E+00 0. -1.
         21    1    1    2  502  501  0.27344364892E+02 -0.65390565009E-02 -0.28231401666E+02  0.39303007189E+02  0.00000000000E+00 0. -1.
<scales pt_clust_5="13000.00000" pt_clust_6="13000.00000" pt_clust_7="13000.00000" pt_clust_8="13000.00000" pt_clust_9="27.34437"></scales>
<clustering>
<clus scale="   27.344">  2  9  1 -1</clus>
<clus scale="   87.546">  5  6 -1 -1</clus>
<clus scale="   92.756">  7  8 -1 -1</clus>
<clus scale="  100.581">  2  5  1 -1</clus>
<clus scale="  105.147">  1  5  2 -1</clus>
</clustering>
</event>
<event>
 9    1  0.1266593E-005  0.1148539E+03  0.7546771E-02  0.1252307E+00
          3   -1    0    0  502    0  0.00000000000E+00  0.00000000000E+00  0.44994192101E+02  0.44994192101E+02  0.00000000000E+00 0. -1.
         -3   -1    0    0    0  501 -0.00000000000E+00 -0.00000000000E+00 -0.44025930462E+03  0.44025930462E+03  0.00000000000E+00 0.  1.
         23    2    1    2    0    0  0.57188826395E+02  0.13802773373E+02 -0.19304018021E+03  0.22131372627E+03  0.90852494971E+02 0.  0.
         23    2    1    2    0    0 -0.74790054844E+02  0.14435528658E+01 -0.89084355420E+02  0.14842767652E+03  0.92190653685E+02 0.  0.
        -13    1    3    3    0    0 -0.14839510937E+02  0.30428543207E+02 -0.70414655373E+02  0.78130218340E+02  0.00000000000E+00 0.  1.
         13    1    3    3    0    0  0.72028337332E+02 -0.16625769834E+02 -0.12262552484E+03  0.14318350793E+03  0.00000000000E+00 0. -1.
        -13    1    4    4    0    0 -0.94573631601E+02 -0.99802827102E+01 -0.64744455988E+02  0.11504617516E+03  0.00000000000E+00 0.  1.
         13    1    4    4    0    0  0.19783576757E+02  0.11423835576E+02 -0.24339899432E+02  0.33381501358E+02  0.00000000000E+00 0. -1.
         21    1    1    2  502  501  0.17601228449E+02 -0.15246326239E+02 -0.11314057689E+03  0.11551209394E+03  0.00000000000E+00 0.  1.
<scales pt_clust_5="13000.00000" pt_clust_6="13000.00000" pt_clust_7="13000.00000" pt_clust_8="13000.00000" pt_clust_9="23.28634"></scales>
<clustering>
<clus scale="   23.286">  2  9  1 -1</clus>
<clus scale="   90.852">  5  6 -1 -1</clus>
<clus scale="   92.191">  7  8 -1 -1</clus>
<clus scale="  113.783">  2  5  1 -1</clus>
<clus scale="  114.854">  1  5  2 -1</clus>
</clustering>
</event>
<event>
 9    1  0.1395766E-005  0.1111717E+03  0.7546771E-02  0.1258753E+00
          2   -1    0    0  502    0  0.00000000000E+00  0.00000000000E+00  0.29262192244E+03  0.29262192244E+03  0.00000000000E+00 0. -1.
         -2   -1    0    0    0  501 -0.00000000000E+00 -0.00000000000E+00 -0.95239441322E+02  0.95239441322E+02  0.00000000000E+00 0.  1.
         23    2    1    2    0    0  0.10486981094E+02  0.70786877115E+02 -0.25268251391E+02  0.11799002010E+03  0.90346010262E+02 0.  0.
         23    2    1    2    0    0 -0.30017896861E+02 -0.55041420603E+02  0.21779678743E+03  0.24431871456E+03  0.91244515214E+02 0.  0.
        -11    1    3    3    0    0  0.45369333407E+02  0.62321771173E+02 -0.27944536873E+02  0.81995589619E+02  0.00000000000E+00 0.  1.
         11    1    3    3    0    0 -0.34882352313E+02  0.84651059416E+01  0.26762854819E+01  0.35994430479E+02  0.00000000000E+00 0. -1.
        -13    1    4    4    0    0  0.17176432522E+02 -0.53421309158E+02  0.73376228951E+02  0.92373898269E+02  0.00000000000E+00 0.  1.
         13    1    4    4    0    0 -0.47194329383E+02 -0.16201114447E+01  0.14442055847E+03  0.15194481629E+03  0.00000000000E+00 0. -1.
         21    1    1    2  502  501  0.19530915767E+02 -0.15745456512E+02  0.48539450859E+01  0.25552629109E+02  0.00000000000E+00 0.  1.
<scales pt_clust_5="13000.00000" pt_clust_6="13000.00000" pt_clust_7="13000.00000" pt_clust_8="13000.00000" pt_clust_9="25.08737"></scales>
<clustering>
<clus scale="   25.087">  2  9  1 -1</clus>
<clus scale="   90.346">  5  6 -1 -1</clus>
<clus scale="   91.245">  7  8 -1 -1</clus>
<clus scale="  110.435">  2  5  1 -1</clus>
<clus scale="  111.172">  1  5  2 -1</clus>
</clustering>
</event>
<event>
 9    1  0.1266593E-005  0.1069222E+03  0.7546771E-02  0.1266459E+00
          1   -1    0    0  502    0  0.00000000000E+00  0.00000000000E+00  0.43718110472E+03  0.43718110472E+03  0.00000000000E+00 0. -1.
         -1   -1    0    0    0  501 -0.00000000000E+00 -0.00000000000E+00 -0.46156257328E+02  0.46156257328E+02  0.00000000000E+00 0.  1.
         23    2    1    2    0    0  0.15837210200E+02 -0.34825344794E+02  0.98313773647E+02  0.13928298837E+03  0.90942459242E+02 0.  0.
         23    2    1    2    0    0  0.71548036060E+01  0.67794142939E+02  0.27962941941E+03  0.30178495175E+03  0.90743087206E+02 0.  0.
        -13    1    3    3    0    0  0.62433478678E+01 -0.55156871547E+02  0.21971423670E+02  0.59699274113E+02  0.00000000000E+00 0.  1.
         13    1    3    3    0    0  0.95938623322E+01  0.20331526753E+02  0.76342349977E+02  0.79583714255E+02  0.00000000000E+00 0. -1.
        -13    1    4    4    0    0  0.46607208533E+02  0.19878242596E+02  0.10852565308E+03  0.11977142310E+03  0.00000000000E+00 0.  1.
         13    1    4    4    0    0 -0.39452404927E+02  0.47915900342E+02  0.17110376633E+03  0.18201352865E+03  0.00000000000E+00 0. -1.
         21    1    1    2  502  501 -0.22992013806E+02 -0.32968798145E+02  0.13081654341E+02  0.42269421929E+02  0.00000000000E+00 0.  1.
<scales pt_clust_5="13000.00000" pt_clust_6="13000.00000" pt_clust_7="13000.00000" pt_clust_8="13000.00000" pt_clust_9="40.19421"></scales>
<clustering>
<clus scale="   40.194">  2  9  1 -1</clus>
<clus scale="   90.743">  7  8 -1 -1</clus>
<clus scale="   90.942">  5  6 -1 -1</clus>
<clus scale="  106.753">  1  7  2 -1</clus>
<clus scale="  106.753">  1  5  2 -1</clus>
</clustering>
</event>
<event>
 9    1  0.1266593E-005  0.1203435E+03  0.7546771E-02  0.1242726E+00
          2   -1    0    0  502    0  0.00000000000E+00  0.00000000000E+00  0.88769196013E+03  0.88769196013E+03  0.00000000000E+00 0. -1.
         -2   -1    0    0    0  501 -0.00000000000E+00 -0.00000000000E+00 -0.37821505108E+02  0.37821505108E+02  0.00000000000E+00 0.  1.
         23    2    1    2    0    0 -0.50940933043E+02  0.54679286797E+02  0.14043648982E+03  0.18391941018E+03  0.92299180410E+02 0.  0.
         23    2    1    2    0    0  0.66995021825E+02 -0.40619380843E+02  0.71007565362E+03  0.72024396170E+03  0.91682405336E+02 0.  0.
        -11    1    3    3    0    0 -0.54362531773E+02 -0.86473976755E+01  0.71741011000E+02  0.90425853641E+02  0.00000000000E+00 0.  1.
         11    1    3    3    0    0  0.34215987302E+01  0.63326684472E+02  0.68695478820E+02  0.93493556540E+02  0.00000000000E+00 0. -1.
        -13    1    4    4    0    0  0.36114454364E+02  0.27756219958E+02  0.27527402476E+03  0.27901693545E+03  0.00000000000E+00 0. -1.
         13    1    4    4    0    0  0.30880567461E+02 -0.68375600802E+02  0.43480162887E+03  0.44122702626E+03  0.00000000000E+00 0.  1.
         21    1    1    2  502  501 -0.16054088782E+02 -0.14059905954E+02 -0.64168842760E+00  0.21350093351E+02  0.00000000000E+00 0. -1.
<scales pt_clust_5="13000.00000" pt_clust_6="13000.00000" pt_clust_7="13000.00000" pt_clust_8="13000.00000" pt_clust_9="21.34045"></scales>
<clustering>
<clus scale="   21.340">  2  9  1 -1</clus>
<clus scale="   91.682">  7  8 -1 -1</clus>
<clus scale="   92.299">  5  6 -1 -1</clus>
<clus scale="  119.871">  1  7  2 -1</clus>
<clus scale="  119.871">  1  5  2 -1</clus>
</clustering>
</event>
<event>
 9    1  0.1266593E-005  0.1470646E+03  0.7546771E-02  0.1204305E+00
          1   -1    0    0  502    0  0.00000000000E+00  0.00000000000E+00  0.78874917627E+03  0.78874917627E+03  0.00000000000E+00 0. -1.
         -1   -1    0    0    0  501 -0.00000000000E+00 -0.00000000000E+00 -0.64911104482E+02  0.64911104482E+02  0.00000000000E+00 0.  1.
         23    2    1    2    0    0  0.56590021434E+02 -0.62335615543E+02  0.52579608592E+02  0.13560443445E+03  0.92389327914E+02 0.  0.
         23    2    1    2    0    0 -0.94677944863E+02  0.75174906460E+02  0.65873390240E+03  0.67595594220E+03  0.91492632593E+02 0.  0.
        -11    1    3    3    0    0  0.47297935624E+02 -0.84100356466E+02  0.56202731209E+02  0.11166338553E+03  0.00000000000E+00 0. -1.
         11    1    3    3    0    0  0.92920858104E+01  0.21764740923E+02 -0.36231226163E+01  0.23941048925E+02  0.00000000000E+00 0.  1.
        -11    1    4    4    0    0  0.60639924313E+01  0.23241607605E+02  0.37967320091E+02  0.44927293744E+02  0.00000000000E+00 0. -1.
         11    1    4    4    0    0 -0.10074193729E+03  0.51933298855E+02  0.62076658231E+03  0.63102864845E+03  0.00000000000E+00 0.  1.
         21    1    1    2  502  501  0.38087923429E+02 -0.12839290917E+02  0.12524560799E+02  0.42099904104E+02  0.00000000000E+00 0. -1.
<scales pt_clust_5="13000.00000" pt_clust_6="13000.00000" pt_clust_7="13000.00000" pt_clust_8="13000.00000" pt_clust_9="40.19375"></scales>
<clustering>
<clus scale="   40.194">  2  9  1 -1</clus>
<clus scale="   91.493">  7  8 -1 -1</clus>
<clus scale="   92.389">  5  6 -1 -1</clus>
<clus scale="  146.503">  1  7  2 -1</clus>
<clus scale="  146.503">  1  5  2 -1</clus>
</clustering>
</event>
<event>
 9    1  0.1266593E-005  0.1361274E+03  0.7546771E-02  0.1218808E+00
         -3   -1    0    0    0  501 -0.00000000000E+00  0.00000000000E+00  0.10912158173E+03  0.10912158173E+03  0.00000000000E+00 0.  1.
          3   -1    0    0  502    0  0.00000000000E+00 -0.00000000000E+00 -0.21153924485E+03  0.21153924485E+03  0.00000000000E+00 0. -1.
         23    2    1    2    0    0  0.70896125584E+02 -0.67952864299E+02 -0.24476473812E+02  0.13614773090E+03  0.91067307358E+02 0.  0.
         23    2    1    2    0    0 -0.92102405767E+02  0.51387417519E+02 -0.59879098374E+02  0.15210384584E+03  0.91796261747E+02 0.  0.
        -11    1    3    3    0    0  0.19974272092E+02 -0.64446506016E+02 -0.45035533629E+02  0.81120422660E+02  0.00000000000E+00 0. -1.
         11    1    3    3    0    0  0.50921853492E+02 -0.35063582826E+01  0.20559059817E+02  0.55027308239E+02  0.00000000000E+00 0.  1.
        -13    1    4    4    0    0 -0.57614856231E+02  0.24747037311E+02 -0.82003903426E+02  0.10323045913E+03  0.00000000000E+00 0. -1.
         13    1    4    4    0    0 -0.34487549536E+02  0.26640380208E+02  0.22124805052E+02  0.48873386717E+02  0.00000000000E+00 0.  1.
         21    1    1    2  502  501  0.21206280183E+02  0.16565446780E+02 -0.18062090937E+02  0.32409249841E+02  0.00000000000E+00 0. -1.
<scales pt_clust_5="13000.00000" pt_clust_6="13000.00000" pt_clust_7="13000.00000" pt_clust_8="13000.00000" pt_clust_9="26.90948"></scales>
<clustering>
<clus scale="   26.909">  2  9  1 -1</clus>
<clus scale="   91.067">  5  6 -1 -1</clus>
<clus scale="   91.796">  7  8 -1 -1</clus>
<clus scale="  135.637">  1  5  2 -1</clus>
<clus scale="   26.909">  2  5  1 -1</clus>
</clustering>
</event>
<event>
 9    1  0.1266593E-005  0.1544854E+03  0.7546771E-02  0.1196566E+00
          2   -1    0    0  502    0  0.00000000000E+00  0.00000000000E+00  0.36079503812E+03  0.36079503812E+03  0.00000000000E+00 0. -1.
         -2   -1    0    0    0  501 -0.00000000000E+00 -0.00000000000E+00 -0.11104725425E+03  0.11104725425E+03  0.00000000000E+00 0.  1.
         23    2    1    2    0    0  0.96238225569E+02 -0.50690080232E+02  0.37613214160E+02  0.14838600856E+03  0.93660948971E+02 0.  0.
         23    2    1    2    0    0 -0.94279516851E+02  0.74888776174E+02  0.23966739640E+03  0.28674838315E+03  0.10142592493E+03 0.  0.
        -13    1    4    4    0    0 -0.29775885055E+02  0.17955454081E+02  0.17681156317E+03  0.18019803144E+03  0.00000000000E+00 0. -1.
         13    1    4    4    0    0 -0.64503631796E+02  0.56933322093E+02  0.62855833223E+02  0.10655035171E+03  0.00000000000E+00 0.  1.
        -13    1    3    3    0    0  0.81573779814E+02  0.89937004928E+01  0.20528675224E+02  0.84596658966E+02  0.00000000000E+00 0. -1.
         13    1    3    3    0    0  0.14664445755E+02 -0.59683780725E+02  0.17084538936E+02  0.63789349594E+02  0.00000000000E+00 0.  1.
         21    1    1    2  502  501 -0.19587087178E+01 -0.24198695942E+02 -0.27532826696E+02  0.36707900661E+02  0.00000000000E+00 0.  1.
<scales pt_clust_5="13000.00000" pt_clust_6="13000.00000" pt_clust_7="13000.00000" pt_clust_8="13000.00000" pt_clust_9="24.27784"></scales>
<clustering>
<clus scale="   24.278">  2  9  1 -1</clus>
<clus scale="   93.661">  7  8 -1 -1</clus>
<clus scale="  101.426">  5  6 -1 -1</clus>
<clus scale="  149.502">  2  7  1 -1</clus>
<clus scale="  154.485">  1  5  2 -1</clus>
</clustering>
</event>
<event>
 9    1  0.1266593E-005  0.1534466E+03  0.7546771E-02  0.1198551E+00
         -2   -1    0    0    0  501 -0.00000000000E+00  0.00000000000E+00  0.44704641601E+03  0.44704641601E+03  0.00000000000E+00 0.  1.
          2   -1    0    0  502    0  0.00000000000E+00 -0.00000000000E+00 -0.78405095775E+02  0.78405095775E+02  0.00000000000E+00 0. -1.
         23    2    1    2    0    0 -0.52595145588E+02 -0.12453338658E+03  0.22061979532E+03  0.27700345615E+03  0.98909084124E+02 0.  0.
         23    2    1    2    0    0  0.45722660727E+02  0.10010034415E+03  0.52847190417E+02  0.14994750458E+03  0.87067720726E+02 0.  0.
        -13    1    3    3    0    0  0.29574558622E+02 -0.38147704512E+02  0.65068661490E+02  0.81017483207E+02  0.00000000000E+00 0. -1.
         13    1    3    3    0    0 -0.82169704210E+02 -0.86385682064E+02  0.15555113383E+03  0.19598597294E+03  0.00000000000E+00 0.  1.
        -13    1    4    4    0    0  0.16246916262E+02  0.10657209463E+03  0.52166625959E+02  0.11976197437E+03  0.00000000000E+00 0.  1.
         13    1    4    4    0    0  0.29475744465E+02 -0.64717504796E+01  0.68056445752E+00  0.30185530209E+02  0.00000000000E+00 0. -1.
         21    1    1    2  502  501  0.68724848617E+01  0.24433042429E+02  0.95174334500E+02  0.98500551055E+02  0.00000000000E+00 0.  1.
<scales pt_clust_5="13000.00000" pt_clust_6="13000.00000" pt_clust_7="13000.00000" pt_clust_8="13000.00000" pt_clust_9="25.38119"></scales>
<clustering>
<clus scale="   25.381">  1  9  2 -1</clus>
<clus scale="   87.068">  7  8 -1 -1</clus>
<clus scale="   98.909">  5  6 -1 -1</clus>
<clus scale="  146.095">  2  7  1 -1</clus>
<clus scale="  146.095">  2  5  1 -1</clus>
</clustering>
</event>
<event>
 9    1  0.1266593E-005  0.1015705E+03  0.7546771E-02  0.1278378E+00
         -2   -1    0    0    0  501 -0.00000000000E+00  0.00000000000E+00  0.33348938531E+02  0.33348938531E+02  0.00000000000E+00 0.  1.
          2   -1    0    0  502    0  0.00000000000E+00 -0.00000000000E+00 -0.61499071879E+03  0.61499071879E+03  0.00000000000E+00 0. -1.
         23    2    1    2    0    0 -0.22702173096E+02 -0.40205187781E+02 -0.26330605378E+03  0.28318362728E+03  0.93440050366E+02 0.  0.
         23    2    1    2    0    0 -0.78402085347E+01  0.38912046597E+02 -0.31959765888E+03  0.33456024989E+03  0.90621636524E+02 0.  0.
        -11    1    4    4    0    0  0.15314652352E+02 -0.24236654159E+02 -0.61691473521E+02  0.68027875806E+02  0.00000000000E+00 0.  1.
         11    1    4    4    0    0 -0.23154860887E+02  0.63148700756E+02 -0.25790618536E+03  0.26653237409E+03  0.00000000000E+00 0. -1.
        -11    1    3    3    0    0  0.19158345385E+02  0.18148718414E+02 -0.34904623766E+02  0.43757867158E+02  0.00000000000E+00 0.  1.
         11    1    3    3    0    0 -0.41860518481E+02 -0.58353906195E+02 -0.22840143002E+03  0.23942576012E+03  0.00000000000E+00 0. -1.
         21    1    1    2  502  501  0.30542381631E+02  0.12931411843E+01  0.12619324009E+01  0.30595780153E+02  0.00000000000E+00 0.  1.
<scales pt_clust_5="13000.00000" pt_clust_6="13000.00000" pt_clust_7="13000.00000" pt_clust_8="13000.00000" pt_clust_9="30.56974"></scales>
<clustering>
<clus scale="   30.570">  1  9  2 -1</clus>
<clus scale="   90.622">  5  6 -1 -1</clus>
<clus scale="   93.440">  7  8 -1 -1</clus>
<clus scale="   98.984">  2  5  1 -1</clus>
<clus scale="   98.984">  2  5  1 -1</clus>
</clustering>
</event>
<event>
 9    1  0.1266593E-005  0.1105940E+03  0.7546771E-02  0.1259879E+00
          2   -1    0    0  502    0  0.00000000000E+00  0.00000000000E+00  0.60294999595E+02  0.60294999595E+02  0.00000000000E+00 0. -1.
         -2   -1    0    0    0  501 -0.00000000000E+00 -0.00000000000E+00 -0.37012803274E+03  0.37012803274E+03  0.00000000000E+00 0.  1.
         23    2    1    2    0    0 -0.41744727480E+02 -0.70515041053E+02 -0.12498691165E+03  0.17573276939E+03  0.92440710010E+02 0.  0.
         23    2    1    2    0    0  0.85580647415E+01  0.49583349673E+02 -0.52774884312E+02  0.11691398785E+03  0.91388965987E+02 0.  0.
        -11    1    4    4    0    0 -0.19572258442E+02  0.58676718788E+02 -0.67636581385E+01  0.62223610468E+02  0.00000000000E+00 0.  1.
         11    1    4    4    0    0  0.28130323184E+02 -0.90933691148E+01 -0.46011226174E+02  0.54690377383E+02  0.00000000000E+00 0. -1.
        -13    1    3    3    0    0  0.10043203157E+02 -0.48036954113E+02 -0.13711496683E+02  0.50955078563E+02  0.00000000000E+00 0. -1.
         13    1    3    3    0    0 -0.51787930638E+02 -0.22478086940E+02 -0.11127541497E+03  0.12477769083E+03  0.00000000000E+00 0.  1.
         21    1    1    2  502  501  0.33186662739E+02  0.20931691380E+02 -0.13207123718E+03  0.13777627509E+03  0.00000000000E+00 0. -1.
<scales pt_clust_5="13000.00000" pt_clust_6="13000.00000" pt_clust_7="13000.00000" pt_clust_8="13000.00000" pt_clust_9="39.23634"></scales>
<clustering>
<clus scale="   39.236">  2  9  1 -1</clus>
<clus scale="   91.389">  5  6 -1 -1</clus>
<clus scale="   92.441">  7  8 -1 -1</clus>
<clus scale="  109.716">  1  5  2 -1</clus>
<clus scale="  109.716">  1  5  2 -1</clus>
</clustering>
</event>
<event>
 9    1  0.1266593E-005  0.9881006E+02  0.7546771E-02  0.1283056E+00
         -1   -1    0    0    0  501 -0.00000000000E+00  0.00000000000E+00  0.13820187885E+03  0.13820187885E+03  0.00000000000E+00 0.  1.
          1   -1    0    0  502    0  0.00000000000E+00 -0.00000000000E+00 -0.36111296842E+03  0.36111296842E+03  0.00000000000E+00 0. -1.
         23    2    1    2    0    0  0.24226517117E+02  0.20424337819E+02  0.79876455779E+02  0.12505004032E+03  0.90847051072E+02 0.  0.
         23    2    1    2    0    0 -0.38299068769E+02 -0.41083125610E+01 -0.32709469523E+03  0.34178270534E+03  0.91327877008E+02 0.  0.
        -11    1    4    4    0    0  0.19307408820E+02 -0.14176757974E+02 -0.27218042116E+02  0.36257114041E+02  0.00000000000E+00 0.  1.
         11    1    4    4    0    0 -0.57606477589E+02  0.10068445413E+02 -0.29987665312E+03  0.30552559130E+03  0.00000000000E+00 0. -1.
        -13    1    3    3    0    0  0.10452167762E+02 -0.27128616029E+02 -0.22457498092E+01  0.29159098250E+02  0.00000000000E+00 0. -1.
         13    1    3    3    0    0  0.13774349355E+02  0.47552953847E+02  0.82122205589E+02  0.95890942067E+02  0.00000000000E+00 0.  1.
         21    1    1    2  502  501  0.14072551652E+02 -0.16316025258E+02  0.24307149884E+02  0.32482101621E+02  0.00000000000E+00 0.  1.
<scales pt_clust_5="13000.00000" pt_clust_6="13000.00000" pt_clust_7="13000.00000" pt_clust_8="13000.00000" pt_clust_9="21.54645"></scales>
<clustering>
<clus scale="   21.546">  1  9  2 -1</clus>
<clus scale="   90.847">  7  8 -1 -1</clus>
<clus scale="   91.328">  5  6 -1 -1</clus>
<clus scale="   98.366">  1  7  2 -1</clus>
<clus scale="   98.810">  2  5  1 -1</clus>
</clustering>
</event>
<event>
 9    1  0.1266593E-005  0.2786237E+03  0.7546771E-02  0.1097020E+00
          1   -1    0    0  502    0  0.00000000000E+00  0.00000000000E+00  0.60085673194E+03  0.60085673194E+03  0.00000000000E+00 0. -1.
         -1   -1    0    0    0  501 -0.00000000000E+00 -0.00000000000E+00 -0.16914576707E+03  0.16914576707E+03  0.00000000000E+00 0.  1.
         23    2    1    2    0    0 -0.14332107862E+03  0.23084297902E+03  0.18878784015E+03  0.34703214493E+03  0.10469502609E+03 0.  0.
         23    2    1    2    0    0  0.96051784281E+02 -0.23083469767E+03  0.26018970910E+03  0.37264619297E+03  0.93037075972E+02 0.  0.
        -11    1    4    4    0    0  0.61846634802E+02 -0.52390472466E+02  0.51900970906E+02  0.96246966822E+02  0.00000000000E+00 0. -1.
         11    1    4    4    0    0  0.34205149479E+02 -0.17844422520E+03  0.20828873819E+03  0.27639922615E+03  0.00000000000E+00 0.  1.
        -13    1    3    3    0    0 -0.11968322008E+03  0.22179064859E+03  0.19757757410E+03  0.32023750992E+03  0.00000000000E+00 0. -1.
         13    1    3    3    0    0 -0.23637858537E+02  0.90523304209E+01 -0.87897339502E+01  0.26794635007E+02  0.00000000000E+00 0.  1.
         21    1    1    2  502  501  0.47269294339E+02 -0.82813484376E-02 -0.17266584375E+02  0.50324161115E+02  0.00000000000E+00 0.  1.
<scales pt_clust_5="13000.00000" pt_clust_6="13000.00000" pt_clust_7="13000.00000" pt_clust_8="13000.00000" pt_clust_9="47.26930"></scales>
<clustering>
<clus scale="   47.269">  2  9  1 -1</clus>
<clus scale="   93.037">  5  6 -1 -1</clus>
<clus scale="  104.695">  7  8 -1 -1</clus>
<clus scale="  274.456">  1  5  2 -1</clus>
<clus scale="  274.456">  1  5  2 -1</clus>
</clustering>
</event>
<event>
 9    1  0.1266593E-005  0.1711990E+03  0.7546771E-02  0.1204067E+00
          1   -1    0    0  502    0  0.00000000000E+00  0.00000000000E+00  0.13004609300E+04  0.13004609300E+04  0.00000000000E+00 0. -1.
         -1   -1    0    0    0  501 -0.00000000000E+00 -0.00000000000E+00 -0.50080998808E+02  0.50080998808E+02  0.00000000000E+00 0.  1.
         23    2    1    2    0    0  0.23660564582E+02 -0.16917057761E+01  0.76864976390E+02  0.12091971713E+03  0.90281056764E+02 0.  0.
         23    2    1    2    0    0  0.52714796408E+02  0.13270868497E+03  0.90959063677E+03  0.92522988219E+03  0.91130475515E+02 0.  0.
        -11    1    4    4    0    0  0.44569108641E+02  0.12398497793E+02  0.18640213881E+03  0.19205698515E+03  0.00000000000E+00 0.  1.
         11    1    4    4    0    0  0.81456877672E+01  0.12031018717E+03  0.72318849796E+03  0.73317289703E+03  0.00000000000E+00 0. -1.
        -11    1    3    3    0    0 -0.17386954989E+01 -0.30778042197E+02 -0.42148816353E+01  0.31113922458E+02  0.00000000000E+00 0.  1.
         11    1    3    3    0    0  0.25399260081E+02  0.29086336421E+02  0.81079858026E+02  0.89805794671E+02  0.00000000000E+00 0. -1.
         21    1    1    2  502  501 -0.76375360990E+02 -0.13101697919E+03  0.26392431801E+03  0.30439232946E+03  0.00000000000E+00 0.  1.
<scales pt_clust_5="13000.00000" pt_clust_6="13000.00000" pt_clust_7="13000.00000" pt_clust_8="13000.00000" pt_clust_9="144.92869"></scales>
<clustering>
<clus scale="   90.281">  7  8 -1 -1</clus>
<clus scale="   91.130">  5  6 -1 -1</clus>
<clus scale="   93.345">  2  7  1 -1</clus>
<clus scale="  144.929">  2  9  1 -1</clus>
<clus scale="  171.199">  1  5  2 -1</clus>
</clustering>
</event>
<event>
 9    1  0.1266593E-005  0.9833673E+02  0.7546771E-02  0.1284400E+00
         -4   -1    0    0    0  501 -0.00000000000E+00  0.00000000000E+00  0.17619932860E+03  0.17619932860E+03  0.00000000000E+00 0.  1.
          4   -1    0    0  502    0  0.00000000000E+00 -0.00000000000E+00 -0.99192399052E+02  0.99192399052E+02  0.00000000000E+00 0. -1.
         23    2    1    2    0    0 -0.26138184584E+02  0.13696607297E+02  0.43234943610E+02  0.10630319166E+03  0.92521924229E+02 0.  0.
         23    2    1    2    0    0  0.36888379296E+02  0.70212474206E+01 -0.28284506583E+02  0.10278767284E+03  0.91407012497E+02 0.  0.
        -11    1    3    3    0    0  0.11514223204E+01 -0.22416646348E+02 -0.18958832692E+02  0.29381442169E+02  0.00000000000E+00 0.  1.
         11    1    3    3    0    0 -0.27289606904E+02  0.36113253645E+02  0.62193776302E+02  0.76921749490E+02  0.00000000000E+00 0. -1.
        -13    1    4    4    0    0  0.49919275643E+02  0.30328535738E+02  0.66820065451E+01  0.58791184477E+02  0.00000000000E+00 0. -1.
         13    1    4    4    0    0 -0.13030896347E+02 -0.23307288317E+02 -0.34966513129E+02  0.43996488368E+02  0.00000000000E+00 0.  1.
         21    1    1    2  502  501 -0.10750194712E+02 -0.20717854717E+02  0.62056492522E+02  0.66300863152E+02  0.00000000000E+00 0.  1.
<scales pt_clust_5="13000.00000" pt_clust_6="13000.00000" pt_clust_7="13000.00000" pt_clust_8="13000.00000" pt_clust_9="23.34087"></scales>
<clustering>
<clus scale="   23.341">  1  9  2 -1</clus>
<clus scale="   91.407">  7  8 -1 -1</clus>
<clus scale="   92.522">  5  6 -1 -1</clus>
<clus scale="   97.288">  2  7  1 -1</clus>
<clus scale="   97.288">  2  5  1 -1</clus>
</clustering>
</event>
<event>
 9    1  0.1266593E-005  0.9867888E+02  0.7546771E-02  0.1283454E+00
          1   -1    0    0  502    0  0.00000000000E+00  0.00000000000E+00  0.22067448780E+03  0.22067448780E+03  0.00000000000E+00 0. -1.
         -1   -1    0    0    0  501 -0.00000000000E+00 -0.00000000000E+00 -0.63920560658E+02  0.63920560658E+02  0.00000000000E+00 0.  1.
         23    2    1    2    0    0 -0.92329445787E+00  0.40099704684E+02  0.37556806951E+02  0.10625537424E+03  0.90944224762E+02 0.  0.
         23    2    1    2    0    0 -0.29538453940E+02 -0.31347279343E+02  0.80777408330E+02  0.12853407891E+03  0.90226645516E+02 0.  0.
        -11    1    3    3    0    0  0.29640092372E+02  0.57135531577E+02  0.25763743047E+02  0.69330905809E+02  0.00000000000E+00 0.  1.
         11    1    3    3    0    0 -0.30563386830E+02 -0.17035826894E+02  0.11793063904E+02  0.36924468429E+02  0.00000000000E+00 0. -1.
        -13    1    4    4    0    0 -0.34917140402E+02  0.19845879183E+02  0.61735256396E+02  0.73649898144E+02  0.00000000000E+00 0. -1.
         13    1    4    4    0    0  0.53786864618E+01 -0.51193158526E+02  0.19042151934E+02  0.54884180765E+02  0.00000000000E+00 0.  1.
         21    1    1    2  502  501  0.30461748398E+02 -0.87524253407E+01  0.38419711859E+02  0.49805595310E+02  0.00000000000E+00 0.  1.
<scales pt_clust_5="13000.00000" pt_clust_6="13000.00000" pt_clust_7="13000.00000" pt_clust_8="13000.00000" pt_clust_9="31.69421"></scales>
<clustering>
<clus scale="   31.694">  1  9  2 -1</clus>
<clus scale="   90.227">  7  8 -1 -1</clus>
<clus scale="   90.944">  5  6 -1 -1</clus>
<clus scale="   98.018">  1  7  2 -1</clus>
<clus scale="   31.694">  1  5  2 -1</clus>
</clustering>
</event>
<event>
 9    1  0.1266593E-005  0.1149038E+03  0.7546771E-02  0.1252827E+00
          2   -1    0    0  502    0  0.00000000000E+00  0.00000000000E+00  0.49150075036E+03  0.49150075036E+03  0.00000000000E+00 0. -1.
         -2   -1    0    0    0  501 -0.00000000000E+00 -0.00000000000E+00 -0.32162880408E+02  0.32162880408E+02  0.00000000000E+00 0.  1.
         23    2    1    2    0    0 -0.55290625623E+02  0.30296521130E+02  0.17585404550E+03  0.20781328431E+03  0.91031771075E+02 0.  0.
         23    2    1    2    0    0  0.57059165496E+02 -0.50868057860E+02  0.25771516088E+03  0.28283005149E+03  0.87934215209E+02 0.  0.
        -11    1    3    3    0    0  0.13249033100E+02  0.29745386797E+02  0.21763294752E+02  0.39165876886E+02  0.00000000000E+00 0. -1.
         11    1    3    3    0    0 -0.68539658723E+02  0.55113433316E+00  0.15409075075E+03  0.16864740743E+03  0.00000000000E+00 0.  1.
        -13    1    4    4    0    0 -0.41859934195E+01 -0.33082895555E+02  0.25395594018E+02  0.41915828928E+02  0.00000000000E+00 0.  1.
         13    1    4    4    0    0  0.61245158915E+02 -0.17785162306E+02  0.23231956686E+03  0.24091422257E+03  0.00000000000E+00 0. -1.
         21    1    1    2  502  501 -0.17685398723E+01  0.20571536730E+02  0.25768663576E+02  0.33020294960E+02  0.00000000000E+00 0. -1.
<scales pt_clust_5="13000.00000" pt_clust_6="13000.00000" pt_clust_7="13000.00000" pt_clust_8="13000.00000" pt_clust_9="20.64742"></scales>
<clustering>
<clus scale="   20.647">  2  9  1 -1</clus>
<clus scale="   87.934">  7  8 -1 -1</clus>
<clus scale="   91.032">  5  6 -1 -1</clus>
<clus scale="  112.466">  1  7  2 -1</clus>
<clus scale="  112.466">  1  5  2 -1</clus>
</clustering>
</event>
<event>
 9    1  0.1266593E-005  0.1638679E+03  0.7546771E-02  0.1184711E+00
         -1   -1    0    0    0  501 -0.00000000000E+00  0.00000000000E+00  0.12637740723E+03  0.12637740723E+03  0.00000000000E+00 0.  1.
          1   -1    0    0  502    0  0.00000000000E+00 -0.00000000000E+00 -0.34133935097E+03  0.34133935097E+03  0.00000000000E+00 0. -1.
         23    2    1    2    0    0  0.14956568007E+03 -0.12540867851E+02 -0.95602724027E+02  0.19859919813E+03  0.88173661803E+02 0.  0.
         23    2    1    2    0    0 -0.12530576065E+03  0.30394515128E+02 -0.15605503470E+03  0.22164252190E+03  0.90260032448E+02 0.  0.
        -11    1    3    3    0    0  0.14757964983E+03  0.11218901277E+02 -0.92555322963E+02  0.17456260939E+03  0.00000000000E+00 0. -1.
         11    1    3    3    0    0  0.19860302469E+01 -0.23759769128E+02 -0.30474010647E+01  0.24036588743E+02  0.00000000000E+00 0.  1.
        -13    1    4    4    0    0 -0.19617285692E+02 -0.72054022138E+01 -0.87973405547E+02  0.90421655606E+02  0.00000000000E+00 0. -1.
         13    1    4    4    0    0 -0.10568847496E+03  0.37599917342E+02 -0.68081629150E+02  0.13122086629E+03  0.00000000000E+00 0.  1.
         21    1    1    2  502  501 -0.24259919426E+02 -0.17853647277E+02  0.36695814989E+02  0.47475038172E+02  0.00000000000E+00 0.  1.
<scales pt_clust_5="13000.00000" pt_clust_6="13000.00000" pt_clust_7="13000.00000" pt_clust_8="13000.00000" pt_clust_9="30.12136"></scales>
<clustering>
<clus scale="   30.121">  1  9  2 -1</clus>
<clus scale="   88.174">  5  6 -1 -1</clus>
<clus scale="   90.260">  7  8 -1 -1</clus>
<clus scale="  162.728">  1  5  2 -1</clus>
<clus scale="  163.868">  2  5  1 -1</clus>
</clustering>
</event>
<event>
 9    1  0.1266593E-005  0.1183640E+03  0.7546771E-02  0.1249866E+00
          1   -1    0    0  502    0  0.00000000000E+00  0.00000000000E+00  0.39450667230E+03  0.39450667230E+03  0.00000000000E+00 0. -1.
         -1   -1    0    0    0  501 -0.00000000000E+00 -0.00000000000E+00 -0.81660970326E+02  0.81660970326E+02  0.00000000000E+00 0.  1.
         23    2    1    2    0    0  0.73610692454E+02 -0.23017550860E+02  0.17544815591E+01  0.12832459781E+03  0.10254648949E+03 0.  0.
         23    2    1    2    0    0 -0.56823529488E+02  0.56597492921E+00  0.29792796040E+03  0.31687284113E+03  0.91750171799E+02 0.  0.
        -11    1    4    4    0    0  0.19239610621E+02 -0.21272324679E+02  0.85551282943E+02  0.90231349471E+02  0.00000000000E+00 0.  1.
         11    1    4    4    0    0 -0.76063140109E+02  0.21838299608E+02  0.21237667746E+03  0.22664149166E+03  0.00000000000E+00 0. -1.
        -11    1    3    3    0    0 -0.10400913292E+01  0.33968390284E+02 -0.40778371387E+01  0.34228089111E+02  0.00000000000E+00 0. -1.
         11    1    3    3    0    0  0.74650783783E+02 -0.56985941145E+02  0.58323186978E+01  0.94096508697E+02  0.00000000000E+00 0.  1.
         21    1    1    2  502  501 -0.16787162965E+02  0.22451575931E+02  0.13163260011E+02  0.30970203686E+02  0.00000000000E+00 0.  1.
<scales pt_clust_5="13000.00000" pt_clust_6="13000.00000" pt_clust_7="13000.00000" pt_clust_8="13000.00000" pt_clust_9="28.03359"></scales>
<clustering>
<clus scale="   28.034">  2  9  1 -1</clus>
<clus scale="   91.750">  5  6 -1 -1</clus>
<clus scale="  102.546">  7  8 -1 -1</clus>
<clus scale="  109.144">  1  5  2 -1</clus>
<clus scale="  109.144">  1  5  2 -1</clus>
</clustering>
</event>
<event>
 9    1  0.1266593E-005  0.1503350E+03  0.7546771E-02  0.1200240E+00
          1   -1    0    0  502    0  0.00000000000E+00  0.00000000000E+00  0.28483968834E+03  0.28483968834E+03  0.00000000000E+00 0. -1.
         -1   -1    0    0    0  501 -0.00000000000E+00 -0.00000000000E+00 -0.12798295720E+03  0.12798295720E+03  0.00000000000E+00 0.  1.
         23    2    1    2    0    0 -0.10417402844E+03 -0.79911981074E+02  0.10533716588E+03  0.19170838523E+03  0.91749842126E+02 0.  0.
         23    2    1    2    0    0  0.99447547783E+02  0.45811975907E+02  0.90901258331E+02  0.16880682564E+03  0.90797322209E+02 0.  0.
        -13    1    3    3    0    0 -0.73750522127E+02 -0.72382760746E+02  0.26221969532E+02  0.10661142178E+03  0.00000000000E+00 0.  1.
         13    1    3    3    0    0 -0.30423506316E+02 -0.75292203289E+01  0.79115196352E+02  0.85096963454E+02  0.00000000000E+00 0. -1.
        -13    1    4    4    0    0  0.97744358233E+02  0.11478442179E+02  0.91565675591E+02  0.13442465231E+03  0.00000000000E+00 0.  1.
         13    1    4    4    0    0  0.17031895494E+01  0.34333533728E+02 -0.66441725993E+00  0.34382173335E+02  0.00000000000E+00 0. -1.
         21    1    1    2  502  501  0.47264806606E+01  0.34100005167E+02 -0.39381693074E+02  0.52307434665E+02  0.00000000000E+00 0.  1.
<scales pt_clust_5="13000.00000" pt_clust_6="13000.00000" pt_clust_7="13000.00000" pt_clust_8="13000.00000" pt_clust_9="34.42601"></scales>
<clustering>
<clus scale="   34.426">  2  9  1 -1</clus>
<clus scale="   90.797">  7  8 -1 -1</clus>
<clus scale="   91.750">  5  6 -1 -1</clus>
<clus scale="  149.756">  1  7  2 -1</clus>
<clus scale="  149.756">  1  5  2 -1</clus>
</clustering>
</event>
<event>
 9    1  0.1266593E-005  0.1298902E+03  0.7546771E-02  0.1231017E+00
         -2   -1    0    0    0  501 -0.00000000000E+00  0.00000000000E+00  0.35456262363E+02  0.35456262363E+02  0.00000000000E+00 0.  1.
          2   -1    0    0  502    0  0.00000000000E+00 -0.00000000000E+00 -0.70109389360E+03  0.70109389360E+03  0.00000000000E+00 0. -1.
         23    2    1    2    0    0 -0.50916446038E+02  0.38269299523E+02 -0.18175800328E+03  0.21863600492E+03  0.10348288326E+03 0.  0.
         23    2    1    2    0    0  0.56922804619E+02 -0.63815810277E+02 -0.47313372808E+03  0.48955617299E+03  0.92179490848E+02 0.  0.
        -13    1    3    3    0    0 -0.76804507422E+02  0.39221165135E+02 -0.16906067896E+03  0.18978605145E+03  0.00000000000E+00 0.  1.
         13    1    3    3    0    0  0.25888061385E+02 -0.95186561220E+00 -0.12697324322E+02  0.28849953472E+02  0.00000000000E+00 0. -1.
        -13    1    4    4    0    0  0.23391272122E+02 -0.70062795359E+02 -0.41979757322E+03  0.42624634824E+03  0.00000000000E+00 0. -1.
         13    1    4    4    0    0  0.33531532497E+02  0.62469850820E+01 -0.53336154865E+02  0.63309824751E+02  0.00000000000E+00 0.  1.
         21    1    1    2  502  501 -0.60063585810E+01  0.25546510754E+02 -0.10745899869E+02  0.28357978050E+02  0.00000000000E+00 0.  1.
<scales pt_clust_5="13000.00000" pt_clust_6="13000.00000" pt_clust_7="13000.00000" pt_clust_8="13000.00000" pt_clust_9="26.24310"></scales>
<clustering>
<clus scale="   26.243">  1  9  2 -1</clus>
<clus scale="   92.179">  7  8 -1 -1</clus>
<clus scale="  103.483">  5  6 -1 -1</clus>
<clus scale="  121.078">  2  7  1 -1</clus>
<clus scale="  121.078">  2  5  1 -1</clus>
</clustering>
</event>
<event>
 9    1  0.1266593E-005  0.1271016E+03  0.7546771E-02  0.1232769E+00
          2   -1    0    0  502    0  0.00000000000E+00  0.00000000000E+00  0.65276520385E+03  0.65276520385E+03  0.00000000000E+00 0. -1.
         -2   -1    0    0    0  501 -0.00000000000E+00 -0.00000000000E+00 -0.87604712716E+02  0.87604712716E+02  0.00000000000E+00 0.  1.
         23    2    1    2    0    0 -0.33635025048E+02  0.47322541762E+02  0.53082951233E+02  0.12136554433E+03  0.92417843347E+02 0.  0.
         23    2    1    2    0    0  0.28916880718E+02 -0.85139033484E+02  0.54987026918E+03  0.56533279394E+03  0.95702737461E+02 0.  0.
        -11    1    3    3    0    0  0.26166432040E+02  0.25830231480E+02 -0.26202692693E+01  0.36861210440E+02  0.00000000000E+00 0.  1.
         11    1    3    3    0    0 -0.59801457088E+02  0.21492310282E+02  0.55703220502E+02  0.84504333886E+02  0.00000000000E+00 0. -1.
        -13    1    4    4    0    0 -0.31201688041E+02 -0.48432635052E+02  0.31108289971E+03  0.31637293810E+03  0.00000000000E+00 0. -1.
         13    1    4    4    0    0  0.60118568760E+02 -0.36706398432E+02  0.23878736947E+03  0.24895985583E+03  0.00000000000E+00 0.  1.
         21    1    1    2  502  501  0.47181443291E+01  0.37816491721E+02 -0.37792729275E+02  0.53671578308E+02  0.00000000000E+00 0.  1.
<scales pt_clust_5="13000.00000" pt_clust_6="13000.00000" pt_clust_7="13000.00000" pt_clust_8="13000.00000" pt_clust_9="38.10968"></scales>
<clustering>
<clus scale="   38.110">  2  9  1 -1</clus>
<clus scale="   92.418">  5  6 -1 -1</clus>
<clus scale="   95.703">  7  8 -1 -1</clus>
<clus scale="  124.647">  2  5  1 -1</clus>
<clus scale="  127.102">  1  5  2 -1</clus>
</clustering>
</event>
<event>
 9    1  0.1266593E-005  0.2093930E+03  0.7546771E-02  0.1142239E+00
          2   -1    0    0  502    0  0.00000000000E+00  0.00000000000E+00  0.63717032365E+03  0.63717032365E+03  0.00000000000E+00 0. -1.
         -2   -1    0    0    0  501 -0.00000000000E+00 -0.00000000000E+00 -0.16950668144E+03  0.16950668144E+03  0.00000000000E+00 0.  1.
         23    2    1    2    0    0 -0.70601861023E+02  0.19508360423E+03 -0.29486672317E+02  0.22849905612E+03  0.91104991004E+02 0.  0.
         23    2    1    2    0    0 -0.39438919502E+02 -0.14325670955E+03  0.30684916472E+03  0.35232505878E+03  0.88874202963E+02 0.  0.
        -13    1    3    3    0    0 -0.73744603919E+02  0.84026288929E+02 -0.35320337394E+02  0.11724423257E+03  0.00000000000E+00 0.  1.
         13    1    3    3    0    0  0.31427428963E+01  0.11105731530E+03  0.58336650772E+01  0.11125482355E+03  0.00000000000E+00 0. -1.
        -13    1    4    4    0    0 -0.24445056654E+02 -0.30335471614E+02  0.20228125553E+02  0.43897365481E+02  0.00000000000E+00 0.  1.
         13    1    4    4    0    0 -0.14993862848E+02 -0.11292123793E+03  0.28662103917E+03  0.30842769330E+03  0.00000000000E+00 0. -1.
         21    1    1    2  502  501  0.11004078052E+03 -0.51826894681E+02  0.19030114981E+03  0.22585289019E+03  0.00000000000E+00 0.  1.
<scales pt_clust_5="13000.00000" pt_clust_6="13000.00000" pt_clust_7="13000.00000" pt_clust_8="13000.00000" pt_clust_9="121.63470"></scales>
<clustering>
<clus scale="   88.874">  7  8 -1 -1</clus>
<clus scale="   91.105">  5  6 -1 -1</clus>
<clus scale="  121.635">  1  9  2 -1</clus>
<clus scale="  208.432">  1  7  2 -1</clus>
<clus scale="  121.635">  1  5  2 -1</clus>
</clustering>
</event>
<event>
 9    1  0.1266593E-005  0.1113743E+03  0.7546771E-02  0.1258127E+00
         -1   -1    0    0    0  501 -0.00000000000E+00  0.00000000000E+00  0.18332674272E+02  0.18332674272E+02  0.00000000000E+00 0.  1.
          1   -1    0    0  502    0  0.00000000000E+00 -0.00000000000E+00 -0.10776234696E+04  0.10776234696E+04  0.00000000000E+00 0. -1.
         23    2    1    2    0    0 -0.11978094039E+01  0.79336686655E+02 -0.48535361255E+03  0.50017427575E+03  0.91161572586E+02 0.  0.
         23    2    1    2    0    0 -0.46762067221E+01 -0.52940734234E+02 -0.54871073960E+03  0.55880047003E+03  0.91377794398E+02 0.  0.
        -11    1    3    3    0    0 -0.34826121959E+02  0.10548039488E+02 -0.83398590187E+02  0.90991454285E+02  0.00000000000E+00 0.  1.
         11    1    3    3    0    0  0.33628312555E+02  0.68788647168E+02 -0.40195502236E+03  0.40918282147E+03  0.00000000000E+00 0. -1.
        -11    1    4    4    0    0 -0.15710307690E+02 -0.75621561990E+02 -0.46505660207E+03  0.47142664068E+03  0.00000000000E+00 0.  1.
         11    1    4    4    0    0  0.11034100968E+02  0.22680827756E+02 -0.83654137524E+02  0.87373829358E+02  0.00000000000E+00 0. -1.
         21    1    1    2  502  501  0.58740161260E+01 -0.26395952421E+02 -0.25226443225E+02  0.36981398128E+02  0.00000000000E+00 0.  1.
<scales pt_clust_5="13000.00000" pt_clust_6="13000.00000" pt_clust_7="13000.00000" pt_clust_8="13000.00000" pt_clust_9="27.04164"></scales>
<clustering>
<clus scale="   27.042">  1  9  2 -1</clus>
<clus scale="   91.162">  5  6 -1 -1</clus>
<clus scale="   91.378">  7  8 -1 -1</clus>
<clus scale="  111.197">  1  5  2 -1</clus>
<clus scale="  111.374">  2  5  1 -1</clus>
</clustering>
</event>
<event>
 9    1  0.1266593E-005  0.1197999E+03  0.7546771E-02  0.1244075E+00
          1   -1    0    0  502    0  0.00000000000E+00  0.00000000000E+00  0.10944402711E+03  0.10944402711E+03  0.00000000000E+00 0. -1.
         -1   -1    0    0    0  501 -0.00000000000E+00 -0.00000000000E+00 -0.16082550295E+03  0.16082550295E+03  0.00000000000E+00 0.  1.
         23    2    1    2    0    0  0.74183787662E+02  0.30532229459E+02 -0.32404590201E+02  0.12380174457E+03  0.88551471504E+02 0.  0.
         23    2    1    2    0    0 -0.59446773684E+02 -0.51110760081E+02 -0.17691592393E+02  0.12112399962E+03  0.90618994389E+02 0.  0.
        -11    1    4    4    0    0 -0.21632720176E+02 -0.11065071282E+02 -0.51186557275E+02  0.56661045087E+02  0.00000000000E+00 0.  1.
         11    1    4    4    0    0 -0.37814053508E+02 -0.40045688799E+02  0.33494964882E+02  0.64462954528E+02  0.00000000000E+00 0. -1.
        -13    1    3    3    0    0  0.69269657194E+02  0.56838012148E+02 -0.36455613259E+02  0.96736015893E+02  0.00000000000E+00 0.  1.
         13    1    3    3    0    0  0.49141304683E+01 -0.26305782689E+02  0.40510230580E+01  0.27065728680E+02  0.00000000000E+00 0. -1.
         21    1    1    2  502  501 -0.14737013978E+02  0.20578530622E+02 -0.12852932527E+01  0.25343785871E+02  0.00000000000E+00 0.  1.
<scales pt_clust_5="13000.00000" pt_clust_6="13000.00000" pt_clust_7="13000.00000" pt_clust_8="13000.00000" pt_clust_9="25.31117"></scales>
<clustering>
<clus scale="   25.311">  1  9  2 -1</clus>
<clus scale="   88.551">  7  8 -1 -1</clus>
<clus scale="   90.619">  5  6 -1 -1</clus>
<clus scale="  118.244">  2  7  1 -1</clus>
<clus scale="   25.311">  1  5  2 -1</clus>
</clustering>
</event>
<event>
 9    1  0.1266593E-005  0.1884633E+03  0.7546771E-02  0.1162435E+00
          1   -1    0    0  502    0  0.00000000000E+00  0.00000000000E+00  0.14059237418E+04  0.14059237418E+04  0.00000000000E+00 0. -1.
         -1   -1    0    0    0  501 -0.00000000000E+00 -0.00000000000E+00 -0.37041696576E+02  0.37041696576E+02  0.00000000000E+00 0.  1.
         23    2    1    2    0    0 -0.16562964464E+03  0.10228208764E+02  0.73530326607E+03  0.75908634962E+03  0.89461710489E+02 0.  0.
         23    2    1    2    0    0  0.13973490226E+03 -0.12367426940E+02  0.63334855991E+03  0.65789511412E+03  0.10962110511E+03 0.  0.
        -11    1    3    3    0    0 -0.14463055904E+02  0.20388599533E+02  0.37800115217E+02  0.45318028283E+02  0.00000000000E+00 0.  1.
         11    1    3    3    0    0 -0.15116658874E+03 -0.10160390769E+02  0.69750315086E+03  0.71376832134E+03  0.00000000000E+00 0. -1.
        -11    1    4    4    0    0  0.11718302744E+03 -0.54571547483E+02  0.49035389686E+03  0.50710635954E+03  0.00000000000E+00 0.  1.
         11    1    4    4    0    0  0.22551874817E+02  0.42204120543E+02  0.14299466305E+03  0.15078875459E+03  0.00000000000E+00 0. -1.
         21    1    1    2  502  501  0.25894742383E+02  0.21392181760E+01  0.23021925118E+00  0.25983974646E+02  0.00000000000E+00 0.  1.
<scales pt_clust_5="13000.00000" pt_clust_6="13000.00000" pt_clust_7="13000.00000" pt_clust_8="13000.00000" pt_clust_9="25.98295"></scales>
<clustering>
<clus scale="   25.983">  2  9  1 -1</clus>
<clus scale="   89.462">  5  6 -1 -1</clus>
<clus scale="  109.621">  7  8 -1 -1</clus>
<clus scale="  177.497">  2  5  1 -1</clus>
<clus scale="  188.463">  1  5  2 -1</clus>
</clustering>
</event>
<event>
 9    1  0.1266593E-005  0.1092759E+03  0.7546771E-02  0.1274101E+00
         -1   -1    0    0    0  501 -0.00000000000E+00  0.00000000000E+00  0.16355736132E+03  0.16355736132E+03  0.00000000000E+00 0.  1.
          1   -1    0    0  502    0  0.00000000000E+00 -0.00000000000E+00 -0.17756640364E+03  0.17756640364E+03  0.00000000000E+00 0. -1.
         23    2    1    2    0    0  0.60690373006E+02  0.17618868883E+02 -0.66884981053E+02  0.12972213418E+03  0.91435690456E+02 0.  0.
         23    2    1    2    0    0 -0.59087424828E+02  0.87334715436E+01 -0.53734501375E+02  0.10157084626E+03  0.62142118353E+02 0.  0.
        -11    1    4    4    0    0 -0.43831624017E+02  0.34803080382E+02 -0.33872066381E+02  0.65420046996E+02  0.00000000000E+00 0. -1.
         11    1    4    4    0    0 -0.15255800811E+02 -0.26069608838E+02 -0.19862434994E+02  0.36150799262E+02  0.00000000000E+00 0.  1.
        -11    1    3    3    0    0  0.77741555870E+02  0.33451724835E+02 -0.38388212298E+02  0.92932353069E+02  0.00000000000E+00 0. -1.
         11    1    3    3    0    0 -0.17051182864E+02 -0.15832855953E+02 -0.28496768755E+02  0.36789781110E+02  0.00000000000E+00 0.  1.
         21    1    1    2  502  501 -0.16029481779E+01 -0.26352340426E+02  0.10661044011E+03  0.10983078453E+03  0.00000000000E+00 0.  1.
<scales pt_clust_5="13000.00000" pt_clust_6="13000.00000" pt_clust_7="13000.00000" pt_clust_8="13000.00000" pt_clust_9="26.40105"></scales>
<clustering>
<clus scale="   26.401">  1  9  2 -1</clus>
<clus scale="   62.142">  5  6 -1 -1</clus>
<clus scale="   86.269">  2  5  1 -1</clus>
<clus scale="   91.436">  7  8 -1 -1</clus>
<clus scale="   86.269">  2  5  1 -1</clus>
</clustering>
</event>
<event>
 9    1  0.1266593E-005  0.1457830E+03  0.7546771E-02  0.1206149E+00
         -2   -1    0    0    0  501 -0.00000000000E+00  0.00000000000E+00  0.26500100858E+03  0.26500100858E+03  0.00000000000E+00 0.  1.
          2   -1    0    0  502    0  0.00000000000E+00 -0.00000000000E+00 -0.40777996622E+03  0.40777996622E+03  0.00000000000E+00 0. -1.
         23    2    1    2    0    0 -0.99186895772E+01 -0.93191149726E+02  0.17208653604E+03  0.21522394055E+03  0.89020210681E+02 0.  0.
         23    2    1    2    0    0  0.59799154160E+02  0.99407016520E+02 -0.36061039883E+03  0.38959164530E+03  0.91017012544E+02 0.  0.
        -11    1    3    3    0    0 -0.34341654849E+02 -0.53729301999E+02  0.15165796546E+03  0.16451846595E+03  0.00000000000E+00 0.  1.
         11    1    3    3    0    0  0.24422965272E+02 -0.39461847727E+02  0.20428570584E+02  0.50705474604E+02  0.00000000000E+00 0. -1.
        -11    1    4    4    0    0  0.23876516088E+02  0.10398347642E+03 -0.30599718272E+03  0.32406315313E+03  0.00000000000E+00 0. -1.
         11    1    4    4    0    0  0.35922638072E+02 -0.45764599036E+01 -0.54613216118E+02  0.65528492170E+02  0.00000000000E+00 0.  1.
         21    1    1    2  502  501 -0.49880464583E+02 -0.62158667938E+01  0.45744905150E+02  0.67965388943E+02  0.00000000000E+00 0.  1.
<scales pt_clust_5="13000.00000" pt_clust_6="13000.00000" pt_clust_7="13000.00000" pt_clust_8="13000.00000" pt_clust_9="50.26627"></scales>
<clustering>
<clus scale="   50.266">  1  9  2 -1</clus>
<clus scale="   89.020">  5  6 -1 -1</clus>
<clus scale="   91.017">  7  8 -1 -1</clus>
<clus scale="  144.545">  1  5  2 -1</clus>
<clus scale="  145.783">  2  5  1 -1</clus>
</clustering>
</event>
<event>
 9    1  0.1266593E-005  0.2118986E+03  0.7546771E-02  0.1140194E+00
          1   -1    0    0  502    0  0.00000000000E+00  0.00000000000E+00  0.13430371028E+03  0.13430371028E+03  0.00000000000E+00 0. -1.
         -1   -1    0    0    0  501 -0.00000000000E+00 -0.00000000000E+00 -0.55590470868E+03  0.55590470868E+03  0.00000000000E+00 0.  1.
         23    2    1    2    0    0  0.10030475646E+03 -0.16923355064E+03 -0.24719347913E+03  0.32861993579E+03  0.90473240495E+02 0.  0.
         23    2    1    2    0    0 -0.53056929449E+02  0.18379253952E+03 -0.35252522444E+02  0.21391169265E+03  0.88998520036E+02 0.  0.
        -13    1    3    3    0    0  0.70766887661E+02 -0.16749731110E+03 -0.18321137338E+03  0.25812731152E+03  0.00000000000E+00 0.  1.
         13    1    3    3    0    0  0.29537868800E+02 -0.17362395383E+01 -0.63982105754E+02  0.70492624279E+02  0.00000000000E+00 0. -1.
        -13    1    4    4    0    0 -0.66444434270E+01  0.12488071748E+03  0.11418613910E+02  0.12557757352E+03  0.00000000000E+00 0. -1.
         13    1    4    4    0    0 -0.46412486022E+02  0.58911822042E+02 -0.46671136354E+02  0.88334119136E+02  0.00000000000E+00 0.  1.
         21    1    1    2  502  501 -0.47247827013E+02 -0.14558988881E+02 -0.13915499683E+03  0.14767679052E+03  0.00000000000E+00 0.  1.
<scales pt_clust_5="13000.00000" pt_clust_6="13000.00000" pt_clust_7="13000.00000" pt_clust_8="13000.00000" pt_clust_9="49.44008"></scales>
<clustering>
<clus scale="   49.440">  2  9  1 -1</clus>
<clus scale="   88.999">  7  8 -1 -1</clus>
<clus scale="   90.473">  5  6 -1 -1</clus>
<clus scale="  211.273">  1  7  2 -1</clus>
<clus scale="  211.273">  1  5  2 -1</clus>
</clustering>
</event>
<event>
 9    1  0.1266593E-005  0.9594412E+02  0.7546771E-02  0.1295966E+00
         -1   -1    0    0    0  501 -0.00000000000E+00  0.00000000000E+00  0.21370298492E+03  0.21370298492E+03  0.00000000000E+00 0.  1.
          1   -1    0    0  502    0  0.00000000000E+00 -0.00000000000E+00 -0.67620211847E+02  0.67620211847E+02  0.00000000000E+00 0. -1.
         23    2    1    2    0    0  0.77230188136E+01  0.39231705835E+01  0.54781252949E+02  0.10841848085E+03  0.93158708819E+02 0.  0.
         23    2    1    2    0    0 -0.31103283980E+02 -0.56804386646E+01  0.92862657039E+01  0.87603914348E+02  0.81169756810E+02 0.  0.
        -11    1    3    3    0    0 -0.25816956504E+02 -0.32202217602E+02  0.38667641252E+02  0.56556914180E+02  0.00000000000E+00 0. -1.
         11    1    3    3    0    0  0.33539975317E+02  0.36125388185E+02  0.16113611697E+02  0.51861566673E+02  0.00000000000E+00 0.  1.
        -13    1    4    4    0    0  0.15021127666E+02  0.16770220261E+02  0.25297661174E+02  0.33865118113E+02  0.00000000000E+00 0.  1.
         13    1    4    4    0    0 -0.46124411646E+02 -0.22450658925E+02 -0.16011395470E+02  0.53738796235E+02  0.00000000000E+00 0. -1.
         21    1    1    2  502  501  0.23380265167E+02  0.17572680811E+01  0.82015254424E+02  0.85300801571E+02  0.00000000000E+00 0.  1.
<scales pt_clust_5="13000.00000" pt_clust_6="13000.00000" pt_clust_7="13000.00000" pt_clust_8="13000.00000" pt_clust_9="23.44621"></scales>
<clustering>
<clus scale="   23.446">  1  9  2 -1</clus>
<clus scale="   81.170">  7  8 -1 -1</clus>
<clus scale="   84.352">  2  7  1 -1</clus>
<clus scale="   93.159">  5  6 -1 -1</clus>
<clus scale="   84.352">  2  5  1 -1</clus>
</clustering>
</event>
<event>
 9    1  0.1266593E-005  0.9726937E+02  0.7546771E-02  0.1287112E+00
         -2   -1    0    0    0  501 -0.00000000000E+00  0.00000000000E+00  0.28664440856E+03  0.28664440856E+03  0.00000000000E+00 0.  1.
          2   -1    0    0  502    0  0.00000000000E+00 -0.00000000000E+00 -0.30733169797E+03  0.30733169797E+03  0.00000000000E+00 0. -1.
         23    2    1    2    0    0  0.22731162625E+01 -0.10257357323E+02  0.10255301621E+03  0.13728679625E+03  0.90665113760E+02 0.  0.
         23    2    1    2    0    0  0.10917929869E+02  0.29551299367E+02 -0.28084375707E+03  0.29736226359E+03  0.92512806877E+02 0.  0.
        -11    1    4    4    0    0 -0.38634577912E+02  0.23132952671E+02 -0.98659905743E+02  0.10845063905E+03  0.00000000000E+00 0.  1.
         11    1    4    4    0    0  0.49552507781E+02  0.64183466962E+01 -0.18218385132E+03  0.18891162454E+03  0.00000000000E+00 0. -1.
        -13    1    3    3    0    0 -0.37211005428E+02 -0.10497336496E+02  0.86342572036E+02  0.94603872776E+02  0.00000000000E+00 0.  1.
         13    1    3    3    0    0  0.39484121690E+02  0.23997917316E+00  0.16210444175E+02  0.42682923471E+02  0.00000000000E+00 0. -1.
         21    1    1    2  502  501 -0.13191046131E+02 -0.19293942044E+02  0.15760345145E+03  0.15932704669E+03  0.00000000000E+00 0.  1.
<scales pt_clust_5="13000.00000" pt_clust_6="13000.00000" pt_clust_7="13000.00000" pt_clust_8="13000.00000" pt_clust_9="23.37220"></scales>
<clustering>
<clus scale="   23.372">  1  9  2 -1</clus>
<clus scale="   90.665">  7  8 -1 -1</clus>
<clus scale="   92.513">  5  6 -1 -1</clus>
<clus scale="   95.514">  1  7  2 -1</clus>
<clus scale="   97.269">  2  5  1 -1</clus>
</clustering>
</event>
<event>
 9    1  0.1266593E-005  0.1147252E+03  0.7546771E-02  0.1252069E+00
         -1   -1    0    0    0  501 -0.00000000000E+00  0.00000000000E+00  0.37604404858E+02  0.37604404858E+02  0.00000000000E+00 0.  1.
          1   -1    0    0  502    0  0.00000000000E+00 -0.00000000000E+00 -0.49607527982E+03  0.49607527982E+03  0.00000000000E+00 0. -1.
         23    2    1    2    0    0  0.77639498975E+02 -0.27569280645E+02 -0.16925887881E+03  0.20865182962E+03  0.89994782704E+02 0.  0.
         23    2    1    2    0    0 -0.47501189620E+02  0.46686577550E+02 -0.23173771987E+03  0.25737372609E+03  0.90015912657E+02 0.  0.
        -13    1    4    4    0    0  0.13427231523E+02  0.47299468033E+02 -0.12723555037E+03  0.13640533531E+03  0.00000000000E+00 0.  1.
         13    1    4    4    0    0 -0.60928421143E+02 -0.61289048353E+00 -0.10450216950E+03  0.12096839078E+03  0.00000000000E+00 0. -1.
        -13    1    3    3    0    0  0.30850193442E+02 -0.31780617643E+02 -0.15245495301E+03  0.15875847943E+03  0.00000000000E+00 0. -1.
         13    1    3    3    0    0  0.46789305533E+02  0.42113369985E+01 -0.16803925798E+02  0.49893350196E+02  0.00000000000E+00 0.  1.
         21    1    1    2  502  501 -0.30138309355E+02 -0.19117296905E+02 -0.57474276277E+02  0.67654128959E+02  0.00000000000E+00 0. -1.
<scales pt_clust_5="13000.00000" pt_clust_6="13000.00000" pt_clust_7="13000.00000" pt_clust_8="13000.00000" pt_clust_9="35.69018"></scales>
<clustering>
<clus scale="   35.690">  1  9  2 -1</clus>
<clus scale="   89.995">  7  8 -1 -1</clus>
<clus scale="   90.016">  5  6 -1 -1</clus>
<clus scale="  114.709">  1  7  2 -1</clus>
<clus scale="  114.725">  2  5  1 -1</clus>
</clustering>
</event>
<event>
 9    1  0.1266593E-005  0.1615646E+03  0.7546771E-02  0.1187205E+00
          1   -1    0    0  502    0  0.00000000000E+00  0.00000000000E+00  0.11993263604E+03  0.11993263604E+03  0.00000000000E+00 0. -1.
         -1   -1    0    0    0  501 -0.00000000000E+00 -0.00000000000E+00 -0.43365271110E+03  0.43365271110E+03  0.00000000000E+00 0.  1.
         23    2    1    2    0    0 -0.43230729845E+02  0.10121527564E+03 -0.90320821455E+02  0.16872095356E+03  0.90528897914E+02 0.  0.
         23    2    1    2    0    0  0.73118292419E+02 -0.13355465116E+03 -0.20765796269E+02  0.17750137943E+03  0.88839134799E+02 0.  0.
        -11    1    4    4    0    0  0.31671714372E+02 -0.12487711275E+03 -0.33808331510E+02  0.13319307061E+03  0.00000000000E+00 0. -1.
         11    1    4    4    0    0  0.41446578047E+02 -0.86775384105E+01  0.13042535241E+02  0.44308308816E+02  0.00000000000E+00 0.  1.
        -13    1    3    3    0    0 -0.68571456139E+02  0.75739427725E+02 -0.83933995242E+02  0.13222488823E+03  0.00000000000E+00 0.  1.
         13    1    3    3    0    0  0.25340726294E+02  0.25475847911E+02 -0.63868262138E+01  0.36496065336E+02  0.00000000000E+00 0. -1.
         21    1    1    2  502  501 -0.29887562574E+02  0.32339375520E+02 -0.20263345734E+03  0.20736301415E+03  0.00000000000E+00 0.  1.
<scales pt_clust_5="13000.00000" pt_clust_6="13000.00000" pt_clust_7="13000.00000" pt_clust_8="13000.00000" pt_clust_9="44.03523"></scales>
<clustering>
<clus scale="   44.035">  2  9  1 -1</clus>
<clus scale="   88.839">  5  6 -1 -1</clus>
<clus scale="   90.529">  7  8 -1 -1</clus>
<clus scale="  160.624">  1  5  2 -1</clus>
<clus scale="  160.624">  1  5  2 -1</clus>
</clustering>
</event>
<event>
 9    1  0.1266593E-005  0.1040578E+03  0.7546771E-02  0.1278579E+00
          2   -1    0    0  502    0  0.00000000000E+00  0.00000000000E+00  0.14349651224E+03  0.14349651224E+03  0.00000000000E+00 0. -1.
         -2   -1    0    0    0  501 -0.00000000000E+00 -0.00000000000E+00 -0.94955153667E+02  0.94955153667E+02  0.00000000000E+00 0.  1.
         23    2    1    2    0    0 -0.74557158782E+01  0.16118100328E+02 -0.46169050010E+01  0.10547298542E+03  0.10386459447E+03 0.  0.
         23    2    1    2    0    0 -0.10958459715E+02  0.19561074114E+01  0.54632901794E+02  0.10713427285E+03  0.91482699266E+02 0.  0.
        -11    1    3    3    0    0 -0.51556008495E+02  0.20899640949E+02  0.14000466061E+02  0.57365756804E+02  0.00000000000E+00 0.  1.
         11    1    3    3    0    0  0.44100292617E+02 -0.47815406213E+01 -0.18617371062E+02  0.48107228614E+02  0.00000000000E+00 0. -1.
        -13    1    4    4    0    0 -0.29102445872E+02 -0.30614630392E+02  0.15525558174E+01  0.42268408762E+02  0.00000000000E+00 0. -1.
         13    1    4    4    0    0  0.18143986156E+02  0.32570737803E+02  0.53080345977E+02  0.64865864087E+02  0.00000000000E+00 0.  1.
         21    1    1    2  502  501  0.18414175593E+02 -0.18074207739E+02 -0.14746382233E+01  0.25844407637E+02  0.00000000000E+00 0.  1.
<scales pt_clust_5="13000.00000" pt_clust_6="13000.00000" pt_clust_7="13000.00000" pt_clust_8="13000.00000" pt_clust_9="25.80230"></scales>
<clustering>
<clus scale="   25.802">  2  9  1 -1</clus>
<clus scale="   91.483">  7  8 -1 -1</clus>
<clus scale="   91.702">  1  7  2 -1</clus>
<clus scale="  103.865">  5  6 -1 -1</clus>
<clus scale="   91.702">  1  5  2 -1</clus>
</clustering>
</event>
<event>
 9    1  0.1266593E-005  0.1064638E+03  0.7546771E-02  0.1267492E+00
         -1   -1    0    0    0  501 -0.00000000000E+00  0.00000000000E+00  0.95642165227E+02  0.95642165227E+02  0.00000000000E+00 0.  1.
          1   -1    0    0  502    0  0.00000000000E+00 -0.00000000000E+00 -0.23450277488E+03  0.23450277488E+03  0.00000000000E+00 0. -1.
         23    2    1    2    0    0 -0.44072589212E+02  0.18210628685E+02  0.20686925658E+02  0.10417202601E+03  0.90276475297E+02 0.  0.
         23    2    1    2    0    0  0.78648890269E+02 -0.29301285332E+02 -0.12550298869E+03  0.17619787604E+03  0.90832142369E+02 0.  0.
        -11    1    3    3    0    0 -0.16845674537E+02 -0.36504789688E+02  0.14522159355E+02  0.42746573349E+02  0.00000000000E+00 0.  1.
         11    1    3    3    0    0 -0.27226914675E+02  0.54715418374E+02  0.61647663034E+01  0.61425452657E+02  0.00000000000E+00 0. -1.
        -13    1    4    4    0    0  0.66838589694E+02 -0.60500862099E+02 -0.95481353277E+02  0.13131808790E+03  0.00000000000E+00 0. -1.
         13    1    4    4    0    0  0.11810300575E+02  0.31199576767E+02 -0.30021635418E+02  0.44879788137E+02  0.00000000000E+00 0.  1.
         21    1    1    2  502  501 -0.34576301056E+02  0.11090656647E+02 -0.34044546620E+02  0.49775038063E+02  0.00000000000E+00 0. -1.
<scales pt_clust_5="13000.00000" pt_clust_6="13000.00000" pt_clust_7="13000.00000" pt_clust_8="13000.00000" pt_clust_9="36.31148"></scales>
<clustering>
<clus scale="   36.311">  2  9  1 -1</clus>
<clus scale="   90.276">  5  6 -1 -1</clus>
<clus scale="   90.832">  7  8 -1 -1</clus>
<clus scale="  105.990">  1  5  2 -1</clus>
<clus scale="   36.311">  2  5  1 -1</clus>
</clustering>
</event>
<event>
 9    1  0.1266593E-005  0.1387591E+03  0.7546771E-02  0.1234578E+00
          2   -1    0    0  502    0  0.00000000000E+00  0.00000000000E+00  0.85952631463E+03  0.85952631463E+03  0.00000000000E+00 0. -1.
         -2   -1    0    0    0  501 -0.00000000000E+00 -0.00000000000E+00 -0.37460807584E+02  0.37460807584E+02  0.00000000000E+00 0.  1.
         23    2    1    2    0    0 -0.35225536774E+02  0.11529243251E+03  0.41692123965E+03  0.44337969584E+03  0.90714117828E+02 0.  0.
         23    2    1    2    0    0  0.53704942557E+01 -0.20263782019E+02  0.27262373767E+03  0.28782606802E+03  0.89892602720E+02 0.  0.
        -13    1    3    3    0    0  0.11203900533E+02  0.88560654740E+02  0.18581613921E+03  0.20614595447E+03  0.00000000000E+00 0.  1.
         13    1    3    3    0    0 -0.46429437307E+02  0.26731777773E+02  0.23110510044E+03  0.23723374137E+03  0.00000000000E+00 0. -1.
        -13    1    4    4    0    0  0.45852850116E+02  0.19832698454E+01  0.12602725251E+03  0.13412414249E+03  0.00000000000E+00 0.  1.
         13    1    4    4    0    0 -0.40482355860E+02 -0.22247051865E+02  0.14659648516E+03  0.15370192553E+03  0.00000000000E+00 0. -1.
         21    1    1    2  502  501  0.29855042518E+02 -0.95028650493E+02  0.13252052973E+03  0.16578135835E+03  0.00000000000E+00 0.  1.
<scales pt_clust_5="13000.00000" pt_clust_6="13000.00000" pt_clust_7="13000.00000" pt_clust_8="13000.00000" pt_clust_9="105.00019"></scales>
<clustering>
<clus scale="   89.893">  7  8 -1 -1</clus>
<clus scale="   90.714">  5  6 -1 -1</clus>
<clus scale="   92.305">  1  7  2 -1</clus>
<clus scale="  105.000">  2  9  1 -1</clus>
<clus scale="   92.305">  1  5  2 -1</clus>
</clustering>
</event>
<event>
 9    1  0.1266593E-005  0.1063140E+03  0.7546771E-02  0.1269263E+00
         -1   -1    0    0    0  501 -0.00000000000E+00  0.00000000000E+00  0.57173391838E+03  0.57173391838E+03  0.00000000000E+00 0.  1.
          1   -1    0    0  502    0  0.00000000000E+00 -0.00000000000E+00 -0.13685587370E+03  0.13685587370E+03  0.00000000000E+00 0. -1.
         23    2    1    2    0    0 -0.58308668230E+02 -0.72493012201E+02  0.28105556237E+03  0.30847847519E+03  0.86669503883E+02 0.  0.
         23    2    1    2    0    0 -0.50668288408E+01  0.53998389105E+02 -0.95329897709E+02  0.14236063662E+03  0.90759366908E+02 0.  0.
        -11    1    4    4    0    0  0.18927334161E+02 -0.17208761189E+02 -0.45501684569E+02  0.52199508990E+02  0.00000000000E+00 0.  1.
         11    1    4    4    0    0 -0.23994163002E+02  0.71207150294E+02 -0.49828213139E+02  0.90161127631E+02  0.00000000000E+00 0. -1.
        -11    1    3    3    0    0  0.19705457105E+02 -0.33084414910E+02  0.10683052820E+03  0.11355899482E+03  0.00000000000E+00 0.  1.
         11    1    3    3    0    0 -0.78014125335E+02 -0.39408597290E+02  0.17422503417E+03  0.19491948036E+03  0.00000000000E+00 0. -1.
         21    1    1    2  502  501  0.63375497071E+02  0.18494623096E+02  0.24915238002E+03  0.25775068027E+03  0.00000000000E+00 0.  1.
<scales pt_clust_5="13000.00000" pt_clust_6="13000.00000" pt_clust_7="13000.00000" pt_clust_8="13000.00000" pt_clust_9="66.01897"></scales>
<clustering>
<clus scale="   66.019">  1  9  2 -1</clus>
<clus scale="   86.670">  7  8 -1 -1</clus>
<clus scale="   90.759">  5  6 -1 -1</clus>
<clus scale="  102.845">  1  7  2 -1</clus>
<clus scale="  106.314">  2  5  1 -1</clus>
</clustering>
</event>
<event>
 9    1  0.1266593E-005  0.9477399E+02  0.7546771E-02  0.1292036E+00
         -2   -1    0    0    0  501 -0.00000000000E+00  0.00000000000E+00  0.12310438598E+03  0.12310438598E+03  0.00000000000E+00 0.  1.
          2   -1    0    0  502    0  0.00000000000E+00 -0.00000000000E+00 -0.15882223350E+03  0.15882223350E+03  0.00000000000E+00 0. -1.
         23    2    1    2    0    0 -0.10312412831E+02  0.45649576900E+01 -0.13690045486E+02  0.93049356701E+02  0.91343203031E+02 0.  0.
         23    2    1    2    0    0  0.21137817035E+02  0.27089955170E+02 -0.76826995280E+02  0.12467310041E+03  0.91980007516E+02 0.  0.
        -11    1    3    3    0    0 -0.18529759516E+02  0.27944775075E+02 -0.43089667838E+02  0.54598369171E+02  0.00000000000E+00 0. -1.
         11    1    3    3    0    0  0.82173466853E+01 -0.23379817385E+02  0.29399622353E+02  0.38450987530E+02  0.00000000000E+00 0.  1.
        -13    1    4    4    0    0 -0.40677557616E+01 -0.31948478322E+02 -0.37324009182E+02  0.49298413417E+02  0.00000000000E+00 0.  1.
         13    1    4    4    0    0  0.25205572797E+02  0.59038433491E+02 -0.39502986098E+02  0.75374686997E+02  0.00000000000E+00 0. -1.
         21    1    1    2  502  501 -0.10825404204E+02 -0.31654912860E+02  0.54799193251E+02  0.64204162368E+02  0.00000000000E+00 0.  1.
<scales pt_clust_5="13000.00000" pt_clust_6="13000.00000" pt_clust_7="13000.00000" pt_clust_8="13000.00000" pt_clust_9="33.45479"></scales>
<clustering>
<clus scale="   33.455">  1  9  2 -1</clus>
<clus scale="   91.343">  5  6 -1 -1</clus>
<clus scale="   91.980">  7  8 -1 -1</clus>
<clus scale="   94.156">  1  5  2 -1</clus>
<clus scale="   94.774">  2  5  1 -1</clus>
</clustering>
</event>
<event>
 9    1  0.1266593E-005  0.1657507E+03  0.7546771E-02  0.1198786E+00
         -1   -1    0    0    0  501 -0.00000000000E+00  0.00000000000E+00  0.10051723385E+03  0.10051723385E+03  0.00000000000E+00 0.  1.
          1   -1    0    0  502    0  0.00000000000E+00 -0.00000000000E+00 -0.58226448282E+03  0.58226448282E+03  0.00000000000E+00 0. -1.
         23    2    1    2    0    0  0.84805274530E+02  0.35613421365E+02 -0.17250175245E+03  0.21568404186E+03  0.91118060494E+02 0.  0.
         23    2    1    2    0    0  0.60166637256E+02  0.36048779679E+02 -0.27991689794E+03  0.30274289709E+03  0.91543723038E+02 0.  0.
        -13    1    4    4    0    0  0.74046112611E+02  0.53631593490E+02 -0.20317987982E+03  0.22280313772E+03  0.00000000000E+00 0. -1.
         13    1    4    4    0    0 -0.13879475356E+02 -0.17582813811E+02 -0.76737018122E+02  0.79939759369E+02  0.00000000000E+00 0.  1.
        -13    1    3    3    0    0  0.41147731601E+02  0.13254937021E+02 -0.79210162483E+01  0.43949649256E+02  0.00000000000E+00 0.  1.
         13    1    3    3    0    0  0.43657542929E+02  0.22358484344E+02 -0.16458073620E+03  0.17173439261E+03  0.00000000000E+00 0. -1.
         21    1    1    2  502  501 -0.14497191179E+03 -0.71662201043E+02 -0.29328598580E+02  0.16435477772E+03  0.00000000000E+00 0.  1.
<scales pt_clust_5="13000.00000" pt_clust_6="13000.00000" pt_clust_7="13000.00000" pt_clust_8="13000.00000" pt_clust_9="138.45869"></scales>
<clustering>
<clus scale="   91.118">  7  8 -1 -1</clus>
<clus scale="   91.544">  5  6 -1 -1</clus>
<clus scale="  115.325">  2  5  1 -1</clus>
<clus scale="  138.459">  1  9  2 -1</clus>
<clus scale="  115.325">  2  5  1 -1</clus>
</clustering>
</event>
<event>
 9    1  0.1266593E-005  0.1217397E+03  0.7546771E-02  0.1240362E+00
          2   -1    0    0  502    0  0.00000000000E+00  0.00000000000E+00  0.50528260080E+03  0.50528260080E+03  0.00000000000E+00 0. -1.
         -2   -1    0    0    0  501 -0.00000000000E+00 -0.00000000000E+00 -0.35810921738E+02  0.35810921738E+02  0.00000000000E+00 0.  1.
         23    2    1    2    0    0  0.56989899437E+02 -0.51647253288E+02  0.18585396190E+03  0.22130099851E+03  0.92288403254E+02 0.  0.
         23    2    1    2    0    0 -0.43487456990E+02  0.69496632797E+02  0.25536094696E+03  0.28374586867E+03  0.92636730663E+02 0.  0.
        -13    1    4    4    0    0  0.13486556324E+02  0.56994406331E+02  0.17432117248E+03  0.18389703839E+03  0.00000000000E+00 0. -1.
         13    1    4    4    0    0 -0.56974013314E+02  0.12502226466E+02  0.81039774481E+02  0.99848830276E+02  0.00000000000E+00 0.  1.
        -13    1    3    3    0    0  0.35511713208E+02 -0.78035220491E+02  0.12491137381E+03  0.15150389011E+03  0.00000000000E+00 0.  1.
         13    1    3    3    0    0  0.21478186229E+02  0.26387967203E+02  0.60942588094E+02  0.69797108395E+02  0.00000000000E+00 0. -1.
         21    1    1    2  502  501 -0.13502442447E+02 -0.17849379509E+02  0.28256770204E+02  0.36046655369E+02  0.00000000000E+00 0.  1.
<scales pt_clust_5="13000.00000" pt_clust_6="13000.00000" pt_clust_7="13000.00000" pt_clust_8="13000.00000" pt_clust_9="22.38116"></scales>
<clustering>
<clus scale="   22.381">  2  9  1 -1</clus>
<clus scale="   92.288">  7  8 -1 -1</clus>
<clus scale="   92.637">  5  6 -1 -1</clus>
<clus scale="  121.475">  2  7  1 -1</clus>
<clus scale="  121.740">  1  5  2 -1</clus>
</clustering>
</event>
<event>
 9    1  0.1266593E-005  0.1102484E+03  0.7546771E-02  0.1260169E+00
          2   -1    0    0  502    0  0.00000000000E+00  0.00000000000E+00  0.50485266883E+03  0.50485266883E+03  0.00000000000E+00 0. -1.
         -2   -1    0    0    0  501 -0.00000000000E+00 -0.00000000000E+00 -0.38240626016E+02  0.38240626016E+02  0.00000000000E+00 0.  1.
         23    2    1    2    0    0  0.33918965079E+02  0.69285093008E+02  0.17739916539E+03  0.21403547065E+03  0.91595843287E+02 0.  0.
         23    2    1    2    0    0 -0.19803103304E+02 -0.49423653243E+02  0.28541330336E+03  0.30439669880E+03  0.91442528958E+02 0.  0.
        -13    1    4    4    0    0 -0.56077985553E+02 -0.27018884560E+02  0.18871143699E+03  0.19871277522E+03  0.00000000000E+00 0. -1.
         13    1    4    4    0    0  0.36274882249E+02 -0.22404768683E+02  0.96701866372E+02  0.10568392357E+03  0.00000000000E+00 0.  1.
        -13    1    3    3    0    0 -0.10299348429E+02  0.22057696257E+02 -0.90096605773E+00  0.24360424505E+02  0.00000000000E+00 0.  1.
         13    1    3    3    0    0  0.44218313508E+02  0.47227396751E+02  0.17830013145E+03  0.18967504614E+03  0.00000000000E+00 0. -1.
         21    1    1    2  502  501 -0.14115861775E+02 -0.19861439765E+02  0.37995740614E+01  0.24661125405E+02  0.00000000000E+00 0.  1.
<scales pt_clust_5="13000.00000" pt_clust_6="13000.00000" pt_clust_7="13000.00000" pt_clust_8="13000.00000" pt_clust_9="24.36666"></scales>
<clustering>
<clus scale="   24.367">  2  9  1 -1</clus>
<clus scale="   91.443">  5  6 -1 -1</clus>
<clus scale="   91.596">  7  8 -1 -1</clus>
<clus scale="  110.121">  1  5  2 -1</clus>
<clus scale="  110.121">  1  5  2 -1</clus>
</clustering>
</event>
<event>
 9    1  0.1266593E-005  0.1270267E+03  0.7546771E-02  0.1232588E+00
          1   -1    0    0  502    0  0.00000000000E+00  0.00000000000E+00  0.54978388625E+02  0.54978388625E+02  0.00000000000E+00 0. -1.
         -1   -1    0    0    0  501 -0.00000000000E+00 -0.00000000000E+00 -0.61041849347E+03  0.61041849347E+03  0.00000000000E+00 0.  1.
         23    2    1    2    0    0 -0.71924952269E+02 -0.32073408601E+02 -0.42577216642E+03  0.44226543747E+03  0.90082613106E+02 0.  0.
         23    2    1    2    0    0  0.59165101794E+02  0.68501200369E+02 -0.58086562821E+02  0.14180684115E+03  0.92424064475E+02 0.  0.
        -13    1    4    4    0    0  0.77118397879E+02  0.50128721434E+02 -0.17279974839E+02  0.93588105732E+02  0.00000000000E+00 0. -1.
         13    1    4    4    0    0 -0.17953296085E+02  0.18372478935E+02 -0.40806587982E+02  0.48218735418E+02  0.00000000000E+00 0.  1.
        -13    1    3    3    0    0 -0.23816754276E+02 -0.49897978441E+02 -0.11880781106E+03  0.13104328295E+03  0.00000000000E+00 0.  1.
         13    1    3    3    0    0 -0.48108197993E+02  0.17824569840E+02 -0.30696435536E+03  0.31122215452E+03  0.00000000000E+00 0. -1.
         21    1    1    2  502  501  0.12759850476E+02 -0.36427791768E+02 -0.71581375602E+02  0.81324603475E+02  0.00000000000E+00 0.  1.
<scales pt_clust_5="13000.00000" pt_clust_6="13000.00000" pt_clust_7="13000.00000" pt_clust_8="13000.00000" pt_clust_9="38.59790"></scales>
<clustering>
<clus scale="   38.598">  2  9  1 -1</clus>
<clus scale="   90.083">  7  8 -1 -1</clus>
<clus scale="   92.424">  5  6 -1 -1</clus>
<clus scale="  125.333">  2  7  1 -1</clus>
<clus scale="  127.027">  1  5  2 -1</clus>
</clustering>
</event>
<event>
 9    1  0.1266593E-005  0.1353080E+03  0.7546771E-02  0.1219907E+00
         -1   -1    0    0    0  501 -0.00000000000E+00  0.00000000000E+00  0.10394972660E+03  0.10394972660E+03  0.00000000000E+00 0.  1.
          1   -1    0    0  502    0  0.00000000000E+00 -0.00000000000E+00 -0.23288742332E+03  0.23288742332E+03  0.00000000000E+00 0. -1.
         23    2    1    2    0    0  0.67354665055E+02  0.53298229206E+02 -0.28680970095E+02  0.13020241612E+03  0.93555967078E+02 0.  0.
         23    2    1    2    0    0 -0.70965150644E+02 -0.79281334234E+02 -0.10951567240E+03  0.17881593746E+03  0.93058446286E+02 0.  0.
        -13    1    4    4    0    0 -0.44361547144E+02 -0.64654492148E+02 -0.12278312045E+03  0.14568405846E+03  0.00000000000E+00 0. -1.
         13    1    4    4    0    0 -0.26603603499E+02 -0.14626842087E+02  0.13267448054E+02  0.33131879005E+02  0.00000000000E+00 0.  1.
        -13    1    3    3    0    0  0.76675521773E+02  0.22184919807E+02  0.91481997492E+01  0.80342988896E+02  0.00000000000E+00 0. -1.
         13    1    3    3    0    0 -0.93208567182E+01  0.31113309398E+02 -0.37829169844E+02  0.49859427221E+02  0.00000000000E+00 0.  1.
         21    1    1    2  502  501  0.36104855887E+01  0.25983105029E+02  0.92589457751E+01  0.27818796343E+02  0.00000000000E+00 0.  1.
<scales pt_clust_5="13000.00000" pt_clust_6="13000.00000" pt_clust_7="13000.00000" pt_clust_8="13000.00000" pt_clust_9="26.23275"></scales>
<clustering>
<clus scale="   26.233">  1  9  2 -1</clus>
<clus scale="   93.058">  5  6 -1 -1</clus>
<clus scale="   93.556">  7  8 -1 -1</clus>
<clus scale="  134.964">  2  5  1 -1</clus>
<clus scale="  134.964">  2  5  1 -1</clus>
</clustering>
</event>
<event>
 9    1  0.1266593E-005  0.9305419E+02  0.7546771E-02  0.1296098E+00
         -2   -1    0    0    0  501 -0.00000000000E+00  0.00000000000E+00  0.26831311161E+02  0.26831311161E+02  0.00000000000E+00 0. -1.
          2   -1    0    0  502    0  0.00000000000E+00 -0.00000000000E+00 -0.61260608110E+03  0.61260608110E+03  0.00000000000E+00 0.  1.
         23    2    1    2    0    0  0.31114924329E+02 -0.22630495610E+00 -0.18084815810E+03  0.20497028863E+03  0.91315788346E+02 0.  0.
         23    2    1    2    0    0 -0.10826979307E+02  0.83725702580E+01 -0.40214955760E+03  0.41242908236E+03  0.90477388792E+02 0.  0.
        -13    1    3    3    0    0  0.61908707675E+02  0.19510213564E+00 -0.14528766222E+03  0.15792792959E+03  0.00000000000E+00 0.  1.
         13    1    3    3    0    0 -0.30793783346E+02 -0.42140709174E+00 -0.35560495887E+02  0.47042359044E+02  0.00000000000E+00 0. -1.
        -13    1    4    4    0    0 -0.88672888661E+01 -0.41018645757E+02 -0.17459635060E+03  0.17956905010E+03  0.00000000000E+00 0.  1.
         13    1    4    4    0    0 -0.19596904411E+01  0.49391216015E+02 -0.22755320700E+03  0.23286003226E+03  0.00000000000E+00 0. -1.
         21    1    1    2  502  501 -0.20287945022E+02 -0.81462653019E+01 -0.27770542382E+01  0.22038021277E+02  0.00000000000E+00 0. -1.
<scales pt_clust_5="13000.00000" pt_clust_6="13000.00000" pt_clust_7="13000.00000" pt_clust_8="13000.00000" pt_clust_9="21.86235"></scales>
<clustering>
<clus scale="   21.862">  1  9  2 -1</clus>
<clus scale="   90.477">  7  8 -1 -1</clus>
<clus scale="   91.316">  5  6 -1 -1</clus>
<clus scale="   92.232">  2  7  1 -1</clus>
<clus scale="   92.232">  2  5  1 -1</clus>
</clustering>
</event>
<event>
 9    1  0.1266593E-005  0.1044720E+03  0.7546771E-02  0.1272841E+00
         -2   -1    0    0    0  501 -0.00000000000E+00  0.00000000000E+00  0.98431393866E+02  0.98431393866E+02  0.00000000000E+00 0.  1.
          2   -1    0    0  502    0  0.00000000000E+00 -0.00000000000E+00 -0.15913142285E+03  0.15913142285E+03  0.00000000000E+00 0. -1.
         23    2    1    2    0    0  0.57822938317E+02 -0.10343326948E+02  0.85793454378E+01  0.11232947305E+03  0.95361568458E+02 0.  0.
         23    2    1    2    0    0 -0.35298417225E+02  0.72946660047E+01 -0.72420352307E+02  0.12228744804E+03  0.91707808333E+02 0.  0.
        -13    1    3    3    0    0 -0.13975262594E+02  0.26392141321E+02  0.10500734645E+02  0.31656255561E+02  0.00000000000E+00 0.  1.
         13    1    3    3    0    0  0.71798200911E+02 -0.36735468269E+02 -0.19213892070E+01  0.80673217486E+02  0.00000000000E+00 0. -1.
        -13    1    4    4    0    0 -0.57946275551E+02 -0.56944622779E+01 -0.76208406939E+02  0.95905782094E+02  0.00000000000E+00 0.  1.
         13    1    4    4    0    0  0.22647858325E+02  0.12989128283E+02  0.37880546314E+01  0.26381665947E+02  0.00000000000E+00 0. -1.
         21    1    1    2  502  501 -0.22524521092E+02  0.30486609430E+01  0.31409778881E+01  0.22945895626E+02  0.00000000000E+00 0.  1.
<scales pt_clust_5="13000.00000" pt_clust_6="13000.00000" pt_clust_7="13000.00000" pt_clust_8="13000.00000" pt_clust_9="22.72990"></scales>
<clustering>
<clus scale="   22.730">  1  9  2 -1</clus>
<clus scale="   91.708">  7  8 -1 -1</clus>
<clus scale="   95.362">  5  6 -1 -1</clus>
<clus scale="  101.148">  2  7  1 -1</clus>
<clus scale="  101.148">  2  5  1 -1</clus>
</clustering>
</event>
<event>
 9    1  0.1488112E-005  0.1061921E+03  0.7546771E-02  0.1270650E+00
          1   -1    0    0  502    0  0.00000000000E+00  0.00000000000E+00  0.29119965519E+03  0.29119965519E+03  0.00000000000E+00 0. -1.
         -1   -1    0    0    0  501 -0.00000000000E+00 -0.00000000000E+00 -0.22577485717E+03  0.22577485717E+03  0.00000000000E+00 0.  1.
         23    2    1    2    0    0  0.30276872899E+02  0.62979415903E+02 -0.11850467639E+03  0.16724870832E+03  0.95108760118E+02 0.  0.
         23    2    1    2    0    0 -0.48441017882E+02  0.55897376887E+01  0.23924946938E+03  0.25977044381E+03  0.88671289030E+02 0.  0.
        -11    1    4    4    0    0 -0.63410962226E+02 -0.12501328047E+02  0.22033424389E+03  0.22961797047E+03  0.00000000000E+00 0. -1.
         11    1    4    4    0    0  0.14969944344E+02  0.18091065736E+02  0.18915225493E+02  0.30152473341E+02  0.00000000000E+00 0.  1.
        -11    1    3    3    0    0  0.62742377928E+02  0.42176436501E+02 -0.97383404676E+02  0.12328416480E+03  0.00000000000E+00 0.  1.
         11    1    3    3    0    0 -0.32465505029E+02  0.20802979402E+02 -0.21121271709E+02  0.43964543525E+02  0.00000000000E+00 0. -1.
         21    1    1    2  502  501  0.18164144983E+02 -0.68569153591E+02 -0.55319994976E+02  0.89955360215E+02  0.00000000000E+00 0.  1.
<scales pt_clust_5="13000.00000" pt_clust_6="13000.00000" pt_clust_7="13000.00000" pt_clust_8="13000.00000" pt_clust_9="70.93423"></scales>
<clustering>
<clus scale="   70.934">  2  9  1 -1</clus>
<clus scale="   88.671">  5  6 -1 -1</clus>
<clus scale="   95.109">  7  8 -1 -1</clus>
<clus scale="  100.467">  1  5  2 -1</clus>
<clus scale="  100.467">  1  5  2 -1</clus>
</clustering>
</event>
<event>
 9    1  0.1266593E-005  0.1184102E+03  0.7546771E-02  0.1246264E+00
          1   -1    0    0  502    0  0.00000000000E+00  0.00000000000E+00  0.40157930139E+03  0.40157930139E+03  0.00000000000E+00 0. -1.
         -1   -1    0    0    0  501 -0.00000000000E+00 -0.00000000000E+00 -0.11802275030E+03  0.11802275030E+03  0.00000000000E+00 0.  1.
         23    2    1    2    0    0 -0.54634920071E+02  0.75667365947E+02 -0.59415665675E+02  0.14391460115E+03  0.92036222961E+02 0.  0.
         23    2    1    2    0    0  0.48347654305E+02 -0.54305954671E+02  0.33024278004E+03  0.35003831484E+03  0.90442775818E+02 0.  0.
        -11    1    4    4    0    0  0.65420828372E+02 -0.21200571219E+02  0.27458843118E+03  0.28306917095E+03  0.00000000000E+00 0. -1.
         11    1    4    4    0    0 -0.17073174067E+02 -0.33105383452E+02  0.55654348863E+02  0.66969143892E+02  0.00000000000E+00 0.  1.
        -11    1    3    3    0    0 -0.79672831723E+02  0.45190939118E+02 -0.43108495332E+02  0.10123400349E+03  0.00000000000E+00 0.  1.
         11    1    3    3    0    0  0.25037911652E+02  0.30476426829E+02 -0.16307170342E+02  0.42680597661E+02  0.00000000000E+00 0. -1.
         21    1    1    2  502  501  0.62872657666E+01 -0.21361411275E+02  0.12729436727E+02  0.25649135694E+02  0.00000000000E+00 0.  1.
<scales pt_clust_5="13000.00000" pt_clust_6="13000.00000" pt_clust_7="13000.00000" pt_clust_8="13000.00000" pt_clust_9="22.26746"></scales>
<clustering>
<clus scale="   22.267">  2  9  1 -1</clus>
<clus scale="   90.443">  5  6 -1 -1</clus>
<clus scale="   92.036">  7  8 -1 -1</clus>
<clus scale="  117.176">  1  5  2 -1</clus>
<clus scale="  117.176">  1  5  2 -1</clus>
</clustering>
</event>
<event>
 9    1  0.1266593E-005  0.9985830E+02  0.7546771E-02  0.1280823E+00
         -2   -1    0    0    0  501 -0.00000000000E+00  0.00000000000E+00  0.88621211696E+02  0.88621211696E+02  0.00000000000E+00 0.  1.
          2   -1    0    0  502    0  0.00000000000E+00 -0.00000000000E+00 -0.20138889454E+03  0.20138889454E+03  0.00000000000E+00 0. -1.
         23    2    1    2    0    0 -0.54735729895E+01  0.26592829989E+02  0.20965553314E+02  0.98416537852E+02  0.92244901696E+02 0.  0.
         23    2    1    2    0    0 -0.16507258111E+02 -0.37724267517E+02 -0.13256478570E+03  0.16692717194E+03  0.92712719689E+02 0.  0.
        -11    1    4    4    0    0 -0.55002510146E+02 -0.23938520866E+02 -0.70008424699E+02  0.92192778636E+02  0.00000000000E+00 0. -1.
         11    1    4    4    0    0  0.38495252036E+02 -0.13785746650E+02 -0.62556361002E+02  0.74734393299E+02  0.00000000000E+00 0.  1.
        -13    1    3    3    0    0  0.26440178762E+02  0.42378076718E+02  0.34085922717E+02  0.60471766691E+02  0.00000000000E+00 0.  1.
         13    1    3    3    0    0 -0.31913751752E+02 -0.15785246729E+02 -0.13120369403E+02  0.37944771161E+02  0.00000000000E+00 0. -1.
         21    1    1    2  502  501  0.21980831100E+02  0.11131437528E+02 -0.11684504560E+01  0.24666396449E+02  0.00000000000E+00 0.  1.
<scales pt_clust_5="13000.00000" pt_clust_6="13000.00000" pt_clust_7="13000.00000" pt_clust_8="13000.00000" pt_clust_9="24.63871"></scales>
<clustering>
<clus scale="   24.639">  1  9  2 -1</clus>
<clus scale="   92.245">  7  8 -1 -1</clus>
<clus scale="   92.713">  5  6 -1 -1</clus>
<clus scale="   99.424">  1  7  2 -1</clus>
<clus scale="   99.858">  2  5  1 -1</clus>
</clustering>
</event>
<event>
 9    1  0.1266593E-005  0.1043052E+03  0.7546771E-02  0.1271523E+00
          3   -1    0    0  502    0  0.00000000000E+00  0.00000000000E+00  0.12714792757E+03  0.12714792757E+03  0.00000000000E+00 0. -1.
         -3   -1    0    0    0  501 -0.00000000000E+00 -0.00000000000E+00 -0.10842792850E+03  0.10842792850E+03  0.00000000000E+00 0.  1.
         23    2    1    2    0    0  0.51151560097E+02 -0.18874922215E+02 -0.17260274212E+02  0.10759149415E+03  0.91133241782E+02 0.  0.
         23    2    1    2    0    0 -0.46972825276E+02 -0.91794913607E+00  0.32128937154E+02  0.10739183000E+03  0.91068367737E+02 0.  0.
        -13    1    4    4    0    0 -0.57710977657E+02 -0.31058809254E+02  0.36630836366E+02  0.75080122185E+02  0.00000000000E+00 0.  1.
         13    1    4    4    0    0  0.10738152381E+02  0.30140860118E+02 -0.45018992119E+01  0.32311707812E+02  0.00000000000E+00 0. -1.
        -13    1    3    3    0    0  0.54781914045E+02 -0.45623976077E+02 -0.30479122186E+02  0.77534393586E+02  0.00000000000E+00 0.  1.
         13    1    3    3    0    0 -0.36303539482E+01  0.26749053862E+02  0.13218847974E+02  0.30057100560E+02  0.00000000000E+00 0. -1.
         21    1    1    2  502  501 -0.41787348211E+01  0.19792871351E+02  0.38513361301E+01  0.20592531923E+02  0.00000000000E+00 0. -1.
<scales pt_clust_5="13000.00000" pt_clust_6="13000.00000" pt_clust_7="13000.00000" pt_clust_8="13000.00000" pt_clust_9="20.22918"></scales>
<clustering>
<clus scale="   20.229">  1  9  2 -1</clus>
<clus scale="   91.068">  5  6 -1 -1</clus>
<clus scale="   91.133">  7  8 -1 -1</clus>
<clus scale="  104.249">  1  5  2 -1</clus>
<clus scale="   20.229">  1  5  2 -1</clus>
</clustering>
</event>
<event>
 9    1  0.1266593E-005  0.1055178E+03  0.7546771E-02  0.1269484E+00
         -1   -1    0    0    0  501 -0.00000000000E+00  0.00000000000E+00  0.22302592833E+03  0.22302592833E+03  0.00000000000E+00 0.  1.
          1   -1    0    0  502    0  0.00000000000E+00 -0.00000000000E+00 -0.18747730437E+03  0.18747730437E+03  0.00000000000E+00 0. -1.
         23    2    1    2    0    0  0.16235512560E+02  0.11265779673E+03 -0.95369372650E+01  0.14610170237E+03  0.91100950777E+02 0.  0.
         23    2    1    2    0    0  0.13528839046E+01 -0.29776680705E+02 -0.71512378116E+02  0.12027065042E+03  0.91992000310E+02 0.  0.
        -11    1    3    3    0    0  0.25782211109E+02 -0.24513637625E+01  0.12104189389E+02  0.28587462195E+02  0.00000000000E+00 0.  1.
         11    1    3    3    0    0 -0.95466985493E+01  0.11510916049E+03 -0.21641126654E+02  0.11751424018E+03  0.00000000000E+00 0. -1.
        -13    1    4    4    0    0 -0.13846349705E+02 -0.47172385485E+02 -0.44761362127E+01  0.49365890531E+02  0.00000000000E+00 0.  1.
         13    1    4    4    0    0  0.15199233610E+02  0.17395704780E+02 -0.67036241903E+02  0.70904759894E+02  0.00000000000E+00 0. -1.
         21    1    1    2  502  501 -0.17588396465E+02 -0.82881116022E+02  0.11659793934E+03  0.14413087991E+03  0.00000000000E+00 0.  1.
<scales pt_clust_5="13000.00000" pt_clust_6="13000.00000" pt_clust_7="13000.00000" pt_clust_8="13000.00000" pt_clust_9="84.72680"></scales>
<clustering>
<clus scale="   84.727">  1  9  2 -1</clus>
<clus scale="   91.101">  5  6 -1 -1</clus>
<clus scale="   91.992">  7  8 -1 -1</clus>
<clus scale="  104.742">  1  5  2 -1</clus>
<clus scale="  105.518">  2  5  1 -1</clus>
</clustering>
</event>
<event>
 9    1  0.1266593E-005  0.9799433E+02  0.7546771E-02  0.1289251E+00
          1   -1    0    0  502    0  0.00000000000E+00  0.00000000000E+00  0.48932110254E+03  0.48932110254E+03  0.00000000000E+00 0. -1.
         -1   -1    0    0    0  501 -0.00000000000E+00 -0.00000000000E+00 -0.45737400686E+02  0.45737400686E+02  0.00000000000E+00 0.  1.
         23    2    1    2    0    0  0.69077408804E+01  0.15777137722E+02  0.11589113503E+03  0.14916363215E+03  0.92316840378E+02 0.  0.
         23    2    1    2    0    0 -0.66784427188E+02  0.46727821808E+02  0.17391683140E+03  0.20943222820E+03  0.83493382476E+02 0.  0.
        -11    1    4    4    0    0 -0.23012504086E+02  0.62325705421E+02  0.12739401580E+03  0.14367777894E+03  0.00000000000E+00 0.  1.
         11    1    4    4    0    0 -0.43771923102E+02 -0.15597883613E+02  0.46522815604E+02  0.65754449256E+02  0.00000000000E+00 0. -1.
        -11    1    3    3    0    0 -0.42037170625E+02  0.81619527112E+01  0.67348909564E+02  0.79809879123E+02  0.00000000000E+00 0.  1.
         11    1    3    3    0    0  0.48944911506E+02  0.76151850106E+01  0.48542225470E+02  0.69353753025E+02  0.00000000000E+00 0. -1.
         21    1    1    2  502  501  0.59876686308E+02 -0.62504959530E+02  0.15377573542E+03  0.17646264288E+03  0.00000000000E+00 0. -1.
<scales pt_clust_5="13000.00000" pt_clust_6="13000.00000" pt_clust_7="13000.00000" pt_clust_8="13000.00000" pt_clust_9="86.55685"></scales>
<clustering>
<clus scale="   83.493">  5  6 -1 -1</clus>
<clus scale="   86.557">  1  9  2 -1</clus>
<clus scale="   89.731">  1  5  2 -1</clus>
<clus scale="   92.317">  7  8 -1 -1</clus>
<clus scale="   86.557">  1  5  2 -1</clus>
</clustering>
</event>
<event>
 9    1  0.1266593E-005  0.9744250E+02  0.7546771E-02  0.1286051E+00
          1   -1    0    0  502    0  0.00000000000E+00  0.00000000000E+00  0.45887796133E+03  0.45887796133E+03  0.00000000000E+00 0. -1.
         -1   -1    0    0    0  501 -0.00000000000E+00 -0.00000000000E+00 -0.59485551823E+02  0.59485551823E+02  0.00000000000E+00 0.  1.
         23    2    1    2    0    0 -0.20521319602E+02  0.66766772495E+01  0.10288902492E+03  0.13883079566E+03  0.90675993501E+02 0.  0.
         23    2    1    2    0    0  0.27341674499E+02  0.36461542718E+02  0.31574691017E+03  0.33180707931E+03  0.91229465290E+02 0.  0.
        -11    1    3    3    0    0  0.87833138515E+01 -0.35306435123E+02  0.67211826218E+02  0.76427223860E+02  0.00000000000E+00 0. -1.
         11    1    3    3    0    0 -0.29304633454E+02  0.41983112373E+02  0.35677198707E+02  0.62403571804E+02  0.00000000000E+00 0.  1.
        -13    1    4    4    0    0  0.33901730165E+02 -0.22726956586E+02  0.10042905969E+03  0.10840589418E+03  0.00000000000E+00 0. -1.
         13    1    4    4    0    0 -0.65600556665E+01  0.59188499305E+02  0.21531785048E+03  0.22340118512E+03  0.00000000000E+00 0.  1.
         21    1    1    2  502  501 -0.68203548964E+01 -0.43138219968E+02 -0.19243525584E+02  0.47725638181E+02  0.00000000000E+00 0.  1.
<scales pt_clust_5="13000.00000" pt_clust_6="13000.00000" pt_clust_7="13000.00000" pt_clust_8="13000.00000" pt_clust_9="43.67406"></scales>
<clustering>
<clus scale="   43.674">  2  9  1 -1</clus>
<clus scale="   90.676">  5  6 -1 -1</clus>
<clus scale="   91.229">  7  8 -1 -1</clus>
<clus scale="   96.925">  2  5  1 -1</clus>
<clus scale="   97.442">  1  5  2 -1</clus>
</clustering>
</event>
<event>
 9    1  0.1266593E-005  0.2283862E+03  0.7546771E-02  0.1127956E+00
         -1   -1    0    0    0  501 -0.00000000000E+00  0.00000000000E+00  0.11803902435E+04  0.11803902435E+04  0.00000000000E+00 0.  1.
          1   -1    0    0  502    0  0.00000000000E+00 -0.00000000000E+00 -0.11584125272E+03  0.11584125272E+03  0.00000000000E+00 0. -1.
         23    2    1    2    0    0  0.17138547524E+03  0.14234596949E+03  0.82878449619E+03  0.86267360263E+03  0.87673527319E+02 0.  0.
         23    2    1    2    0    0 -0.13820745926E+03 -0.15562193984E+03  0.34862207657E+02  0.22950211438E+03  0.90201757361E+02 0.  0.
        -11    1    3    3    0    0  0.76720747112E+02  0.10994182391E+03  0.56127761396E+03  0.57706657988E+03  0.00000000000E+00 0. -1.
         11    1    3    3    0    0  0.94664728128E+02  0.32404145580E+02  0.26750688223E+03  0.28560702275E+03  0.00000000000E+00 0.  1.
        -11    1    4    4    0    0 -0.99506125070E+02 -0.64652346780E+02  0.51310602950E+02  0.12928330459E+03  0.00000000000E+00 0. -1.
         11    1    4    4    0    0 -0.38701334187E+02 -0.90969593056E+02 -0.16448395293E+02  0.10021880979E+03  0.00000000000E+00 0.  1.
         21    1    1    2  502  501 -0.33178015982E+02  0.13275970348E+02  0.20090228692E+03  0.20405577920E+03  0.00000000000E+00 0.  1.
<scales pt_clust_5="13000.00000" pt_clust_6="13000.00000" pt_clust_7="13000.00000" pt_clust_8="13000.00000" pt_clust_9="35.73559"></scales>
<clustering>
<clus scale="   35.736">  1  9  2 -1</clus>
<clus scale="   87.674">  5  6 -1 -1</clus>
<clus scale="   90.202">  7  8 -1 -1</clus>
<clus scale="  227.400">  1  5  2 -1</clus>
<clus scale="  228.386">  2  5  1 -1</clus>
</clustering>
</event>
<event>
 9    1  0.1266593E-005  0.9716536E+02  0.7546771E-02  0.1289791E+00
         -2   -1    0    0    0  501 -0.00000000000E+00  0.00000000000E+00  0.21882768003E+02  0.21882768003E+02  0.00000000000E+00 0.  1.
          2   -1    0    0  502    0  0.00000000000E+00 -0.00000000000E+00 -0.54621163000E+03  0.54621163000E+03  0.00000000000E+00 0. -1.
         23    2    1    2    0    0 -0.25724038847E+02  0.57102809882E+01 -0.16372325212E+03  0.18620057743E+03  0.84681865043E+02 0.  0.
         23    2    1    2    0    0  0.28739792359E+02 -0.28570450557E+02 -0.32011371050E+03  0.33529686749E+03  0.91153471599E+02 0.  0.
        -11    1    3    3    0    0 -0.51545038088E+02 -0.91874778539E+01 -0.13502665636E+03  0.14482230018E+03  0.00000000000E+00 0. -1.
         11    1    3    3    0    0  0.25820999241E+02  0.14897758842E+02 -0.28696595761E+02  0.41378277255E+02  0.00000000000E+00 0.  1.
        -13    1    4    4    0    0  0.18637991627E+02  0.28332944507E+02 -0.18889016606E+03  0.19191046170E+03  0.00000000000E+00 0.  1.
         13    1    4    4    0    0  0.10101800731E+02 -0.56903395064E+02 -0.13122354445E+03  0.14338640579E+03  0.00000000000E+00 0. -1.
         21    1    1    2  502  501 -0.30157535114E+01  0.22860169569E+02 -0.40491899379E+02  0.46596953090E+02  0.00000000000E+00 0.  1.
<scales pt_clust_5="13000.00000" pt_clust_6="13000.00000" pt_clust_7="13000.00000" pt_clust_8="13000.00000" pt_clust_9="23.05823"></scales>
<clustering>
<clus scale="   23.058">  1  9  2 -1</clus>
<clus scale="   84.682">  5  6 -1 -1</clus>
<clus scale="   91.122">  1  5  2 -1</clus>
<clus scale="   91.153">  7  8 -1 -1</clus>
<clus scale="   97.165">  2  5  1 -1</clus>
</clustering>
</event>
<event>
 9    1  0.1266593E-005  0.1017825E+03  0.7546771E-02  0.1276779E+00
         -2   -1    0    0    0  501 -0.00000000000E+00  0.00000000000E+00  0.54715066545E+02  0.54715066545E+02  0.00000000000E+00 0.  1.
          2   -1    0    0  502    0  0.00000000000E+00 -0.00000000000E+00 -0.30632370449E+03  0.30632370449E+03  0.00000000000E+00 0. -1.
         23    2    1    2    0    0 -0.42956985423E+01  0.20097043710E+02 -0.39594304333E+02  0.10148869542E+03  0.91158664816E+02 0.  0.
         23    2    1    2    0    0 -0.66871266139E+01 -0.57308359271E+02 -0.17794328272E+03  0.20791538802E+03  0.90752581260E+02 0.  0.
        -11    1    4    4    0    0  0.30798561023E+02  0.82053058982E+01 -0.58572495390E+02  0.66682948511E+02  0.00000000000E+00 0. -1.
         11    1    4    4    0    0 -0.37485687637E+02 -0.65513665169E+02 -0.11937078733E+03  0.14123243951E+03  0.00000000000E+00 0.  1.
        -11    1    3    3    0    0 -0.36045996898E+02 -0.20454877146E+02 -0.22881028822E+02  0.47341919811E+02  0.00000000000E+00 0.  1.
         11    1    3    3    0    0  0.31750298356E+02  0.40551920856E+02 -0.16713275511E+02  0.54146775611E+02  0.00000000000E+00 0. -1.
         21    1    1    2  502  501  0.10982825156E+02  0.37211315561E+02 -0.34071050897E+02  0.51634687598E+02  0.00000000000E+00 0. -1.
<scales pt_clust_5="13000.00000" pt_clust_6="13000.00000" pt_clust_7="13000.00000" pt_clust_8="13000.00000" pt_clust_9="38.79825"></scales>
<clustering>
<clus scale="   38.798">  1  9  2 -1</clus>
<clus scale="   90.753">  5  6 -1 -1</clus>
<clus scale="   91.159">  7  8 -1 -1</clus>
<clus scale="  101.419">  2  5  1 -1</clus>
<clus scale="  101.419">  2  5  1 -1</clus>
</clustering>
</event>
<event>
 9    1  0.1266593E-005  0.3195586E+03  0.7546771E-02  0.1075897E+00
          1   -1    0    0  502    0  0.00000000000E+00  0.00000000000E+00  0.12213404343E+04  0.12213404343E+04  0.00000000000E+00 0. -1.
         -1   -1    0    0    0  501 -0.00000000000E+00 -0.00000000000E+00 -0.28337182089E+03  0.28337182089E+03  0.00000000000E+00 0.  1.
         23    2    1    2    0    0  0.26308898765E+03  0.20317408419E+03 -0.82137080625E+02  0.35405574001E+03  0.90074653010E+02 0.  0.
         23    2    1    2    0    0 -0.24987381259E+03 -0.17216923602E+03  0.10553389373E+04  0.11018987169E+04  0.91440371851E+02 0.  0.
        -11    1    3    3    0    0  0.16014459382E+03  0.17377002802E+03 -0.43782884468E+02  0.24033155128E+03  0.00000000000E+00 0.  1.
         11    1    3    3    0    0  0.10294439383E+03  0.29404056162E+02 -0.38354196157E+02  0.11372418873E+03  0.00000000000E+00 0. -1.
        -13    1    4    4    0    0 -0.18389132611E+03 -0.17062890457E+03  0.84438761315E+03  0.88086360132E+03  0.00000000000E+00 0. -1.
         13    1    4    4    0    0 -0.65982486483E+02 -0.15403314419E+01  0.21095132415E+03  0.22103511554E+03  0.00000000000E+00 0.  1.
         21    1    1    2  502  501 -0.13215175056E+02 -0.31004848171E+02 -0.35233243282E+02  0.48757798289E+02  0.00000000000E+00 0.  1.
<scales pt_clust_5="13000.00000" pt_clust_6="13000.00000" pt_clust_7="13000.00000" pt_clust_8="13000.00000" pt_clust_9="33.70373"></scales>
<clustering>
<clus scale="   33.704">  2  9  1 -1</clus>
<clus scale="   90.075">  5  6 -1 -1</clus>
<clus scale="   91.440">  7  8 -1 -1</clus>
<clus scale="  319.171">  2  5  1 -1</clus>
<clus scale="  319.559">  1  5  2 -1</clus>
</clustering>
</event>
<event>
 9    1  0.1266593E-005  0.1516177E+03  0.7546771E-02  0.1222048E+00
         -1   -1    0    0    0  501 -0.00000000000E+00  0.00000000000E+00  0.28640032634E+03  0.28640032634E+03  0.00000000000E+00 0.  1.
          1   -1    0    0  502    0  0.00000000000E+00 -0.00000000000E+00 -0.15073006265E+03  0.15073006265E+03  0.00000000000E+00 0. -1.
         23    2    1    2    0    0 -0.11457260167E+03  0.43078427672E+02  0.89722211059E+02  0.17792486395E+03  0.92868455746E+02 0.  0.
         23    2    1    2    0    0  0.41206229755E+01 -0.87884567403E+00 -0.52206972672E+02  0.10553427427E+03  0.91619665723E+02 0.  0.
        -11    1    4    4    0    0 -0.20726145187E+02  0.18190472169E+02 -0.65834751352E+02  0.71377033124E+02  0.00000000000E+00 0.  1.
         11    1    4    4    0    0  0.24846768163E+02 -0.19069317843E+02  0.13627778680E+02  0.34157241149E+02  0.00000000000E+00 0. -1.
        -11    1    3    3    0    0 -0.10068563967E+03  0.67057832147E+02  0.53387001267E+02  0.13222905427E+03  0.00000000000E+00 0. -1.
         11    1    3    3    0    0 -0.13886961997E+02 -0.23979404475E+02  0.36335209792E+02  0.45695809688E+02  0.00000000000E+00 0.  1.
         21    1    1    2  502  501  0.11045197869E+03 -0.42199581998E+02  0.98155025306E+02  0.15367125076E+03  0.00000000000E+00 0. -1.
<scales pt_clust_5="13000.00000" pt_clust_6="13000.00000" pt_clust_7="13000.00000" pt_clust_8="13000.00000" pt_clust_9="119.84725"></scales>
<clustering>
<clus scale="   91.620">  5  6 -1 -1</clus>
<clus scale="   91.716">  2  5  1 -1</clus>
<clus scale="   92.868">  7  8 -1 -1</clus>
<clus scale="  119.847">  1  9  2 -1</clus>
<clus scale="   91.716">  2  5  1 -1</clus>
</clustering>
</event>
<event>
 9    1  0.1266593E-005  0.1126219E+03  0.7546771E-02  0.1257461E+00
         -1   -1    0    0    0  501 -0.00000000000E+00  0.00000000000E+00  0.38395287540E+03  0.38395287540E+03  0.00000000000E+00 0.  1.
          1   -1    0    0  502    0  0.00000000000E+00 -0.00000000000E+00 -0.49692871810E+02  0.49692871810E+02  0.00000000000E+00 0. -1.
         23    2    1    2    0    0  0.27338669735E+02 -0.33612950950E+02  0.19159521794E+03  0.21452405665E+03  0.86224184604E+02 0.  0.
         23    2    1    2    0    0 -0.42853627949E+02  0.66420551502E+02  0.73603326335E+02  0.14110542466E+03  0.90802908158E+02 0.  0.
        -11    1    3    3    0    0 -0.27582540177E+02 -0.29014444183E+02  0.98705954759E+02  0.10651525712E+03  0.00000000000E+00 0. -1.
         11    1    3    3    0    0  0.54921209912E+02 -0.45985067675E+01  0.92889263179E+02  0.10800879953E+03  0.00000000000E+00 0.  1.
        -13    1    4    4    0    0  0.82275946208E+01  0.66395325729E+02  0.55448134013E+02  0.86893775136E+02  0.00000000000E+00 0.  1.
         13    1    4    4    0    0 -0.51081222570E+02  0.25225773467E-01  0.18155192323E+02  0.54211649522E+02  0.00000000000E+00 0. -1.
         21    1    1    2  502  501  0.15514958214E+02 -0.32807600552E+02  0.69061459315E+02  0.78016265901E+02  0.00000000000E+00 0. -1.
<scales pt_clust_5="13000.00000" pt_clust_6="13000.00000" pt_clust_7="13000.00000" pt_clust_8="13000.00000" pt_clust_9="36.29122"></scales>
<clustering>
<clus scale="   36.291">  1  9  2 -1</clus>
<clus scale="   86.224">  5  6 -1 -1</clus>
<clus scale="   90.803">  7  8 -1 -1</clus>
<clus scale="  108.964">  1  5  2 -1</clus>
<clus scale="  112.622">  2  5  1 -1</clus>
</clustering>
</event>
<event>
 9    1  0.1266593E-005  0.1115832E+03  0.7546771E-02  0.1262689E+00
          1   -1    0    0  502    0  0.00000000000E+00  0.00000000000E+00  0.32455060763E+02  0.32455060763E+02  0.00000000000E+00 0. -1.
         -1   -1    0    0    0  501 -0.00000000000E+00 -0.00000000000E+00 -0.69724329458E+03  0.69724329458E+03  0.00000000000E+00 0.  1.
         23    2    1    2    0    0 -0.26948079439E+02  0.75585069506E+02 -0.34276090361E+03  0.36381926454E+03  0.91870117531E+02 0.  0.
         23    2    1    2    0    0  0.23581708733E+02 -0.13528541661E+02 -0.16036751000E+03  0.19268485714E+03  0.10329858413E+03 0.  0.
        -11    1    4    4    0    0  0.41746802634E+02 -0.29581087069E+02 -0.16048427376E+03  0.16844298254E+03  0.00000000000E+00 0.  1.
         11    1    4    4    0    0 -0.18165093901E+02  0.16052545409E+02  0.11676376406E+00  0.24241874604E+02  0.00000000000E+00 0. -1.
        -13    1    3    3    0    0 -0.52909979015E+02  0.14309459255E+02 -0.13671469614E+03  0.14729268361E+03  0.00000000000E+00 0. -1.
         13    1    3    3    0    0  0.25961899576E+02  0.61275610251E+02 -0.20604620746E+03  0.21652658094E+03  0.00000000000E+00 0.  1.
         21    1    1    2  502  501  0.33663707062E+01 -0.62056527846E+02 -0.16165982022E+03  0.17319423366E+03  0.00000000000E+00 0.  1.
<scales pt_clust_5="13000.00000" pt_clust_6="13000.00000" pt_clust_7="13000.00000" pt_clust_8="13000.00000" pt_clust_9="62.14777"></scales>
<clustering>
<clus scale="   62.148">  2  9  1 -1</clus>
<clus scale="   91.870">  7  8 -1 -1</clus>
<clus scale="  101.096">  2  7  1 -1</clus>
<clus scale="  103.299">  5  6 -1 -1</clus>
<clus scale="  111.583">  1  5  2 -1</clus>
</clustering>
</event>
<event>
 9    1  0.1266593E-005  0.9775236E+02  0.7546771E-02  0.1285316E+00
         -1   -1    0    0    0  501 -0.00000000000E+00  0.00000000000E+00  0.41129370923E+02  0.41129370923E+02  0.00000000000E+00 0.  1.
          1   -1    0    0  502    0  0.00000000000E+00 -0.00000000000E+00 -0.63540268328E+03  0.63540268328E+03  0.00000000000E+00 0. -1.
         23    2    1    2    0    0  0.69093707257E+01 -0.16213107166E+02 -0.90625414203E+02  0.13043128766E+03  0.92134417307E+02 0.  0.
         23    2    1    2    0    0  0.43351416074E+01  0.34945486604E+02 -0.51290016396E+03  0.52237429358E+03  0.92565349429E+02 0.  0.
        -11    1    4    4    0    0 -0.32299079435E+02 -0.14854089654E+02 -0.14360586064E+03  0.14794092646E+03  0.00000000000E+00 0.  1.
         11    1    4    4    0    0  0.36634221043E+02  0.49799576259E+02 -0.36929430332E+03  0.37443336712E+03  0.00000000000E+00 0. -1.
        -13    1    3    3    0    0 -0.16833717521E+02  0.33665806221E+02 -0.27928177634E+02  0.46869432043E+02  0.00000000000E+00 0. -1.
         13    1    3    3    0    0  0.23743088246E+02 -0.49878913387E+02 -0.62697236568E+02  0.83561855613E+02  0.00000000000E+00 0.  1.
         21    1    1    2  502  501 -0.11244512333E+02 -0.18732379438E+02  0.92522658046E+01  0.23726472969E+02  0.00000000000E+00 0.  1.
<scales pt_clust_5="13000.00000" pt_clust_6="13000.00000" pt_clust_7="13000.00000" pt_clust_8="13000.00000" pt_clust_9="21.84814"></scales>
<clustering>
<clus scale="   21.848">  1  9  2 -1</clus>
<clus scale="   92.134">  7  8 -1 -1</clus>
<clus scale="   92.565">  5  6 -1 -1</clus>
<clus scale="   97.344">  1  7  2 -1</clus>
<clus scale="   97.752">  2  5  1 -1</clus>
</clustering>
</event>
<event>
 9    1  0.1266593E-005  0.1336543E+03  0.7546771E-02  0.1222154E+00
         -1   -1    0    0    0  501 -0.00000000000E+00  0.00000000000E+00  0.56213081207E+02  0.56213081207E+02  0.00000000000E+00 0.  1.
          1   -1    0    0  502    0  0.00000000000E+00 -0.00000000000E+00 -0.57766849125E+03  0.57766849125E+03  0.00000000000E+00 0. -1.
         23    2    1    2    0    0  0.86821343405E+02  0.66223711322E+02 -0.28843909006E+03  0.32171281328E+03  0.91534146302E+02 0.  0.
         23    2    1    2    0    0 -0.57924409162E+02 -0.65609916182E+02 -0.24886527653E+03  0.27920515839E+03  0.91442311495E+02 0.  0.
        -11    1    4    4    0    0 -0.51241087108E+02 -0.13124163950E+02 -0.20104705119E+03  0.20788893544E+03  0.00000000000E+00 0.  1.
         11    1    4    4    0    0 -0.66833220540E+01 -0.52485752232E+02 -0.47818225343E+02  0.71316222951E+02  0.00000000000E+00 0. -1.
        -13    1    3    3    0    0  0.56789330996E+02  0.75209307072E+02 -0.13215433731E+03  0.16231523914E+03  0.00000000000E+00 0.  1.
         13    1    3    3    0    0  0.30032012409E+02 -0.89855957500E+01 -0.15628475275E+03  0.15939757414E+03  0.00000000000E+00 0. -1.
         21    1    1    2  502  501 -0.28896934243E+02 -0.61379513982E+00  0.15848956551E+02  0.32963600788E+02  0.00000000000E+00 0. -1.
<scales pt_clust_5="13000.00000" pt_clust_6="13000.00000" pt_clust_7="13000.00000" pt_clust_8="13000.00000" pt_clust_9="28.90345"></scales>
<clustering>
<clus scale="   28.903">  1  9  2 -1</clus>
<clus scale="   91.442">  5  6 -1 -1</clus>
<clus scale="   91.534">  7  8 -1 -1</clus>
<clus scale="  133.591">  2  5  1 -1</clus>
<clus scale="  133.591">  2  5  1 -1</clus>
</clustering>
</event>
<event>
 9    1  0.1266593E-005  0.1164745E+03  0.7546771E-02  0.1249308E+00
         -2   -1    0    0    0  501 -0.00000000000E+00  0.00000000000E+00  0.38380990996E+02  0.38380990996E+02  0.00000000000E+00 0.  1.
          2   -1    0    0  502    0  0.00000000000E+00 -0.00000000000E+00 -0.77552563082E+03  0.77552563082E+03  0.00000000000E+00 0. -1.
         23    2    1    2    0    0 -0.14565434191E+02  0.10034068942E+03 -0.34551207395E+03  0.37130755762E+03  0.90610723850E+02 0.  0.
         23    2    1    2    0    0  0.23539273005E+02 -0.51082918862E+02 -0.37465250179E+03  0.38972959928E+03  0.91439058877E+02 0.  0.
        -11    1    4    4    0    0 -0.25075117425E+02 -0.15952769556E+02 -0.40487104865E+02  0.50224078197E+02  0.00000000000E+00 0. -1.
         11    1    4    4    0    0  0.48614390430E+02 -0.35130149306E+02 -0.33416539692E+03  0.33950552109E+03  0.00000000000E+00 0.  1.
        -13    1    3    3    0    0  0.69876162692E+01  0.92956006458E+02 -0.33195668801E+03  0.34479688025E+03  0.00000000000E+00 0. -1.
         13    1    3    3    0    0 -0.21553050460E+02  0.73846829648E+01 -0.13555385937E+02  0.26510677368E+02  0.00000000000E+00 0.  1.
         21    1    1    2  502  501 -0.89738388143E+01 -0.49257770562E+02 -0.16980064092E+02  0.52869464914E+02  0.00000000000E+00 0.  1.
<scales pt_clust_5="13000.00000" pt_clust_6="13000.00000" pt_clust_7="13000.00000" pt_clust_8="13000.00000" pt_clust_9="50.06853"></scales>
<clustering>
<clus scale="   50.069">  1  9  2 -1</clus>
<clus scale="   90.611">  7  8 -1 -1</clus>
<clus scale="   91.439">  5  6 -1 -1</clus>
<clus scale="  115.825">  1  7  2 -1</clus>
<clus scale="  116.475">  2  5  1 -1</clus>
</clustering>
</event>
<event>
 9    1  0.1266593E-005  0.1036429E+03  0.7546771E-02  0.1273043E+00
         -1   -1    0    0    0  501 -0.00000000000E+00  0.00000000000E+00  0.16034915038E+03  0.16034915038E+03  0.00000000000E+00 0.  1.
          1   -1    0    0  502    0  0.00000000000E+00 -0.00000000000E+00 -0.12838033836E+03  0.12838033836E+03  0.00000000000E+00 0. -1.
         23    2    1    2    0    0 -0.79336279374E+01 -0.14787668742E+02  0.70276377112E+02  0.11887434939E+03  0.94396632163E+02 0.  0.
         23    2    1    2    0    0 -0.70041817572E+01  0.51869981446E+02 -0.61283587634E+02  0.12374512215E+03  0.93902202346E+02 0.  0.
        -13    1    4    4    0    0 -0.38689820720E+02 -0.33012584045E+01 -0.42144970666E+02  0.57306187161E+02  0.00000000000E+00 0.  1.
         13    1    4    4    0    0  0.31685638963E+02  0.55171239850E+02 -0.19138616968E+02  0.66438934990E+02  0.00000000000E+00 0. -1.
        -13    1    3    3    0    0 -0.38237834451E+02 -0.35017178110E+02  0.17461338598E+02  0.54710447740E+02  0.00000000000E+00 0.  1.
         13    1    3    3    0    0  0.30304206513E+02  0.20229509368E+02  0.52815038514E+02  0.64163901650E+02  0.00000000000E+00 0. -1.
         21    1    1    2  502  501  0.14937809695E+02 -0.37082312704E+02  0.22976022548E+02  0.46110017198E+02  0.00000000000E+00 0. -1.
<scales pt_clust_5="13000.00000" pt_clust_6="13000.00000" pt_clust_7="13000.00000" pt_clust_8="13000.00000" pt_clust_9="39.97794"></scales>
<clustering>
<clus scale="   39.978">  1  9  2 -1</clus>
<clus scale="   93.902">  5  6 -1 -1</clus>
<clus scale="   94.397">  7  8 -1 -1</clus>
<clus scale="  103.193">  2  5  1 -1</clus>
<clus scale="  103.193">  2  5  1 -1</clus>
</clustering>
</event>
<event>
 9    1  0.1266593E-005  0.1116040E+03  0.7546771E-02  0.1258042E+00
          2   -1    0    0  502    0  0.00000000000E+00  0.00000000000E+00  0.25916301103E+03  0.25916301103E+03  0.00000000000E+00 0. -1.
         -2   -1    0    0    0  501 -0.00000000000E+00 -0.00000000000E+00 -0.11796166568E+03  0.11796166568E+03  0.00000000000E+00 0.  1.
         23    2    1    2    0    0  0.51197433645E+02  0.36420512585E+02 -0.17213920410E+02  0.11234734677E+03  0.91531286022E+02 0.  0.
         23    2    1    2    0    0 -0.15890689141E+02 -0.65355784390E+02  0.18148686335E+03  0.21362936051E+03  0.90421952815E+02 0.  0.
        -11    1    3    3    0    0  0.43025951163E+02  0.13225339322E+02  0.33416235531E+02  0.56060564310E+02  0.00000000000E+00 0. -1.
         11    1    3    3    0    0  0.81714824827E+01  0.23195173263E+02 -0.50630155942E+02  0.56286782457E+02  0.00000000000E+00 0.  1.
        -11    1    4    4    0    0  0.33260487758E+02 -0.35977385891E+02  0.48982697932E+02  0.69281577913E+02  0.00000000000E+00 0.  1.
         11    1    4    4    0    0 -0.49151176900E+02 -0.29378398499E+02  0.13250416542E+03  0.14434778260E+03  0.00000000000E+00 0. -1.
         21    1    1    2  502  501 -0.35306744504E+02  0.28935271805E+02 -0.23071597582E+02  0.51147969431E+02  0.00000000000E+00 0.  1.
<scales pt_clust_5="13000.00000" pt_clust_6="13000.00000" pt_clust_7="13000.00000" pt_clust_8="13000.00000" pt_clust_9="45.64884"></scales>
<clustering>
<clus scale="   45.649">  2  9  1 -1</clus>
<clus scale="   90.422">  7  8 -1 -1</clus>
<clus scale="   91.531">  5  6 -1 -1</clus>
<clus scale="  110.696">  1  7  2 -1</clus>
<clus scale="  110.696">  1  5  2 -1</clus>
</clustering>
</event>
<event>
 9    1  0.1266593E-005  0.1138870E+03  0.7546771E-02  0.1258863E+00
          1   -1    0    0  502    0  0.00000000000E+00  0.00000000000E+00  0.63691449904E+03  0.63691449904E+03  0.00000000000E+00 0. -1.
         -1   -1    0    0    0  501 -0.00000000000E+00 -0.00000000000E+00 -0.50687582110E+02  0.50687582110E+02  0.00000000000E+00 0.  1.
         23    2    1    2    0    0  0.36134291142E+02 -0.36726209837E+02  0.28437798816E+03  0.30237176497E+03  0.88900745870E+02 0.  0.
         23    2    1    2    0    0 -0.14164711180E+02  0.52180206155E+02  0.32804369426E+03  0.34771159840E+03  0.10181982793E+03 0.  0.
        -13    1    4    4    0    0 -0.55591394391E+02  0.23634824247E+02  0.22609328182E+03  0.23402388795E+03  0.00000000000E+00 0. -1.
         13    1    4    4    0    0  0.41426683211E+02  0.28545381908E+02  0.10195041244E+03  0.11368771044E+03  0.00000000000E+00 0.  1.
        -13    1    3    3    0    0  0.77421435448E+01  0.23771767487E+02  0.28504148274E+02  0.37914696161E+02  0.00000000000E+00 0. -1.
         13    1    3    3    0    0  0.28392147598E+02 -0.60497977324E+02  0.25587383989E+03  0.26445706881E+03  0.00000000000E+00 0.  1.
         21    1    1    2  502  501 -0.21969579963E+02 -0.15453996318E+02 -0.26194765481E+02  0.37518717789E+02  0.00000000000E+00 0.  1.
<scales pt_clust_5="13000.00000" pt_clust_6="13000.00000" pt_clust_7="13000.00000" pt_clust_8="13000.00000" pt_clust_9="26.86054"></scales>
<clustering>
<clus scale="   26.861">  2  9  1 -1</clus>
<clus scale="   88.901">  7  8 -1 -1</clus>
<clus scale="  101.820">  5  6 -1 -1</clus>
<clus scale="  102.500">  2  7  1 -1</clus>
<clus scale="  113.887">  1  5  2 -1</clus>
</clustering>
</event>
<event>
 9    1  0.1266593E-005  0.9151306E+02  0.7546771E-02  0.1303768E+00
         -1   -1    0    0    0  501 -0.00000000000E+00  0.00000000000E+00  0.46732014439E+02  0.46732014439E+02  0.00000000000E+00 0.  1.
          1   -1    0    0  502    0  0.00000000000E+00 -0.00000000000E+00 -0.47596389843E+03  0.47596389843E+03  0.00000000000E+00 0. -1.
         23    2    1    2    0    0  0.13388320673E+02 -0.13593784902E+02 -0.19159201542E+03  0.21309780276E+03  0.91318864685E+02 0.  0.
         23    2    1    2    0    0  0.92858390809E+01  0.11774519055E+01 -0.26125898445E+03  0.27458174992E+03  0.83971824020E+02 0.  0.
        -13    1    3    3    0    0 -0.24282287510E+02  0.12980951750E+02 -0.16635562073E+02  0.32169496741E+02  0.00000000000E+00 0.  1.
         13    1    3    3    0    0  0.37670608183E+02 -0.26574736651E+02 -0.17495645335E+03  0.18092830602E+03  0.00000000000E+00 0. -1.
        -13    1    4    4    0    0 -0.25146079792E+02  0.26868523699E+02 -0.16681664253E+03  0.17082750106E+03  0.00000000000E+00 0.  1.
         13    1    4    4    0    0  0.34431918873E+02 -0.25691071793E+02 -0.94442341930E+02  0.10375424886E+03  0.00000000000E+00 0. -1.
         21    1    1    2  502  501 -0.22674159754E+02  0.12416332996E+02  0.23619115890E+02  0.35016360191E+02  0.00000000000E+00 0.  1.
<scales pt_clust_5="13000.00000" pt_clust_6="13000.00000" pt_clust_7="13000.00000" pt_clust_8="13000.00000" pt_clust_9="25.85117"></scales>
<clustering>
<clus scale="   25.851">  1  9  2 -1</clus>
<clus scale="   83.972">  7  8 -1 -1</clus>
<clus scale="   84.183">  2  7  1 -1</clus>
<clus scale="   91.319">  5  6 -1 -1</clus>
<clus scale="   84.183">  2  5  1 -1</clus>
</clustering>
</event>
<event>
 9    1  0.1266593E-005  0.2130190E+03  0.7546771E-02  0.1139292E+00
          1   -1    0    0  502    0  0.00000000000E+00  0.00000000000E+00  0.84899168478E+03  0.84899168478E+03  0.00000000000E+00 0. -1.
         -1   -1    0    0    0  501 -0.00000000000E+00 -0.00000000000E+00 -0.16346431833E+03  0.16346431833E+03  0.00000000000E+00 0.  1.
         23    2    1    2    0    0  0.23985238146E+03 -0.70542738861E+01  0.24459835099E+03  0.35309541138E+03  0.85258949977E+02 0.  0.
         23    2    1    2    0    0 -0.17763237070E+03 -0.30545920981E+02  0.51690013301E+03  0.55420967592E+03  0.86465628831E+02 0.  0.
        -13    1    3    3    0    0  0.19277877653E+03 -0.29148849834E+02  0.22450366842E+03  0.29734695099E+03  0.00000000000E+00 0.  1.
         13    1    3    3    0    0  0.47073604934E+02  0.22094575948E+02  0.20094682571E+02  0.55748460386E+02  0.00000000000E+00 0. -1.
        -13    1    4    4    0    0 -0.14715923879E+03 -0.46263680965E+00  0.46020222449E+03  0.48315850714E+03  0.00000000000E+00 0. -1.
         13    1    4    4    0    0 -0.30473131907E+02 -0.30083284172E+02  0.56697908522E+02  0.71051168784E+02  0.00000000000E+00 0.  1.
         21    1    1    2  502  501 -0.62220010766E+02  0.37600194868E+02 -0.75971117550E+02  0.10515091581E+03  0.00000000000E+00 0.  1.
<scales pt_clust_5="13000.00000" pt_clust_6="13000.00000" pt_clust_7="13000.00000" pt_clust_8="13000.00000" pt_clust_9="72.69872"></scales>
<clustering>
<clus scale="   72.699">  2  9  1 -1</clus>
<clus scale="   85.259">  5  6 -1 -1</clus>
<clus scale="   86.466">  7  8 -1 -1</clus>
<clus scale="  212.532">  2  5  1 -1</clus>
<clus scale="  213.019">  1  5  2 -1</clus>
</clustering>
</event>
<event>
 9    1  0.1266593E-005  0.1721329E+03  0.7546771E-02  0.1175957E+00
          1   -1    0    0  502    0  0.00000000000E+00  0.00000000000E+00  0.63614740033E+03  0.63614740033E+03  0.00000000000E+00 0. -1.
         -1   -1    0    0    0  501 -0.00000000000E+00 -0.00000000000E+00 -0.57900412856E+02  0.57900412856E+02  0.00000000000E+00 0.  1.
         23    2    1    2    0    0  0.85194930771E+02  0.10567134231E+03  0.24723638001E+03  0.29715334181E+03  0.93539682147E+02 0.  0.
         23    2    1    2    0    0 -0.82473408140E+02 -0.12865641301E+03  0.32848271541E+03  0.37361120702E+03  0.91269403599E+02 0.  0.
        -11    1    4    4    0    0  0.64236063766E+01 -0.68327402832E+02  0.10199804579E+03  0.12293696776E+03  0.00000000000E+00 0.  1.
         11    1    4    4    0    0 -0.88897014517E+02 -0.60329010173E+02  0.22648466962E+03  0.25067423927E+03  0.00000000000E+00 0. -1.
        -13    1    3    3    0    0  0.10343561859E+03  0.70565126338E+02  0.18410168369E+03  0.22264724159E+03  0.00000000000E+00 0.  1.
         13    1    3    3    0    0 -0.18240687818E+02  0.35106215969E+02  0.63134696313E+02  0.74506100222E+02  0.00000000000E+00 0. -1.
         21    1    1    2  502  501 -0.27215226310E+01  0.22985070698E+02  0.25278920527E+01  0.23283264347E+02  0.00000000000E+00 0.  1.
<scales pt_clust_5="13000.00000" pt_clust_6="13000.00000" pt_clust_7="13000.00000" pt_clust_8="13000.00000" pt_clust_9="23.14563"></scales>
<clustering>
<clus scale="   23.146">  2  9  1 -1</clus>
<clus scale="   91.269">  5  6 -1 -1</clus>
<clus scale="   93.540">  7  8 -1 -1</clus>
<clus scale="  170.910">  1  5  2 -1</clus>
<clus scale="  170.910">  1  5  2 -1</clus>
</clustering>
</event>
<event>
 9    1  0.1266593E-005  0.1291610E+03  0.7546771E-02  0.1229353E+00
          2   -1    0    0  502    0  0.00000000000E+00  0.00000000000E+00  0.74807204112E+03  0.74807204112E+03  0.00000000000E+00 0. -1.
         -2   -1    0    0    0  501 -0.00000000000E+00 -0.00000000000E+00 -0.35183083062E+02  0.35183083062E+02  0.00000000000E+00 0.  1.
         23    2    1    2    0    0 -0.28146093157E+02 -0.71213750562E+02  0.15468436457E+03  0.19541440894E+03  0.91629349834E+02 0.  0.
         23    2    1    2    0    0  0.56297613144E+02  0.79499924361E+02  0.53311067103E+03  0.54922888158E+03  0.89194829335E+02 0.  0.
        -11    1    3    3    0    0  0.31256136523E+02 -0.25403397402E+02  0.79966484334E+02  0.89537239664E+02  0.00000000000E+00 0. -1.
         11    1    3    3    0    0 -0.59402229680E+02 -0.45810353160E+02  0.74717880235E+02  0.10587716928E+03  0.00000000000E+00 0.  1.
        -13    1    4    4    0    0  0.55341899208E+02  0.33332260197E+01  0.24762995911E+03  0.25376058175E+03  0.00000000000E+00 0.  1.
         13    1    4    4    0    0  0.95571393643E+00  0.76166698341E+02  0.28548071192E+03  0.29546829983E+03  0.00000000000E+00 0. -1.
         21    1    1    2  502  501 -0.28151519987E+02 -0.82861737994E+01  0.25093922456E+02  0.38611833653E+02  0.00000000000E+00 0. -1.
<scales pt_clust_5="13000.00000" pt_clust_6="13000.00000" pt_clust_7="13000.00000" pt_clust_8="13000.00000" pt_clust_9="29.34568"></scales>
<clustering>
<clus scale="   29.346">  2  9  1 -1</clus>
<clus scale="   89.195">  7  8 -1 -1</clus>
<clus scale="   91.629">  5  6 -1 -1</clus>
<clus scale="  127.445">  1  7  2 -1</clus>
<clus scale="  127.445">  1  5  2 -1</clus>
</clustering>
</event>
<event>
 9    1  0.1266593E-005  0.1164305E+03  0.7546771E-02  0.1250320E+00
         -1   -1    0    0    0  501 -0.00000000000E+00  0.00000000000E+00  0.62567628288E+02  0.62567628288E+02  0.00000000000E+00 0.  1.
          1   -1    0    0  502    0  0.00000000000E+00 -0.00000000000E+00 -0.41220595862E+03  0.41220595862E+03  0.00000000000E+00 0. -1.
         23    2    1    2    0    0 -0.30382421677E+02 -0.57904271044E+02 -0.72445108857E+02  0.13387804240E+03  0.91646278086E+02 0.  0.
         23    2    1    2    0    0  0.65200112502E+02  0.30491423953E+02 -0.27109074364E+03  0.29616327411E+03  0.95087917394E+02 0.  0.
        -11    1    3    3    0    0 -0.61983126520E+02 -0.27020736252E+02 -0.36011508711E+02  0.76608465070E+02  0.00000000000E+00 0.  1.
         11    1    3    3    0    0  0.31600704842E+02 -0.30883534792E+02 -0.36433600147E+02  0.57269577329E+02  0.00000000000E+00 0. -1.
        -11    1    4    4    0    0  0.30405360210E+02  0.42632991065E+02 -0.51304955465E+02  0.73309319407E+02  0.00000000000E+00 0.  1.
         11    1    4    4    0    0  0.34794752291E+02 -0.12141567112E+02 -0.21978578818E+03  0.22285395470E+03  0.00000000000E+00 0. -1.
         21    1    1    2  502  501 -0.34817690824E+02  0.27412847091E+02 -0.61024778317E+01  0.44732270406E+02  0.00000000000E+00 0.  1.
<scales pt_clust_5="13000.00000" pt_clust_6="13000.00000" pt_clust_7="13000.00000" pt_clust_8="13000.00000" pt_clust_9="44.31406"></scales>
<clustering>
<clus scale="   44.314">  1  9  2 -1</clus>
<clus scale="   91.646">  5  6 -1 -1</clus>
<clus scale="   95.088">  7  8 -1 -1</clus>
<clus scale="  113.637">  1  5  2 -1</clus>
<clus scale="  116.430">  2  5  1 -1</clus>
</clustering>
</event>
<event>
 9    1  0.1266593E-005  0.9479082E+02  0.7546771E-02  0.1292749E+00
         -2   -1    0    0    0  501 -0.00000000000E+00  0.00000000000E+00  0.16925851558E+03  0.16925851558E+03  0.00000000000E+00 0.  1.
          2   -1    0    0  502    0  0.00000000000E+00 -0.00000000000E+00 -0.27863829650E+03  0.27863829650E+03  0.00000000000E+00 0. -1.
         23    2    1    2    0    0  0.24036960008E+02  0.59444233967E+01  0.12011165224E+03  0.15184456382E+03  0.89536869175E+02 0.  0.
         23    2    1    2    0    0 -0.29117644682E+02  0.60481982542E+02 -0.10388653185E+03  0.15387323434E+03  0.91534984043E+02 0.  0.
        -11    1    4    4    0    0 -0.31510396678E+02  0.82129359213E+02 -0.97189733123E+02  0.13108768427E+03  0.00000000000E+00 0.  1.
         11    1    4    4    0    0  0.23927519958E+01 -0.21647376671E+02 -0.66967987250E+01  0.22785550070E+02  0.00000000000E+00 0. -1.
        -13    1    3    3    0    0  0.42363602550E+02 -0.24991189321E+02  0.97953024228E+02  0.10960852759E+03  0.00000000000E+00 0. -1.
         13    1    3    3    0    0 -0.18326642543E+02  0.30935612718E+02  0.22158628013E+02  0.42236036231E+02  0.00000000000E+00 0.  1.
         21    1    1    2  502  501  0.50806846743E+01 -0.66426405939E+02 -0.12560490132E+03  0.14217901392E+03  0.00000000000E+00 0. -1.
<scales pt_clust_5="13000.00000" pt_clust_6="13000.00000" pt_clust_7="13000.00000" pt_clust_8="13000.00000" pt_clust_9="66.62042"></scales>
<clustering>
<clus scale="   66.620">  2  9  1 -1</clus>
<clus scale="   89.537">  7  8 -1 -1</clus>
<clus scale="   91.535">  5  6 -1 -1</clus>
<clus scale="   92.863">  1  7  2 -1</clus>
<clus scale="   66.620">  2  5  1 -1</clus>
</clustering>
</event>
<event>
 9    1  0.1266593E-005  0.1975007E+03  0.7546771E-02  0.1152161E+00
         -1   -1    0    0    0  501 -0.00000000000E+00  0.00000000000E+00  0.22283371431E+03  0.22283371431E+03  0.00000000000E+00 0.  1.
          1   -1    0    0  502    0  0.00000000000E+00 -0.00000000000E+00 -0.34560280862E+03  0.34560280862E+03  0.00000000000E+00 0. -1.
         23    2    1    2    0    0  0.86098980093E+01  0.16463594097E+03  0.11330899360E+03  0.22054163420E+03  0.92846976168E+02 0.  0.
         23    2    1    2    0    0  0.31030595236E+02 -0.17442056958E+03 -0.23408224665E+03  0.30701590826E+03  0.89882349742E+02 0.  0.
        -11    1    4    4    0    0  0.36924072426E+02 -0.13717547350E+03 -0.22826771124E+03  0.26886175937E+03  0.00000000000E+00 0. -1.
         11    1    4    4    0    0 -0.58934771897E+01 -0.37245096083E+02 -0.58145354025E+01  0.38154148891E+02  0.00000000000E+00 0.  1.
        -11    1    3    3    0    0 -0.30482546802E+02  0.50184301257E+02  0.62998308499E+01  0.59053684228E+02  0.00000000000E+00 0. -1.
         11    1    3    3    0    0  0.39092444812E+02  0.11445163971E+03  0.10700916275E+03  0.16148794997E+03  0.00000000000E+00 0.  1.
         21    1    1    2  502  501 -0.39640493245E+02  0.97846286132E+01 -0.19958412620E+01  0.40878980469E+02  0.00000000000E+00 0. -1.
<scales pt_clust_5="13000.00000" pt_clust_6="13000.00000" pt_clust_7="13000.00000" pt_clust_8="13000.00000" pt_clust_9="40.83023"></scales>
<clustering>
<clus scale="   40.830">  1  9  2 -1</clus>
<clus scale="   89.882">  5  6 -1 -1</clus>
<clus scale="   92.847">  7  8 -1 -1</clus>
<clus scale="  196.124">  2  5  1 -1</clus>
<clus scale="  196.124">  2  5  1 -1</clus>
</clustering>
</event>
<event>
 9    1  0.1266593E-005  0.9294503E+02  0.7546771E-02  0.1296254E+00
         -2   -1    0    0    0  501 -0.00000000000E+00  0.00000000000E+00  0.64385076237E+02  0.64385076237E+02  0.00000000000E+00 0.  1.
          2   -1    0    0  502    0  0.00000000000E+00 -0.00000000000E+00 -0.19015132569E+03  0.19015132569E+03  0.00000000000E+00 0. -1.
         23    2    1    2    0    0 -0.29980181914E+02 -0.74574711945E+01 -0.51927571933E+02  0.10931627626E+03  0.91099672576E+02 0.  0.
         23    2    1    2    0    0 -0.15378891901E+01  0.72476465267E+01 -0.64284259010E+02  0.11228504186E+03  0.91763670297E+02 0.  0.
        -11    1    4    4    0    0 -0.44419466817E+02  0.66818593224E+01 -0.49691534126E+02  0.66984959805E+02  0.00000000000E+00 0.  1.
         11    1    4    4    0    0  0.42881577627E+02  0.56578720421E+00 -0.14592724883E+02  0.45300082058E+02  0.00000000000E+00 0. -1.
        -11    1    3    3    0    0  0.22909997720E+02  0.50244876593E+01 -0.49666608461E+02  0.54926181989E+02  0.00000000000E+00 0. -1.
         11    1    3    3    0    0 -0.52890179635E+02 -0.12481958854E+02 -0.22609634712E+01  0.54390094267E+02  0.00000000000E+00 0.  1.
         21    1    1    2  502  501  0.31518071104E+02  0.20982466780E+00 -0.95544185145E+01  0.32935083812E+02  0.00000000000E+00 0. -1.
<scales pt_clust_5="13000.00000" pt_clust_6="13000.00000" pt_clust_7="13000.00000" pt_clust_8="13000.00000" pt_clust_9="31.51877"></scales>
<clustering>
<clus scale="   31.519">  1  9  2 -1</clus>
<clus scale="   91.100">  7  8 -1 -1</clus>
<clus scale="   91.764">  5  6 -1 -1</clus>
<clus scale="   92.290">  1  7  2 -1</clus>
<clus scale="   92.945">  2  5  1 -1</clus>
</clustering>
</event>
<event>
 9    1  0.1266593E-005  0.1110232E+03  0.7546771E-02  0.1259365E+00
         -1   -1    0    0    0  501 -0.00000000000E+00  0.00000000000E+00  0.69383634525E+02  0.69383634525E+02  0.00000000000E+00 0.  1.
          1   -1    0    0  502    0  0.00000000000E+00 -0.00000000000E+00 -0.42317039527E+03  0.42317039527E+03  0.00000000000E+00 0. -1.
         23    2    1    2    0    0  0.33113857786E+02 -0.34565188016E+02 -0.13370830824E+03  0.16935377842E+03  0.92257849390E+02 0.  0.
         23    2    1    2    0    0 -0.42367492726E+02  0.57795534324E+02 -0.25519947049E+03  0.28008685841E+03  0.90479557290E+02 0.  0.
        -11    1    4    4    0    0 -0.51414590228E+02 -0.43287738818E+01 -0.13405626187E+03  0.14364288955E+03  0.00000000000E+00 0.  1.
         11    1    4    4    0    0  0.90470975022E+01  0.62124308206E+02 -0.12114320862E+03  0.13644396885E+03  0.00000000000E+00 0. -1.
        -13    1    3    3    0    0  0.43497223724E+02 -0.15363688847E+02 -0.14782912348E+02  0.48441572065E+02  0.00000000000E+00 0.  1.
         13    1    3    3    0    0 -0.10383365937E+02 -0.19201499169E+02 -0.11892539589E+03  0.12091220636E+03  0.00000000000E+00 0. -1.
         21    1    1    2  502  501  0.92536349394E+01 -0.23230346308E+02  0.35121017979E+02  0.43113392967E+02  0.00000000000E+00 0. -1.
<scales pt_clust_5="13000.00000" pt_clust_6="13000.00000" pt_clust_7="13000.00000" pt_clust_8="13000.00000" pt_clust_9="25.00557"></scales>
<clustering>
<clus scale="   25.006">  1  9  2 -1</clus>
<clus scale="   90.480">  5  6 -1 -1</clus>
<clus scale="   92.258">  7  8 -1 -1</clus>
<clus scale="  109.550">  2  5  1 -1</clus>
<clus scale="  109.550">  2  5  1 -1</clus>
</clustering>
</event>
<event>
 9    1  0.1266593E-005  0.1222694E+03  0.7546771E-02  0.1239434E+00
          1   -1    0    0  502    0  0.00000000000E+00  0.00000000000E+00  0.60417802393E+03  0.60417802393E+03  0.00000000000E+00 0. -1.
         -1   -1    0    0    0  501 -0.00000000000E+00 -0.00000000000E+00 -0.35539362893E+02  0.35539362893E+02  0.00000000000E+00 0.  1.
         23    2    1    2    0    0  0.27352604473E+02 -0.92109758497E+02  0.25051853392E+03  0.28302868030E+03  0.90073999869E+02 0.  0.
         23    2    1    2    0    0 -0.14969410495E+02  0.72585612782E+02  0.31157230112E+03  0.33265935397E+03  0.89956614670E+02 0.  0.
        -11    1    4    4    0    0 -0.27662292733E+02  0.90147013623E+02  0.23928931736E+03  0.25719849126E+03  0.00000000000E+00 0. -1.
         11    1    4    4    0    0  0.12692882238E+02 -0.17561400841E+02  0.72282983755E+02  0.75460862701E+02  0.00000000000E+00 0.  1.
        -13    1    3    3    0    0  0.57975593715E+02 -0.55095446038E+02  0.12254170121E+03  0.14633231419E+03  0.00000000000E+00 0.  1.
         13    1    3    3    0    0 -0.30622989242E+02 -0.37014312458E+02  0.12797683271E+03  0.13669636611E+03  0.00000000000E+00 0. -1.
         21    1    1    2  502  501 -0.12383193978E+02  0.19524145714E+02  0.65478259959E+01  0.24029352556E+02  0.00000000000E+00 0.  1.
<scales pt_clust_5="13000.00000" pt_clust_6="13000.00000" pt_clust_7="13000.00000" pt_clust_8="13000.00000" pt_clust_9="23.12003"></scales>
<clustering>
<clus scale="   23.120">  2  9  1 -1</clus>
<clus scale="   89.957">  5  6 -1 -1</clus>
<clus scale="   90.074">  7  8 -1 -1</clus>
<clus scale="  122.183">  1  5  2 -1</clus>
<clus scale="  122.183">  1  5  2 -1</clus>
</clustering>
</event>
<event>
 9    1  0.1266593E-005  0.1136687E+03  0.7546771E-02  0.1255279E+00
          1   -1    0    0  502    0  0.00000000000E+00  0.00000000000E+00  0.81620331465E+03  0.81620331465E+03  0.00000000000E+00 0. -1.
         -1   -1    0    0    0  501 -0.00000000000E+00 -0.00000000000E+00 -0.44360226656E+02  0.44360226656E+02  0.00000000000E+00 0.  1.
         23    2    1    2    0    0  0.40999557980E+02  0.90016528051E+02  0.14720389484E+03  0.20035996906E+03  0.93226559888E+02 0.  0.
         23    2    1    2    0    0  0.83660872853E+01 -0.60260665489E+02  0.57197740875E+03  0.58212898082E+03  0.89524605423E+02 0.  0.
        -13    1    4    4    0    0  0.91926373311E+01  0.23097241716E+02  0.13604205238E+03  0.13829471129E+03  0.00000000000E+00 0. -1.
         13    1    4    4    0    0 -0.82655004587E+00 -0.83357907204E+02  0.43593535637E+03  0.44383426953E+03  0.00000000000E+00 0.  1.
        -13    1    3    3    0    0 -0.25288962252E+02  0.53249792520E+02  0.77577735210E+02  0.97433962331E+02  0.00000000000E+00 0.  1.
         13    1    3    3    0    0  0.66288520232E+02  0.36766735531E+02  0.69626159628E+02  0.10292600673E+03  0.00000000000E+00 0. -1.
         21    1    1    2  502  501 -0.49365645265E+02 -0.29755862562E+02  0.52661784412E+02  0.78074591429E+02  0.00000000000E+00 0.  1.
<scales pt_clust_5="13000.00000" pt_clust_6="13000.00000" pt_clust_7="13000.00000" pt_clust_8="13000.00000" pt_clust_9="57.64008"></scales>
<clustering>
<clus scale="   57.640">  2  9  1 -1</clus>
<clus scale="   89.525">  5  6 -1 -1</clus>
<clus scale="   93.227">  7  8 -1 -1</clus>
<clus scale="  110.653">  1  5  2 -1</clus>
<clus scale="  110.653">  1  5  2 -1</clus>
</clustering>
</event>
<event>
 9    1  0.1266593E-005  0.1042963E+03  0.7546771E-02  0.1273684E+00
         -1   -1    0    0    0  501 -0.00000000000E+00  0.00000000000E+00  0.31926390275E+03  0.31926390275E+03  0.00000000000E+00 0.  1.
          1   -1    0    0  502    0  0.00000000000E+00 -0.00000000000E+00 -0.12481818816E+03  0.12481818816E+03  0.00000000000E+00 0. -1.
         23    2    1    2    0    0  0.32226615721E+02 -0.18167053310E+02  0.81781295946E+02  0.12997312180E+03  0.94001252310E+02 0.  0.
         23    2    1    2    0    0 -0.14307404595E+02 -0.42511668229E+02 -0.64476232027E+02  0.12600842288E+03  0.98534229475E+02 0.  0.
        -13    1    3    3    0    0 -0.14413605155E+02  0.28752360115E+02  0.41549963744E+02  0.52543788528E+02  0.00000000000E+00 0. -1.
         13    1    3    3    0    0  0.46640220876E+02 -0.46919413425E+02  0.40231332202E+02  0.77429333268E+02  0.00000000000E+00 0.  1.
        -13    1    4    4    0    0 -0.86543823921E+01 -0.22466077317E+02 -0.89943043628E+02  0.93109473533E+02  0.00000000000E+00 0. -1.
         13    1    4    4    0    0 -0.56530222025E+01 -0.20045590911E+02  0.25466811600E+02  0.32898949346E+02  0.00000000000E+00 0.  1.
         21    1    1    2  502  501 -0.17919211127E+02  0.60678721539E+02  0.17714065067E+03  0.18810054624E+03  0.00000000000E+00 0.  1.
<scales pt_clust_5="13000.00000" pt_clust_6="13000.00000" pt_clust_7="13000.00000" pt_clust_8="13000.00000" pt_clust_9="63.26931"></scales>
<clustering>
<clus scale="   63.269">  1  9  2 -1</clus>
<clus scale="   94.001">  5  6 -1 -1</clus>
<clus scale="   98.534">  7  8 -1 -1</clus>
<clus scale="  100.025">  1  5  2 -1</clus>
<clus scale="  104.296">  2  5  1 -1</clus>
</clustering>
</event>
<event>
 9    1  0.1266593E-005  0.1097034E+03  0.7546771E-02  0.1262935E+00
         -2   -1    0    0    0  501 -0.00000000000E+00  0.00000000000E+00  0.13105353658E+03  0.13105353658E+03  0.00000000000E+00 0.  1.
          2   -1    0    0  502    0  0.00000000000E+00 -0.00000000000E+00 -0.12997476162E+03  0.12997476162E+03  0.00000000000E+00 0. -1.
         23    2    1    2    0    0 -0.22293862395E+02  0.36706921412E+02  0.19318691736E+02  0.10159698512E+03  0.90024003211E+02 0.  0.
         23    2    1    2    0    0  0.21216639036E+02 -0.60726968223E+02 -0.45538729066E+02  0.12305345977E+03  0.94501151717E+02 0.  0.
        -11    1    4    4    0    0 -0.17090353628E+02 -0.60954376740E+02  0.31228416782E+00  0.63305716585E+02  0.00000000000E+00 0.  1.
         11    1    4    4    0    0  0.38306992664E+02  0.22740851770E+00 -0.45851013234E+02  0.59747743188E+02  0.00000000000E+00 0. -1.
        -13    1    3    3    0    0  0.26884583075E+02 -0.11131668368E+02 -0.34679757885E+01  0.29303953723E+02  0.00000000000E+00 0. -1.
         13    1    3    3    0    0 -0.49178445470E+02  0.47838589779E+02  0.22786667525E+02  0.72293031392E+02  0.00000000000E+00 0.  1.
         21    1    1    2  502  501  0.10772233596E+01  0.24020046811E+02  0.27298812290E+02  0.36377853310E+02  0.00000000000E+00 0.  1.
<scales pt_clust_5="13000.00000" pt_clust_6="13000.00000" pt_clust_7="13000.00000" pt_clust_8="13000.00000" pt_clust_9="24.04419"></scales>
<clustering>
<clus scale="   24.044">  1  9  2 -1</clus>
<clus scale="   90.024">  7  8 -1 -1</clus>
<clus scale="   94.501">  5  6 -1 -1</clus>
<clus scale="  105.871">  1  7  2 -1</clus>
<clus scale="  109.703">  2  5  1 -1</clus>
</clustering>
</event>
<event>
 9    1  0.1266593E-005  0.1079029E+03  0.7546771E-02  0.1265162E+00
          1   -1    0    0  502    0  0.00000000000E+00  0.00000000000E+00  0.23773654913E+03  0.23773654913E+03  0.00000000000E+00 0. -1.
         -1   -1    0    0    0  501 -0.00000000000E+00 -0.00000000000E+00 -0.76051855786E+02  0.76051855786E+02  0.00000000000E+00 0.  1.
         23    2    1    2    0    0  0.42137433044E+02  0.57485799932E+02  0.75683432398E+02  0.13819705902E+03  0.91050890851E+02 0.  0.
         23    2    1    2    0    0 -0.42922415111E+02 -0.26418093798E+02  0.98346025954E+02  0.14215167209E+03  0.89414247518E+02 0.  0.
        -13    1    4    4    0    0 -0.27178366850E+02  0.21356298929E+02  0.34357984643E+01  0.34735570237E+02  0.00000000000E+00 0.  1.
         13    1    4    4    0    0 -0.15744048261E+02 -0.47774392726E+02  0.94910227489E+02  0.10741610186E+03  0.00000000000E+00 0. -1.
        -13    1    3    3    0    0  0.59730799033E+02  0.21316688276E+02  0.74663231600E+02  0.97963093587E+02  0.00000000000E+00 0.  1.
         13    1    3    3    0    0 -0.17593365989E+02  0.36169111655E+02  0.10202007980E+01  0.40233965432E+02  0.00000000000E+00 0. -1.
         21    1    1    2  502  501  0.78498206709E+00 -0.31067706134E+02 -0.12344765005E+02  0.33439673807E+02  0.00000000000E+00 0.  1.
<scales pt_clust_5="13000.00000" pt_clust_6="13000.00000" pt_clust_7="13000.00000" pt_clust_8="13000.00000" pt_clust_9="31.07762"></scales>
<clustering>
<clus scale="   31.078">  2  9  1 -1</clus>
<clus scale="   89.414">  5  6 -1 -1</clus>
<clus scale="   91.051">  7  8 -1 -1</clus>
<clus scale="  106.525">  1  5  2 -1</clus>
<clus scale="  106.525">  1  5  2 -1</clus>
</clustering>
</event>
<event>
 9    1  0.1266593E-005  0.1046744E+03  0.7546771E-02  0.1277431E+00
         -1   -1    0    0    0  501 -0.00000000000E+00  0.00000000000E+00  0.30784259179E+02  0.30784259179E+02  0.00000000000E+00 0.  1.
          1   -1    0    0  502    0  0.00000000000E+00 -0.00000000000E+00 -0.68494676887E+03  0.68494676887E+03  0.00000000000E+00 0. -1.
         23    2    1    2    0    0 -0.35341696179E+02 -0.63516181795E+02 -0.13887958358E+03  0.18160575080E+03  0.91704793485E+02 0.  0.
         23    2    1    2    0    0  0.13326566979E+02  0.54343639927E+01 -0.27541778126E+03  0.28634825816E+03  0.77027534175E+02 0.  0.
        -11    1    4    4    0    0 -0.28753224100E+02  0.17187521284E+02 -0.14452148240E+03  0.14835301702E+03  0.00000000000E+00 0. -1.
         11    1    4    4    0    0  0.42079791078E+02 -0.11753157291E+02 -0.13089629886E+03  0.13799524114E+03  0.00000000000E+00 0.  1.
        -13    1    3    3    0    0 -0.65785003722E+02 -0.48702619586E+02 -0.10996001853E+03  0.13707960295E+03  0.00000000000E+00 0. -1.
         13    1    3    3    0    0  0.30443307543E+02 -0.14813562209E+02 -0.28919565047E+02  0.44526147846E+02  0.00000000000E+00 0.  1.
         21    1    1    2  502  501  0.22015129200E+02  0.58081817803E+02 -0.23986514485E+03  0.24777701909E+03  0.00000000000E+00 0. -1.
<scales pt_clust_5="13000.00000" pt_clust_6="13000.00000" pt_clust_7="13000.00000" pt_clust_8="13000.00000" pt_clust_9="62.11412"></scales>
<clustering>
<clus scale="   62.114">  2  9  1 -1</clus>
<clus scale="   77.028">  5  6 -1 -1</clus>
<clus scale="   91.705">  7  8 -1 -1</clus>
<clus scale="   92.088">  2  5  1 -1</clus>
<clus scale="   62.114">  2  5  1 -1</clus>
</clustering>
</event>
<event>
 9    1  0.1266593E-005  0.1218645E+03  0.7546771E-02  0.1240649E+00
          2   -1    0    0  502    0  0.00000000000E+00  0.00000000000E+00  0.11815307081E+03  0.11815307081E+03  0.00000000000E+00 0. -1.
         -2   -1    0    0    0  501 -0.00000000000E+00 -0.00000000000E+00 -0.17481040429E+03  0.17481040429E+03  0.00000000000E+00 0.  1.
         23    2    1    2    0    0 -0.75882782039E+02 -0.58862542137E+02 -0.62353855503E+02  0.14522292678E+03  0.89323567388E+02 0.  0.
         23    2    1    2    0    0  0.51985988991E+02  0.52190328442E+02  0.20154990440E+02  0.11902430792E+03  0.91291778389E+02 0.  0.
        -11    1    4    4    0    0 -0.10078232874E+00  0.61538130260E+02 -0.21994690029E+01  0.61577506419E+02  0.00000000000E+00 0. -1.
         11    1    4    4    0    0  0.52086771320E+02 -0.93478018181E+01  0.22354459443E+02  0.57446801498E+02  0.00000000000E+00 0.  1.
        -13    1    3    3    0    0 -0.12716897331E+01 -0.23996438638E+02 -0.57967028994E+02  0.62750479779E+02  0.00000000000E+00 0.  1.
         13    1    3    3    0    0 -0.74611092306E+02 -0.34866103499E+02 -0.43868265093E+01  0.82472447006E+02  0.00000000000E+00 0. -1.
         21    1    1    2  502  501  0.23896793047E+02  0.66722136959E+01 -0.14458468422E+02  0.28716240399E+02  0.00000000000E+00 0.  1.
<scales pt_clust_5="13000.00000" pt_clust_6="13000.00000" pt_clust_7="13000.00000" pt_clust_8="13000.00000" pt_clust_9="24.81079"></scales>
<clustering>
<clus scale="   24.811">  2  9  1 -1</clus>
<clus scale="   89.324">  7  8 -1 -1</clus>
<clus scale="   91.292">  5  6 -1 -1</clus>
<clus scale="  120.397">  2  7  1 -1</clus>
<clus scale="  121.864">  1  5  2 -1</clus>
</clustering>
</event>
<event>
 9    1  0.1266593E-005  0.1536887E+03  0.7546771E-02  0.1197879E+00
         -2   -1    0    0    0  501 -0.00000000000E+00  0.00000000000E+00  0.26619990803E+03  0.26619990803E+03  0.00000000000E+00 0.  1.
          2   -1    0    0  502    0  0.00000000000E+00 -0.00000000000E+00 -0.33739763858E+03  0.33739763858E+03  0.00000000000E+00 0. -1.
         23    2    1    2    0    0 -0.98591177719E+02 -0.10465490781E+02  0.20479446786E+03  0.24679943232E+03  0.95600412687E+02 0.  0.
         23    2    1    2    0    0  0.12203490940E+03  0.18311330588E+01 -0.29152986942E+03  0.32737737486E+03  0.85383889834E+02 0.  0.
        -11    1    3    3    0    0  0.14012139365E+01  0.29820928551E+02  0.41187840348E+02  0.50869336272E+02  0.00000000000E+00 0. -1.
         11    1    3    3    0    0 -0.99992391655E+02 -0.40286419332E+02  0.16360662751E+03  0.19593009605E+03  0.00000000000E+00 0.  1.
        -13    1    4    4    0    0  0.20459343235E+02 -0.18546113183E+02 -0.13629808238E+02  0.30794718905E+02  0.00000000000E+00 0.  1.
         13    1    4    4    0    0  0.10157556616E+03  0.20377246242E+02 -0.27790006118E+03  0.29658265595E+03  0.00000000000E+00 0. -1.
         21    1    1    2  502  501 -0.23443731680E+02  0.86343577219E+01  0.15537671007E+02  0.29420739432E+02  0.00000000000E+00 0.  1.
<scales pt_clust_5="13000.00000" pt_clust_6="13000.00000" pt_clust_7="13000.00000" pt_clust_8="13000.00000" pt_clust_9="24.98321"></scales>
<clustering>
<clus scale="   24.983">  1  9  2 -1</clus>
<clus scale="   85.384">  7  8 -1 -1</clus>
<clus scale="   95.600">  5  6 -1 -1</clus>
<clus scale="  147.551">  2  7  1 -1</clus>
<clus scale="  147.551">  2  5  1 -1</clus>
</clustering>
</event>
<event>
 9    1  0.1266593E-005  0.9351189E+02  0.7546771E-02  0.1294983E+00
         -1   -1    0    0    0  501 -0.00000000000E+00  0.00000000000E+00  0.12781053046E+03  0.12781053046E+03  0.00000000000E+00 0.  1.
          1   -1    0    0  502    0  0.00000000000E+00 -0.00000000000E+00 -0.22125612297E+03  0.22125612297E+03  0.00000000000E+00 0. -1.
         23    2    1    2    0    0  0.21065588288E+02 -0.12140996948E+02  0.62481010858E+02  0.11321286972E+03  0.91225623236E+02 0.  0.
         23    2    1    2    0    0  0.76160851536E+01  0.16960506365E+02 -0.17673251540E+03  0.20009414113E+03  0.91965318389E+02 0.  0.
        -11    1    4    4    0    0  0.24956597687E+02 -0.87783485870E+01 -0.67518004783E+01  0.27303442671E+02  0.00000000000E+00 0.  1.
         11    1    4    4    0    0 -0.17340512533E+02  0.25738854952E+02 -0.16998071492E+03  0.17279069846E+03  0.00000000000E+00 0. -1.
        -13    1    3    3    0    0  0.14743024290E+02  0.19024662758E+02  0.75204011469E+02  0.78961622952E+02  0.00000000000E+00 0.  1.
         13    1    3    3    0    0  0.63225639980E+01 -0.31165659705E+02 -0.12723000610E+02  0.34251246764E+02  0.00000000000E+00 0. -1.
         21    1    1    2  502  501 -0.28681673442E+02 -0.48195094169E+01  0.20805912025E+02  0.35759642582E+02  0.00000000000E+00 0. -1.
<scales pt_clust_5="13000.00000" pt_clust_6="13000.00000" pt_clust_7="13000.00000" pt_clust_8="13000.00000" pt_clust_9="29.08378"></scales>
<clustering>
<clus scale="   29.084">  1  9  2 -1</clus>
<clus scale="   91.226">  7  8 -1 -1</clus>
<clus scale="   91.965">  5  6 -1 -1</clus>
<clus scale="   92.785">  1  7  2 -1</clus>
<clus scale="   93.512">  2  5  1 -1</clus>
</clustering>
</event>
<event>
 9    1  0.1266593E-005  0.9527139E+02  0.7546771E-02  0.1292161E+00
         -1   -1    0    0    0  501 -0.00000000000E+00  0.00000000000E+00  0.13780160168E+03  0.13780160168E+03  0.00000000000E+00 0.  1.
          1   -1    0    0  502    0  0.00000000000E+00 -0.00000000000E+00 -0.25284752036E+03  0.25284752036E+03  0.00000000000E+00 0. -1.
         23    2    1    2    0    0 -0.49335932203E+02  0.78241925763E+02  0.21987099169E+02  0.12614369276E+03  0.82903350589E+02 0.  0.
         23    2    1    2    0    0  0.27659697753E+02 -0.19130334671E+02 -0.16997750221E+03  0.19344645102E+03  0.86012496598E+02 0.  0.
        -11    1    3    3    0    0  0.88615846343E+01  0.49153211472E+02  0.33405003859E+02  0.60087104799E+02  0.00000000000E+00 0.  1.
         11    1    3    3    0    0 -0.58197516837E+02  0.29088714290E+02 -0.11417904690E+02  0.66056587957E+02  0.00000000000E+00 0. -1.
        -13    1    4    4    0    0  0.48882818156E+02  0.12468675194E+02 -0.68555783906E+02  0.85116938848E+02  0.00000000000E+00 0.  1.
         13    1    4    4    0    0 -0.21223120402E+02 -0.31599009864E+02 -0.10142171831E+03  0.10832951218E+03  0.00000000000E+00 0. -1.
         21    1    1    2  502  501  0.21676234449E+02 -0.59111591092E+02  0.32944484368E+02  0.71058978262E+02  0.00000000000E+00 0.  1.
<scales pt_clust_5="13000.00000" pt_clust_6="13000.00000" pt_clust_7="13000.00000" pt_clust_8="13000.00000" pt_clust_9="62.96062"></scales>
<clustering>
<clus scale="   62.961">  1  9  2 -1</clus>
<clus scale="   82.903">  5  6 -1 -1</clus>
<clus scale="   86.012">  7  8 -1 -1</clus>
<clus scale="   92.474">  1  5  2 -1</clus>
<clus scale="   95.271">  2  5  1 -1</clus>
</clustering>
</event>
<event>
 9    1  0.1266593E-005  0.1541194E+03  0.7546771E-02  0.1195756E+00
         -1   -1    0    0    0  501 -0.00000000000E+00  0.00000000000E+00  0.29321123039E+02  0.29321123039E+02  0.00000000000E+00 0.  1.
          1   -1    0    0  502    0  0.00000000000E+00 -0.00000000000E+00 -0.11970441574E+04  0.11970441574E+04  0.00000000000E+00 0. -1.
         23    2    1    2    0    0 -0.22962814075E+02 -0.13299265298E+03 -0.59139049968E+03  0.61379359557E+03  0.93731095583E+02 0.  0.
         23    2    1    2    0    0  0.20312564578E+02  0.11024695456E+03 -0.57084130793E+03  0.58902292293E+03  0.92310419982E+02 0.  0.
        -11    1    3    3    0    0  0.10721428856E+02 -0.12867917461E+03 -0.43508772872E+03  0.45384425820E+03  0.00000000000E+00 0.  1.
         11    1    3    3    0    0 -0.33684242931E+02 -0.43134783655E+01 -0.15630277096E+03  0.15994933737E+03  0.00000000000E+00 0. -1.
        -13    1    4    4    0    0  0.29769537816E+02  0.17189169045E+02 -0.55664029845E+02  0.65423062698E+02  0.00000000000E+00 0.  1.
         13    1    4    4    0    0 -0.94569732377E+01  0.93057785511E+02 -0.51517727808E+03  0.52359986024E+03  0.00000000000E+00 0. -1.
         21    1    1    2  502  501  0.26502494969E+01  0.22745698422E+02 -0.54912268045E+01  0.23548761983E+02  0.00000000000E+00 0. -1.
<scales pt_clust_5="13000.00000" pt_clust_6="13000.00000" pt_clust_7="13000.00000" pt_clust_8="13000.00000" pt_clust_9="22.89958"></scales>
<clustering>
<clus scale="   22.900">  1  9  2 -1</clus>
<clus scale="   92.310">  7  8 -1 -1</clus>
<clus scale="   93.731">  5  6 -1 -1</clus>
<clus scale="  153.260">  2  7  1 -1</clus>
<clus scale="  153.260">  2  5  1 -1</clus>
</clustering>
</event>
<event>
 9    1  0.1266593E-005  0.1072623E+03  0.7546771E-02  0.1265947E+00
          1   -1    0    0  502    0  0.00000000000E+00  0.00000000000E+00  0.17822437553E+03  0.17822437553E+03  0.00000000000E+00 0. -1.
         -1   -1    0    0    0  501 -0.00000000000E+00 -0.00000000000E+00 -0.34801523357E+03  0.34801523357E+03  0.00000000000E+00 0.  1.
         23    2    1    2    0    0  0.54397970933E+02 -0.18728285491E+02 -0.97377590486E+02  0.14490237835E+03  0.90578232510E+02 0.  0.
         23    2    1    2    0    0 -0.18774500813E+02  0.56650835552E+02  0.13157795897E+03  0.17081508956E+03  0.91122096581E+02 0.  0.
        -11    1    3    3    0    0  0.62862679872E+02 -0.38380412507E+02 -0.99057542635E+02  0.12343892959E+03  0.00000000000E+00 0.  1.
         11    1    3    3    0    0 -0.84647089388E+01  0.19652127017E+02  0.16799521493E+01  0.21463448766E+02  0.00000000000E+00 0. -1.
        -13    1    4    4    0    0 -0.29986012390E+02  0.31380679104E+01  0.20485533314E+01  0.30219281594E+02  0.00000000000E+00 0.  1.
         13    1    4    4    0    0  0.11211511577E+02  0.53512767641E+02  0.12952940564E+03  0.14059580797E+03  0.00000000000E+00 0. -1.
         21    1    1    2  502  501 -0.35623470120E+02 -0.37922550061E+02 -0.20399122653E+03  0.21052214119E+03  0.00000000000E+00 0.  1.
<scales pt_clust_5="13000.00000" pt_clust_6="13000.00000" pt_clust_7="13000.00000" pt_clust_8="13000.00000" pt_clust_9="52.03029"></scales>
<clustering>
<clus scale="   52.030">  2  9  1 -1</clus>
<clus scale="   90.578">  5  6 -1 -1</clus>
<clus scale="   91.122">  7  8 -1 -1</clus>
<clus scale="  106.801">  2  5  1 -1</clus>
<clus scale="  107.262">  1  5  2 -1</clus>
</clustering>
</event>
<event>
 9    1  0.1266593E-005  0.1130645E+03  0.7546771E-02  0.1255352E+00
         -2   -1    0    0    0  501 -0.00000000000E+00  0.00000000000E+00  0.23897148064E+02  0.23897148064E+02  0.00000000000E+00 0.  1.
          2   -1    0    0  502    0  0.00000000000E+00 -0.00000000000E+00 -0.67629829174E+03  0.67629829174E+03  0.00000000000E+00 0. -1.
         23    2    1    2    0    0 -0.42139200196E+02  0.28704338070E+02 -0.21706932131E+03  0.24144276766E+03  0.92605985670E+02 0.  0.
         23    2    1    2    0    0  0.65883973119E+02 -0.36441032691E+02 -0.37923246449E+03  0.39734576179E+03  0.91639213862E+02 0.  0.
        -13    1    4    4    0    0  0.28651956153E+01  0.19845547254E+02 -0.20040219436E+02  0.28348994458E+02  0.00000000000E+00 0.  1.
         13    1    4    4    0    0  0.63018777504E+02 -0.56286579945E+02 -0.35919224505E+03  0.36899676734E+03  0.00000000000E+00 0. -1.
        -13    1    3    3    0    0 -0.67474030672E+02  0.17920918551E+02 -0.10536482414E+03  0.12639481913E+03  0.00000000000E+00 0.  1.
         13    1    3    3    0    0  0.25334830477E+02  0.10783419519E+02 -0.11170449717E+03  0.11504794853E+03  0.00000000000E+00 0. -1.
         21    1    1    2  502  501 -0.23744772924E+02  0.77366946212E+01 -0.56099357874E+02  0.61406910350E+02  0.00000000000E+00 0.  1.
<scales pt_clust_5="13000.00000" pt_clust_6="13000.00000" pt_clust_7="13000.00000" pt_clust_8="13000.00000" pt_clust_9="24.97340"></scales>
<clustering>
<clus scale="   24.973">  1  9  2 -1</clus>
<clus scale="   91.639">  5  6 -1 -1</clus>
<clus scale="   92.606">  7  8 -1 -1</clus>
<clus scale="  112.274">  2  5  1 -1</clus>
<clus scale="  112.274">  2  5  1 -1</clus>
</clustering>
</event>
<event>
 9    1  0.1266593E-005  0.1044280E+03  0.7546771E-02  0.1274233E+00
         -1   -1    0    0    0  501 -0.00000000000E+00  0.00000000000E+00  0.21126653348E+03  0.21126653348E+03  0.00000000000E+00 0.  1.
          1   -1    0    0  502    0  0.00000000000E+00 -0.00000000000E+00 -0.78188122861E+02  0.78188122861E+02  0.00000000000E+00 0. -1.
         23    2    1    2    0    0  0.55189069204E+02 -0.93832526130E+01  0.33828360182E+02  0.11186039768E+03  0.90744210990E+02 0.  0.
         23    2    1    2    0    0 -0.21502621170E+02  0.21905729419E+01  0.36310566469E+02  0.10584546031E+03  0.97044540827E+02 0.  0.
        -13    1    3    3    0    0  0.31137125643E+02  0.10333665027E+02 -0.27687865817E+02  0.42929280680E+02  0.00000000000E+00 0. -1.
         13    1    3    3    0    0  0.24051943560E+02 -0.19716917640E+02  0.61516225998E+02  0.68931117004E+02  0.00000000000E+00 0.  1.
        -13    1    4    4    0    0  0.34403370565E+01 -0.44624018314E+02  0.26151095462E+02  0.51836461332E+02  0.00000000000E+00 0.  1.
         13    1    4    4    0    0 -0.24942958227E+02  0.46814591256E+02  0.10159471008E+02  0.54008998979E+02  0.00000000000E+00 0. -1.
         21    1    1    2  502  501 -0.33686448033E+02  0.71926796711E+01  0.62939483963E+02  0.71748798342E+02  0.00000000000E+00 0. -1.
<scales pt_clust_5="13000.00000" pt_clust_6="13000.00000" pt_clust_7="13000.00000" pt_clust_8="13000.00000" pt_clust_9="34.44578"></scales>
<clustering>
<clus scale="   34.446">  1  9  2 -1</clus>
<clus scale="   90.744">  5  6 -1 -1</clus>
<clus scale="   97.045">  7  8 -1 -1</clus>
<clus scale="   98.601">  1  5  2 -1</clus>
<clus scale="  104.428">  2  5  1 -1</clus>
</clustering>
</event>
<event>
 9    1  0.1266593E-005  0.1088217E+03  0.7546771E-02  0.1262947E+00
         -1   -1    0    0    0  501 -0.00000000000E+00  0.00000000000E+00  0.27646285416E+03  0.27646285416E+03  0.00000000000E+00 0.  1.
          1   -1    0    0  502    0  0.00000000000E+00 -0.00000000000E+00 -0.13926828298E+03  0.13926828298E+03  0.00000000000E+00 0. -1.
         23    2    1    2    0    0  0.40378192449E+02  0.10383858186E+02  0.13666252790E+02  0.10095238029E+03  0.90919710105E+02 0.  0.
         23    2    1    2    0    0 -0.71659654775E+02  0.14098772506E+01 -0.58717307219E+02  0.12949224861E+03  0.90462292741E+02 0.  0.
        -11    1    3    3    0    0  0.58862516635E+02 -0.34116469783E+01  0.35805431130E+02  0.68981621452E+02  0.00000000000E+00 0.  1.
         11    1    3    3    0    0 -0.18484324187E+02  0.13795505165E+02 -0.22139178340E+02  0.31970758842E+02  0.00000000000E+00 0. -1.
        -13    1    4    4    0    0 -0.11094012410E+02 -0.40138988144E+02 -0.25946983649E+02  0.49065888773E+02  0.00000000000E+00 0.  1.
         13    1    4    4    0    0 -0.60565642364E+02  0.41548865394E+02 -0.32770323570E+02  0.80426359842E+02  0.00000000000E+00 0. -1.
         21    1    1    2  502  501  0.31281462326E+02 -0.11793735437E+02  0.18224562560E+03  0.18528650823E+03  0.00000000000E+00 0.  1.
<scales pt_clust_5="13000.00000" pt_clust_6="13000.00000" pt_clust_7="13000.00000" pt_clust_8="13000.00000" pt_clust_9="33.43086"></scales>
<clustering>
<clus scale="   33.431">  1  9  2 -1</clus>
<clus scale="   90.462">  7  8 -1 -1</clus>
<clus scale="   90.920">  5  6 -1 -1</clus>
<clus scale="  108.440">  2  7  1 -1</clus>
<clus scale="  108.440">  2  5  1 -1</clus>
</clustering>
</event>
<event>
 9    1  0.1266593E-005  0.1067576E+03  0.7546771E-02  0.1268946E+00
         -1   -1    0    0    0  501 -0.00000000000E+00  0.00000000000E+00  0.20167963480E+02  0.20167963480E+02  0.00000000000E+00 0.  1.
          1   -1    0    0  502    0  0.00000000000E+00 -0.00000000000E+00 -0.94794334745E+03  0.94794334745E+03  0.00000000000E+00 0. -1.
         23    2    1    2    0    0 -0.44854412253E+02  0.18973197090E+02 -0.29904293538E+03  0.31595875731E+03  0.89617847631E+02 0.  0.
         23    2    1    2    0    0  0.54592642551E+02  0.37682057451E+02 -0.42467396927E+03  0.44015134141E+03  0.94788865874E+02 0.  0.
        -11    1    4    4    0    0  0.31006195603E+01  0.58779123431E+02 -0.18673961588E+03  0.19579653554E+03  0.00000000000E+00 0. -1.
         11    1    4    4    0    0  0.51492022990E+02 -0.21097065981E+02 -0.23793435340E+03  0.24435480587E+03  0.00000000000E+00 0.  1.
        -13    1    3    3    0    0  0.88428865227E+01 -0.25855877624E+02 -0.46773821476E+02  0.54171149381E+02  0.00000000000E+00 0.  1.
         13    1    3    3    0    0 -0.53697298775E+02  0.44829074714E+02 -0.25226911390E+03  0.26178760793E+03  0.00000000000E+00 0. -1.
         21    1    1    2  502  501 -0.97382302979E+01 -0.56655254540E+02 -0.20405847932E+03  0.21200121221E+03  0.00000000000E+00 0.  1.
<scales pt_clust_5="13000.00000" pt_clust_6="13000.00000" pt_clust_7="13000.00000" pt_clust_8="13000.00000" pt_clust_9="57.48609"></scales>
<clustering>
<clus scale="   57.486">  2  9  1 -1</clus>
<clus scale="   89.618">  7  8 -1 -1</clus>
<clus scale="   94.789">  5  6 -1 -1</clus>
<clus scale="  102.194">  1  7  2 -1</clus>
<clus scale="   57.486">  2  5  1 -1</clus>
</clustering>
</event>
<event>
 9    1  0.1266593E-005  0.1113320E+03  0.7546771E-02  0.1262212E+00
         -1   -1    0    0    0  501 -0.00000000000E+00  0.00000000000E+00  0.77100272891E+02  0.77100272891E+02  0.00000000000E+00 0.  1.
          1   -1    0    0  502    0  0.00000000000E+00 -0.00000000000E+00 -0.25608777379E+03  0.25608777379E+03  0.00000000000E+00 0. -1.
         23    2    1    2    0    0 -0.52492020038E+02  0.13358733206E+02 -0.76204051896E+02  0.12478171330E+03  0.82641094666E+02 0.  0.
         23    2    1    2    0    0  0.69134572874E+02  0.12429864579E+02 -0.12466002010E+03  0.17071534369E+03  0.93110242507E+02 0.  0.
        -11    1    4    4    0    0  0.89328262798E+02  0.30842677229E+01 -0.11688794123E+03  0.14714564910E+03  0.00000000000E+00 0. -1.
         11    1    4    4    0    0 -0.20193689925E+02  0.93455968565E+01 -0.77720788685E+01  0.23569694595E+02  0.00000000000E+00 0.  1.
        -13    1    3    3    0    0 -0.35428566242E+02 -0.65917746616E+01 -0.88675055316E+02  0.95717815659E+02  0.00000000000E+00 0. -1.
         13    1    3    3    0    0 -0.17063453797E+02  0.19950507868E+02  0.12471003421E+02  0.29063897639E+02  0.00000000000E+00 0.  1.
         21    1    1    2  502  501 -0.16642552835E+02 -0.25788597785E+02  0.21876571101E+02  0.37690989689E+02  0.00000000000E+00 0.  1.
<scales pt_clust_5="13000.00000" pt_clust_6="13000.00000" pt_clust_7="13000.00000" pt_clust_8="13000.00000" pt_clust_9="30.69245"></scales>
<clustering>
<clus scale="   30.692">  1  9  2 -1</clus>
<clus scale="   82.641">  7  8 -1 -1</clus>
<clus scale="   93.110">  5  6 -1 -1</clus>
<clus scale="  102.737">  1  7  2 -1</clus>
<clus scale="  111.332">  2  5  1 -1</clus>
</clustering>
</event>
<event>
 9    1  0.1266593E-005  0.9522069E+02  0.7546771E-02  0.1290798E+00
          4   -1    0    0  502    0  0.00000000000E+00  0.00000000000E+00  0.92995019074E+02  0.92995019074E+02  0.00000000000E+00 0. -1.
         -4   -1    0    0    0  501 -0.00000000000E+00 -0.00000000000E+00 -0.52015476479E+03  0.52015476479E+03  0.00000000000E+00 0.  1.
         23    2    1    2    0    0 -0.43639404622E+02 -0.75236531558E+02 -0.21751239208E+03  0.25178261515E+03  0.92292530947E+02 0.  0.
         23    2    1    2    0    0 -0.19141471555E+02  0.11592100456E+02  0.34601476538E+02  0.10127191103E+03  0.92509270129E+02 0.  0.
        -13    1    3    3    0    0 -0.71368188424E+00 -0.82439794667E+02 -0.15575093683E+03  0.17622480929E+03  0.00000000000E+00 0.  1.
         13    1    3    3    0    0 -0.42925722737E+02  0.72032631095E+01 -0.61761455244E+02  0.75557805856E+02  0.00000000000E+00 0. -1.
        -13    1    4    4    0    0  0.10480681908E+02 -0.30132812377E+02  0.38443336577E+02  0.49957193699E+02  0.00000000000E+00 0.  1.
         13    1    4    4    0    0 -0.29622153463E+02  0.41724912834E+02 -0.38418600393E+01  0.51314717336E+02  0.00000000000E+00 0. -1.
         21    1    1    2  502  501  0.62780876177E+02  0.63644431101E+02 -0.24424883017E+03  0.26009525767E+03  0.00000000000E+00 0.  1.
<scales pt_clust_5="13000.00000" pt_clust_6="13000.00000" pt_clust_7="13000.00000" pt_clust_8="13000.00000" pt_clust_9="89.39828"></scales>
<clustering>
<clus scale="   89.398">  2  9  1 -1</clus>
<clus scale="   92.293">  5  6 -1 -1</clus>
<clus scale="   92.509">  7  8 -1 -1</clus>
<clus scale="   95.010">  2  5  1 -1</clus>
<clus scale="   95.221">  1  5  2 -1</clus>
</clustering>
</event>
<event>
 9    1  0.1266593E-005  0.9547637E+02  0.7546771E-02  0.1291046E+00
         -1   -1    0    0    0  501 -0.00000000000E+00  0.00000000000E+00  0.83049590645E+02  0.83049590645E+02  0.00000000000E+00 0.  1.
          1   -1    0    0  502    0  0.00000000000E+00 -0.00000000000E+00 -0.21515695651E+03  0.21515695651E+03  0.00000000000E+00 0. -1.
         23    2    1    2    0    0  0.78897941654E+01  0.10518887706E+02  0.28007667650E+02  0.95116267768E+02  0.89943199278E+02 0.  0.
         23    2    1    2    0    0  0.27584509859E+00 -0.30311824687E+02 -0.15223632882E+03  0.18027554716E+03  0.91676007142E+02 0.  0.
        -11    1    3    3    0    0  0.17878997224E+02 -0.30846000072E+02  0.37258196193E+02  0.51568473370E+02  0.00000000000E+00 0. -1.
         11    1    3    3    0    0 -0.99892030590E+01  0.41364887778E+02 -0.92505285428E+01  0.43547794398E+02  0.00000000000E+00 0.  1.
        -13    1    4    4    0    0  0.26344115091E+02  0.95777875658E+01 -0.11880144472E+03  0.12206362964E+03  0.00000000000E+00 0. -1.
         13    1    4    4    0    0 -0.26068269993E+02 -0.39889612253E+02 -0.33434884097E+02  0.58211917514E+02  0.00000000000E+00 0.  1.
         21    1    1    2  502  501 -0.81656392640E+01  0.19792936981E+02 -0.78787046980E+01  0.22814732228E+02  0.00000000000E+00 0.  1.
<scales pt_clust_5="13000.00000" pt_clust_6="13000.00000" pt_clust_7="13000.00000" pt_clust_8="13000.00000" pt_clust_9="21.41117"></scales>
<clustering>
<clus scale="   21.411">  1  9  2 -1</clus>
<clus scale="   89.943">  5  6 -1 -1</clus>
<clus scale="   91.676">  7  8 -1 -1</clus>
<clus scale="   93.814">  1  5  2 -1</clus>
<clus scale="   95.476">  2  5  1 -1</clus>
</clustering>
</event>
<event>
 9    1  0.1266593E-005  0.1541972E+03  0.7546771E-02  0.1196582E+00
          1   -1    0    0  502    0  0.00000000000E+00  0.00000000000E+00  0.48425414972E+02  0.48425414972E+02  0.00000000000E+00 0. -1.
         -1   -1    0    0    0  501 -0.00000000000E+00 -0.00000000000E+00 -0.59082631845E+03  0.59082631845E+03  0.00000000000E+00 0.  1.
         23    2    1    2    0    0  0.62516418713E+02 -0.84415647910E+02 -0.30370782895E+03  0.33580529031E+03  0.97429171251E+02 0.  0.
         23    2    1    2    0    0 -0.72749782134E+02  0.10644492750E+03 -0.17720348168E+03  0.23733304875E+03  0.91119968821E+02 0.  0.
        -11    1    3    3    0    0  0.42689243983E+02 -0.55370799406E+02 -0.28958960548E+03  0.29791011494E+03  0.00000000000E+00 0.  1.
         11    1    3    3    0    0  0.19827174730E+02 -0.29044848504E+02 -0.14118223471E+02  0.37895175371E+02  0.00000000000E+00 0. -1.
        -13    1    4    4    0    0 -0.20510177393E+02 -0.12864365001E+02 -0.12174947154E+02  0.27099605196E+02  0.00000000000E+00 0.  1.
         13    1    4    4    0    0 -0.52239604741E+02  0.11930929250E+03 -0.16502853452E+03  0.21023344355E+03  0.00000000000E+00 0. -1.
         21    1    1    2  502  501  0.10233363421E+02 -0.22029279589E+02 -0.61489592855E+02  0.66113394373E+02  0.00000000000E+00 0.  1.
<scales pt_clust_5="13000.00000" pt_clust_6="13000.00000" pt_clust_7="13000.00000" pt_clust_8="13000.00000" pt_clust_9="24.29014"></scales>
<clustering>
<clus scale="   24.290">  2  9  1 -1</clus>
<clus scale="   91.120">  7  8 -1 -1</clus>
<clus scale="   97.429">  5  6 -1 -1</clus>
<clus scale="  150.290">  1  7  2 -1</clus>
<clus scale="  150.290">  1  5  2 -1</clus>
</clustering>
</event>
<event>
 9    1  0.1266593E-005  0.1010302E+03  0.7546771E-02  0.1278527E+00
         -2   -1    0    0    0  501 -0.00000000000E+00  0.00000000000E+00  0.28946903539E+02  0.28946903539E+02  0.00000000000E+00 0.  1.
          2   -1    0    0  502    0  0.00000000000E+00 -0.00000000000E+00 -0.83572606560E+03  0.83572606560E+03  0.00000000000E+00 0. -1.
         23    2    1    2    0    0  0.36318067554E+02 -0.47479126095E+01 -0.95305891285E+02  0.13722566279E+03  0.91684921933E+02 0.  0.
         23    2    1    2    0    0 -0.58780429359E+02  0.27509650606E+02 -0.62750045946E+03  0.63759138025E+03  0.92487954865E+02 0.  0.
        -11    1    4    4    0    0 -0.50279159885E+02  0.60316855047E+02 -0.46647488936E+03  0.47303798930E+03  0.00000000000E+00 0.  1.
         11    1    4    4    0    0 -0.85012694741E+01 -0.32807204441E+02 -0.16102557010E+03  0.16455339095E+03  0.00000000000E+00 0. -1.
        -13    1    3    3    0    0  0.55651813490E+02  0.19275565695E+02 -0.87399199165E+02  0.10539113716E+03  0.00000000000E+00 0.  1.
         13    1    3    3    0    0 -0.19333745936E+02 -0.24023478305E+02 -0.79066921198E+01  0.31834525629E+02  0.00000000000E+00 0. -1.
         21    1    1    2  502  501  0.22462361805E+02 -0.22761737996E+02 -0.83972811314E+02  0.89855926095E+02  0.00000000000E+00 0. -1.
<scales pt_clust_5="13000.00000" pt_clust_6="13000.00000" pt_clust_7="13000.00000" pt_clust_8="13000.00000" pt_clust_9="31.97897"></scales>
<clustering>
<clus scale="   31.979">  2  9  1 -1</clus>
<clus scale="   91.685">  7  8 -1 -1</clus>
<clus scale="   92.488">  5  6 -1 -1</clus>
<clus scale="  100.296">  1  7  2 -1</clus>
<clus scale="   31.979">  2  5  1 -1</clus>
</clustering>
</event>
<event>
 9    1  0.1266593E-005  0.1034408E+03  0.7546771E-02  0.1275246E+00
         -2   -1    0    0    0  501 -0.00000000000E+00  0.00000000000E+00  0.44048610601E+02  0.44048610601E+02  0.00000000000E+00 0.  1.
          2   -1    0    0  502    0  0.00000000000E+00 -0.00000000000E+00 -0.45302930519E+03  0.45302930519E+03  0.00000000000E+00 0. -1.
         23    2    1    2    0    0 -0.24929233635E+02 -0.14988730169E+02 -0.57932830021E+02  0.11315473230E+03  0.92745091115E+02 0.  0.
         23    2    1    2    0    0  0.45065789019E+02  0.22192261344E+02 -0.34774169612E+03  0.36228288603E+03  0.88324291631E+02 0.  0.
        -11    1    4    4    0    0 -0.81714135680E+01  0.41072449664E+02 -0.19462445268E+03  0.19907886805E+03  0.00000000000E+00 0. -1.
         11    1    4    4    0    0  0.53237202587E+02 -0.18880188320E+02 -0.15311724343E+03  0.16320401799E+03  0.00000000000E+00 0.  1.
        -13    1    3    3    0    0 -0.51646937439E+02 -0.36197734397E+02 -0.36543202132E+02  0.72890930467E+02  0.00000000000E+00 0.  1.
         13    1    3    3    0    0  0.26717703804E+02  0.21209004227E+02 -0.21389627889E+02  0.40263801833E+02  0.00000000000E+00 0. -1.
         21    1    1    2  502  501 -0.20136555384E+02 -0.72035311749E+01 -0.33061684503E+01  0.21640297455E+02  0.00000000000E+00 0.  1.
<scales pt_clust_5="13000.00000" pt_clust_6="13000.00000" pt_clust_7="13000.00000" pt_clust_8="13000.00000" pt_clust_9="21.38625"></scales>
<clustering>
<clus scale="   21.386">  1  9  2 -1</clus>
<clus scale="   88.324">  5  6 -1 -1</clus>
<clus scale="   92.745">  7  8 -1 -1</clus>
<clus scale="   99.496">  2  5  1 -1</clus>
<clus scale="   99.496">  2  5  1 -1</clus>
</clustering>
</event>
<event>
 9    1  0.1282103E-005  0.3735258E+03  0.7546771E-02  0.1053407E+00
          1   -1    0    0  502    0  0.00000000000E+00  0.00000000000E+00  0.99737337102E+03  0.99737337102E+03  0.00000000000E+00 0. -1.
         -1   -1    0    0    0  501 -0.00000000000E+00 -0.00000000000E+00 -0.37212352730E+03  0.37212352730E+03  0.00000000000E+00 0.  1.
         23    2    1    2    0    0 -0.36977731865E+03  0.93533785982E+02 -0.18791032250E+03  0.43440085876E+03  0.88938081186E+02 0.  0.
         23    2    1    2    0    0  0.34656030112E+03 -0.96527252235E+02  0.82799771381E+03  0.90738063659E+03  0.91311843903E+02 0.  0.
        -11    1    4    4    0    0  0.48962579137E+02  0.15073759576E+02  0.84818334853E+02  0.99089365276E+02  0.00000000000E+00 0.  1.
         11    1    4    4    0    0  0.29759772198E+03 -0.11160101181E+03  0.74317937896E+03  0.80829127131E+03  0.00000000000E+00 0. -1.
        -13    1    3    3    0    0 -0.33244261094E+03  0.75523934160E+02 -0.19439849221E+03  0.39244455401E+03  0.00000000000E+00 0.  1.
         13    1    3    3    0    0 -0.37334707712E+02  0.18009851822E+02  0.64881697081E+01  0.41956304755E+02  0.00000000000E+00 0. -1.
         21    1    1    2  502  501  0.23217017528E+02  0.29934662526E+01 -0.14837547599E+02  0.27715402972E+02  0.00000000000E+00 0.  1.
<scales pt_clust_5="13000.00000" pt_clust_6="13000.00000" pt_clust_7="13000.00000" pt_clust_8="13000.00000" pt_clust_9="23.40920"></scales>
<clustering>
<clus scale="   23.409">  2  9  1 -1</clus>
<clus scale="   88.938">  7  8 -1 -1</clus>
<clus scale="   91.312">  5  6 -1 -1</clus>
<clus scale="  372.953">  2  7  1 -1</clus>
<clus scale="  373.526">  1  5  2 -1</clus>
</clustering>
</event>
<event>
 9    1  0.1266593E-005  0.1099070E+03  0.7546771E-02  0.1263355E+00
          1   -1    0    0  502    0  0.00000000000E+00  0.00000000000E+00  0.56646394258E+02  0.56646394258E+02  0.00000000000E+00 0. -1.
         -1   -1    0    0    0  501 -0.00000000000E+00 -0.00000000000E+00 -0.34567360913E+03  0.34567360913E+03  0.00000000000E+00 0.  1.
         23    2    1    2    0    0  0.68676079466E+02 -0.34391718093E+02 -0.12245157642E+03  0.16633550538E+03  0.82303812902E+02 0.  0.
         23    2    1    2    0    0 -0.54401189792E+02  0.17972250254E+02 -0.49618898064E+02  0.11702126620E+03  0.89159690828E+02 0.  0.
        -11    1    3    3    0    0  0.43412395500E+01 -0.40801647292E+02 -0.77175551744E+02  0.87405300580E+02  0.00000000000E+00 0.  1.
         11    1    3    3    0    0  0.64334839916E+02  0.64099291981E+01 -0.45276024678E+02  0.78930204801E+02  0.00000000000E+00 0. -1.
        -11    1    4    4    0    0  0.17455397162E+02  0.27436150624E+02 -0.81690055918E+01  0.33528583381E+02  0.00000000000E+00 0. -1.
         11    1    4    4    0    0 -0.71856586954E+02 -0.94639003700E+01 -0.41449892473E+02  0.83492682822E+02  0.00000000000E+00 0.  1.
         21    1    1    2  502  501 -0.14274889674E+02  0.16419467839E+02 -0.11695674039E+03  0.11896323180E+03  0.00000000000E+00 0.  1.
<scales pt_clust_5="13000.00000" pt_clust_6="13000.00000" pt_clust_7="13000.00000" pt_clust_8="13000.00000" pt_clust_9="21.75710"></scales>
<clustering>
<clus scale="   21.757">  2  9  1 -1</clus>
<clus scale="   82.304">  5  6 -1 -1</clus>
<clus scale="   89.160">  7  8 -1 -1</clus>
<clus scale="  104.422">  2  5  1 -1</clus>
<clus scale="  109.907">  1  5  2 -1</clus>
</clustering>
</event>
<event>
 9    1  0.1266593E-005  0.9435355E+02  0.7546771E-02  0.1293515E+00
         -1   -1    0    0    0  501 -0.00000000000E+00  0.00000000000E+00  0.14855962924E+03  0.14855962924E+03  0.00000000000E+00 0.  1.
          1   -1    0    0  502    0  0.00000000000E+00 -0.00000000000E+00 -0.92867828514E+02  0.92867828514E+02  0.00000000000E+00 0. -1.
         23    2    1    2    0    0 -0.42130948201E+02 -0.16042512318E+02  0.33434754402E+02  0.10760385132E+03  0.91805920392E+02 0.  0.
         23    2    1    2    0    0  0.60667764542E+01  0.19099761300E+01  0.28579803730E+01  0.90502978292E+02  0.90233958366E+02 0.  0.
        -11    1    3    3    0    0 -0.57328194912E+01  0.36489678738E+02  0.21020090204E+02  0.42499483125E+02  0.00000000000E+00 0.  1.
         11    1    3    3    0    0 -0.36398128710E+02 -0.52532191056E+02  0.12414664199E+02  0.65104368194E+02  0.00000000000E+00 0. -1.
        -11    1    4    4    0    0  0.65832413321E+01  0.40927834901E+02 -0.19193740787E+02  0.45681795296E+02  0.00000000000E+00 0.  1.
         11    1    4    4    0    0 -0.51646487786E+00 -0.39017858771E+02  0.22051721160E+02  0.44821182995E+02  0.00000000000E+00 0. -1.
         21    1    1    2  502  501  0.36064171747E+02  0.14132536188E+02  0.19399065948E+02  0.43320628141E+02  0.00000000000E+00 0. -1.
<scales pt_clust_5="13000.00000" pt_clust_6="13000.00000" pt_clust_7="13000.00000" pt_clust_8="13000.00000" pt_clust_9="38.73439"></scales>
<clustering>
<clus scale="   38.734">  1  9  2 -1</clus>
<clus scale="   90.234">  7  8 -1 -1</clus>
<clus scale="   91.806">  5  6 -1 -1</clus>
<clus scale="   92.825">  2  7  1 -1</clus>
<clus scale="   92.825">  2  5  1 -1</clus>
</clustering>
</event>
<event>
 9    1  0.1266593E-005  0.1008548E+03  0.7546771E-02  0.1279753E+00
         -3   -1    0    0    0  501 -0.00000000000E+00  0.00000000000E+00  0.12084756589E+03  0.12084756589E+03  0.00000000000E+00 0.  1.
          3   -1    0    0  502    0  0.00000000000E+00 -0.00000000000E+00 -0.12665655776E+03  0.12665655776E+03  0.00000000000E+00 0. -1.
         23    2    1    2    0    0 -0.49377142748E+02  0.16305233460E+02 -0.18769839753E+02  0.10699100541E+03  0.91601340000E+02 0.  0.
         23    2    1    2    0    0  0.22500755332E+02  0.95643682015E+01 -0.82340440440E+01  0.97608573783E+02  0.94137522089E+02 0.  0.
        -11    1    3    3    0    0  0.19285410169E+02  0.20351283722E+02  0.13380035698E+02  0.31066495615E+02  0.00000000000E+00 0. -1.
         11    1    3    3    0    0 -0.68662552917E+02 -0.40460502621E+01 -0.32149875451E+02  0.75924509793E+02  0.00000000000E+00 0.  1.
        -11    1    4    4    0    0 -0.25501580482E+02  0.31513462376E+02  0.10019327275E+02  0.41759021026E+02  0.00000000000E+00 0.  1.
         11    1    4    4    0    0  0.48002335814E+02 -0.21949094175E+02 -0.18253371319E+02  0.55849552757E+02  0.00000000000E+00 0. -1.
         21    1    1    2  502  501  0.26876387416E+02 -0.25869601662E+02  0.21194891929E+02  0.42904544451E+02  0.00000000000E+00 0. -1.
<scales pt_clust_5="13000.00000" pt_clust_6="13000.00000" pt_clust_7="13000.00000" pt_clust_8="13000.00000" pt_clust_9="37.30384"></scales>
<clustering>
<clus scale="   37.304">  1  9  2 -1</clus>
<clus scale="   91.601">  5  6 -1 -1</clus>
<clus scale="   94.138">  7  8 -1 -1</clus>
<clus scale="   98.492">  1  5  2 -1</clus>
<clus scale="  100.855">  2  5  1 -1</clus>
</clustering>
</event>
<event>
 9    1  0.1266593E-005  0.1094322E+03  0.7546771E-02  0.1262199E+00
         -1   -1    0    0    0  501 -0.00000000000E+00  0.00000000000E+00  0.33171442319E+02  0.33171442319E+02  0.00000000000E+00 0.  1.
          1   -1    0    0  502    0  0.00000000000E+00 -0.00000000000E+00 -0.46449381455E+03  0.46449381455E+03  0.00000000000E+00 0. -1.
         23    2    1    2    0    0  0.70686096066E+02 -0.15127435443E+02 -0.21372733312E+03  0.24406788495E+03  0.93082737730E+02 0.  0.
         23    2    1    2    0    0 -0.42225897028E+02  0.12032373717E+02 -0.16914128965E+03  0.19731835119E+03  0.91640337498E+02 0.  0.
        -11    1    4    4    0    0 -0.65982912034E+02 -0.11902500244E+02 -0.12406500118E+03  0.14102318501E+03  0.00000000000E+00 0.  1.
         11    1    4    4    0    0  0.23757015006E+02  0.23934873962E+02 -0.45076288462E+02  0.56295166179E+02  0.00000000000E+00 0. -1.
        -13    1    3    3    0    0 -0.15021706697E+02 -0.23462404996E+02 -0.28775666505E+02  0.40052154787E+02  0.00000000000E+00 0.  1.
         13    1    3    3    0    0  0.85707802763E+02  0.83349695528E+01 -0.18495166662E+03  0.20401573017E+03  0.00000000000E+00 0. -1.
         21    1    1    2  502  501 -0.28460199038E+02  0.30950617257E+01 -0.48453749464E+02  0.56279020723E+02  0.00000000000E+00 0.  1.
<scales pt_clust_5="13000.00000" pt_clust_6="13000.00000" pt_clust_7="13000.00000" pt_clust_8="13000.00000" pt_clust_9="28.62800"></scales>
<clustering>
<clus scale="   28.628">  1  9  2 -1</clus>
<clus scale="   91.640">  5  6 -1 -1</clus>
<clus scale="   93.083">  7  8 -1 -1</clus>
<clus scale="  108.208">  2  5  1 -1</clus>
<clus scale="  108.208">  2  5  1 -1</clus>
</clustering>
</event>
<event>
 9    1  0.1266593E-005  0.1288435E+03  0.7546771E-02  0.1229551E+00
         -1   -1    0    0    0  501 -0.00000000000E+00  0.00000000000E+00  0.19709815479E+03  0.19709815479E+03  0.00000000000E+00 0.  1.
          1   -1    0    0  502    0  0.00000000000E+00 -0.00000000000E+00 -0.22489332704E+03  0.22489332704E+03  0.00000000000E+00 0. -1.
         23    2    1    2    0    0  0.88872198982E+02 -0.53808497708E+02 -0.55842235328E+02  0.14928737037E+03  0.91513613888E+02 0.  0.
         23    2    1    2    0    0 -0.84099103396E+02  0.11241584646E+02 -0.86100907311E+02  0.15078412266E+03  0.90130200199E+02 0.  0.
        -11    1    3    3    0    0  0.61283439925E+02 -0.61291099015E+02 -0.13423443910E+00  0.86673391801E+02  0.00000000000E+00 0.  1.
         11    1    3    3    0    0  0.27588759058E+02  0.74826013069E+01 -0.55708000889E+02  0.62613978565E+02  0.00000000000E+00 0. -1.
        -13    1    4    4    0    0  0.37285941399E+01 -0.27503483207E+02 -0.17833788392E+02  0.32990726139E+02  0.00000000000E+00 0.  1.
         13    1    4    4    0    0 -0.87827697536E+02  0.38745067852E+02 -0.68267118919E+02  0.11779339652E+03  0.00000000000E+00 0. -1.
         21    1    1    2  502  501 -0.47730955860E+01  0.42566913063E+02  0.11414797038E+03  0.12191998881E+03  0.00000000000E+00 0.  1.
<scales pt_clust_5="13000.00000" pt_clust_6="13000.00000" pt_clust_7="13000.00000" pt_clust_8="13000.00000" pt_clust_9="42.83368"></scales>
<clustering>
<clus scale="   42.834">  1  9  2 -1</clus>
<clus scale="   90.130">  7  8 -1 -1</clus>
<clus scale="   91.514">  5  6 -1 -1</clus>
<clus scale="  127.865">  2  7  1 -1</clus>
<clus scale="  127.865">  2  5  1 -1</clus>
</clustering>
</event>
<event>
 9    1  0.1266593E-005  0.1779047E+03  0.7546771E-02  0.1169904E+00
          1   -1    0    0  502    0  0.00000000000E+00  0.00000000000E+00  0.13195616499E+03  0.13195616499E+03  0.00000000000E+00 0. -1.
         -1   -1    0    0    0  501 -0.00000000000E+00 -0.00000000000E+00 -0.86789862920E+03  0.86789862920E+03  0.00000000000E+00 0.  1.
         23    2    1    2    0    0  0.17217037741E+03  0.36269716968E+02 -0.60093166530E+03  0.63270621163E+03  0.90775286518E+02 0.  0.
         23    2    1    2    0    0 -0.95254763632E+02 -0.12163135886E+03  0.12864313967E+02  0.17987960340E+03  0.91233347484E+02 0.  0.
        -11    1    3    3    0    0  0.14978405230E+03  0.19820333637E+01 -0.38880907619E+03  0.41666735954E+03  0.00000000000E+00 0.  1.
         11    1    3    3    0    0  0.22386325111E+02  0.34287683605E+02 -0.21212258911E+03  0.21603885208E+03  0.00000000000E+00 0. -1.
        -11    1    4    4    0    0 -0.51615151068E+02 -0.78008771853E+02  0.51794567564E+02  0.10692132404E+03  0.00000000000E+00 0. -1.
         11    1    4    4    0    0 -0.43639612564E+02 -0.43622587005E+02 -0.38930253597E+02  0.72958279358E+02  0.00000000000E+00 0.  1.
         21    1    1    2  502  501 -0.76915613779E+02  0.85361641890E+02 -0.14787511288E+03  0.18726897916E+03  0.00000000000E+00 0. -1.
<scales pt_clust_5="13000.00000" pt_clust_6="13000.00000" pt_clust_7="13000.00000" pt_clust_8="13000.00000" pt_clust_9="114.90266"></scales>
<clustering>
<clus scale="   90.775">  5  6 -1 -1</clus>
<clus scale="   91.233">  7  8 -1 -1</clus>
<clus scale="  114.903">  2  9  1 -1</clus>
<clus scale="  177.670">  2  5  1 -1</clus>
<clus scale="  177.905">  1  5  2 -1</clus>
</clustering>
</event>
<event>
 9    1  0.1266593E-005  0.9745663E+02  0.7546771E-02  0.1285790E+00
         -1   -1    0    0    0  501 -0.00000000000E+00  0.00000000000E+00  0.18854325986E+03  0.18854325986E+03  0.00000000000E+00 0.  1.
          1   -1    0    0  502    0  0.00000000000E+00 -0.00000000000E+00 -0.72959244308E+02  0.72959244308E+02  0.00000000000E+00 0. -1.
         23    2    1    2    0    0 -0.29091899832E+02 -0.23346030327E+02  0.91303938080E+02  0.13465127045E+03  0.91668859258E+02 0.  0.
         23    2    1    2    0    0  0.33410010185E+02 -0.59720640974E+00  0.89051677507E+01  0.98070814827E+02  0.91771440394E+02 0.  0.
        -13    1    4    4    0    0 -0.32040369585E+02 -0.40612424424E+00  0.19826925230E+00  0.32043556774E+02  0.00000000000E+00 0.  1.
         13    1    4    4    0    0  0.65450379770E+02 -0.19108216550E+00  0.87068984984E+01  0.66027258053E+02  0.00000000000E+00 0. -1.
        -13    1    3    3    0    0 -0.53792761914E+02  0.90280882952E+01  0.33729287171E+02  0.64131368500E+02  0.00000000000E+00 0. -1.
         13    1    3    3    0    0  0.24700862082E+02 -0.32374118622E+02  0.57574650909E+02  0.70519901953E+02  0.00000000000E+00 0.  1.
         21    1    1    2  502  501 -0.43181103537E+01  0.23943236737E+02  0.15374909722E+02  0.28780418889E+02  0.00000000000E+00 0. -1.
<scales pt_clust_5="13000.00000" pt_clust_6="13000.00000" pt_clust_7="13000.00000" pt_clust_8="13000.00000" pt_clust_9="24.32950"></scales>
<clustering>
<clus scale="   24.330">  1  9  2 -1</clus>
<clus scale="   91.669">  7  8 -1 -1</clus>
<clus scale="   91.771">  5  6 -1 -1</clus>
<clus scale="   97.360">  1  7  2 -1</clus>
<clus scale="   97.457">  2  5  1 -1</clus>
</clustering>
</event>
<event>
 9    1  0.1266593E-005  0.9712082E+02  0.7546771E-02  0.1287752E+00
          1   -1    0    0  502    0  0.00000000000E+00  0.00000000000E+00  0.37168589066E+03  0.37168589066E+03  0.00000000000E+00 0. -1.
         -1   -1    0    0    0  501 -0.00000000000E+00 -0.00000000000E+00 -0.16177879385E+03  0.16177879385E+03  0.00000000000E+00 0.  1.
         23    2    1    2    0    0 -0.22457109912E+02  0.21437245360E+02 -0.11667945058E+03  0.15101222660E+03  0.90701274096E+02 0.  0.
         23    2    1    2    0    0  0.59205540594E+02 -0.73447647769E+02  0.26000555232E+03  0.29031908708E+03  0.88218093852E+02 0.  0.
        -11    1    3    3    0    0 -0.20983398097E+02  0.54553972374E+02 -0.51562877679E+02  0.77943372085E+02  0.00000000000E+00 0.  1.
         11    1    3    3    0    0 -0.14737118150E+01 -0.33116727014E+02 -0.65116572898E+02  0.73068854518E+02  0.00000000000E+00 0. -1.
        -11    1    4    4    0    0  0.36237658237E+02 -0.78738910396E+02  0.25020467192E+03  0.26479305454E+03  0.00000000000E+00 0. -1.
         11    1    4    4    0    0  0.22967882357E+02  0.52912626269E+01  0.98008804029E+01  0.25526032532E+02  0.00000000000E+00 0.  1.
         21    1    1    2  502  501 -0.36748430682E+02  0.52010402409E+02  0.66580995066E+02  0.92133370829E+02  0.00000000000E+00 0.  1.
<scales pt_clust_5="13000.00000" pt_clust_6="13000.00000" pt_clust_7="13000.00000" pt_clust_8="13000.00000" pt_clust_9="63.68304"></scales>
<clustering>
<clus scale="   63.683">  1  9  2 -1</clus>
<clus scale="   88.218">  7  8 -1 -1</clus>
<clus scale="   90.701">  5  6 -1 -1</clus>
<clus scale="   94.806">  1  7  2 -1</clus>
<clus scale="   63.683">  1  5  2 -1</clus>
</clustering>
</event>
<event>
 9    1  0.1266593E-005  0.1048829E+03  0.7546771E-02  0.1276248E+00
         -2   -1    0    0    0  501 -0.00000000000E+00  0.00000000000E+00  0.66495039225E+03  0.66495039225E+03  0.00000000000E+00 0.  1.
          2   -1    0    0  502    0  0.00000000000E+00 -0.00000000000E+00 -0.81696883784E+02  0.81696883784E+02  0.00000000000E+00 0. -1.
         23    2    1    2    0    0 -0.63567136673E+02 -0.81850236646E+01  0.36432052214E+03  0.38106781825E+03  0.91517559905E+02 0.  0.
         23    2    1    2    0    0  0.38546508317E+02  0.33366367305E+02 -0.41818274877E+02  0.10242294138E+03  0.78374377424E+02 0.  0.
        -11    1    4    4    0    0 -0.51197373431E+01  0.36948950869E+02 -0.45052552125E+02  0.58490761097E+02  0.00000000000E+00 0. -1.
         11    1    4    4    0    0  0.43666245660E+02 -0.35825835637E+01  0.32342772482E+01  0.43932180282E+02  0.00000000000E+00 0.  1.
        -13    1    3    3    0    0 -0.73039684473E+02 -0.36190296640E+02  0.24818958555E+03  0.26123285294E+03  0.00000000000E+00 0.  1.
         13    1    3    3    0    0  0.94725478008E+01  0.28005272975E+02  0.11613093660E+03  0.11983496531E+03  0.00000000000E+00 0. -1.
         21    1    1    2  502  501  0.25020628355E+02 -0.25181343640E+02  0.26075126120E+03  0.26315651640E+03  0.00000000000E+00 0. -1.
<scales pt_clust_5="13000.00000" pt_clust_6="13000.00000" pt_clust_7="13000.00000" pt_clust_8="13000.00000" pt_clust_9="35.49834"></scales>
<clustering>
<clus scale="   35.498">  1  9  2 -1</clus>
<clus scale="   78.374">  5  6 -1 -1</clus>
<clus scale="   91.518">  7  8 -1 -1</clus>
<clus scale="   93.635">  2  5  1 -1</clus>
<clus scale="   93.635">  2  5  1 -1</clus>
</clustering>
</event>
<event>
 9    1  0.1266593E-005  0.1198877E+03  0.7546771E-02  0.1243391E+00
         -1   -1    0    0    0  501 -0.00000000000E+00  0.00000000000E+00  0.23514866258E+02  0.23514866258E+02  0.00000000000E+00 0.  1.
          1   -1    0    0  502    0  0.00000000000E+00 -0.00000000000E+00 -0.83326346441E+03  0.83326346441E+03  0.00000000000E+00 0. -1.
         23    2    1    2    0    0 -0.38559691463E+02  0.81108622982E+02 -0.29051520209E+03  0.31758985507E+03  0.91644830012E+02 0.  0.
         23    2    1    2    0    0  0.23473410839E+02 -0.67235230161E+02 -0.48994013567E+03  0.50343708408E+03  0.91301609484E+02 0.  0.
        -11    1    4    4    0    0  0.26084540309E+02 -0.89515539013E+02 -0.40366532002E+03  0.41429352584E+03  0.00000000000E+00 0. -1.
         11    1    4    4    0    0 -0.26111294705E+01  0.22280308852E+02 -0.86274815647E+02  0.89143558234E+02  0.00000000000E+00 0.  1.
        -13    1    3    3    0    0 -0.21220493157E+02  0.92806773841E+02 -0.16626912606E+03  0.19159548242E+03  0.00000000000E+00 0.  1.
         13    1    3    3    0    0 -0.17339198306E+02 -0.11698150858E+02 -0.12424607603E+03  0.12599437265E+03  0.00000000000E+00 0. -1.
         21    1    1    2  502  501  0.15086280624E+02 -0.13873392821E+02 -0.29293260399E+02  0.35751391529E+02  0.00000000000E+00 0. -1.
<scales pt_clust_5="13000.00000" pt_clust_6="13000.00000" pt_clust_7="13000.00000" pt_clust_8="13000.00000" pt_clust_9="20.49553"></scales>
<clustering>
<clus scale="   20.496">  1  9  2 -1</clus>
<clus scale="   91.302">  5  6 -1 -1</clus>
<clus scale="   91.645">  7  8 -1 -1</clus>
<clus scale="  119.626">  2  5  1 -1</clus>
<clus scale="  119.626">  2  5  1 -1</clus>
</clustering>
</event>
<event>
 9    1  0.1266593E-005  0.1581210E+03  0.7546771E-02  0.1191106E+00
         -1   -1    0    0    0  501 -0.00000000000E+00  0.00000000000E+00  0.87794559859E+02  0.87794559859E+02  0.00000000000E+00 0.  1.
          1   -1    0    0  502    0  0.00000000000E+00 -0.00000000000E+00 -0.37144198835E+03  0.37144198835E+03  0.00000000000E+00 0. -1.
         23    2    1    2    0    0 -0.93137797861E+02 -0.82961767036E+02 -0.52013659712E+02  0.16386952480E+03  0.92684929636E+02 0.  0.
         23    2    1    2    0    0  0.82981663246E+02  0.10019626804E+03 -0.22254661537E+03  0.27339541782E+03  0.91064866483E+02 0.  0.
        -11    1    4    4    0    0  0.20765298677E+02  0.93999434463E+02 -0.13327192530E+03  0.16440345915E+03  0.00000000000E+00 0. -1.
         11    1    4    4    0    0  0.62216364568E+02  0.61968335752E+01 -0.89274690074E+02  0.10899195867E+03  0.00000000000E+00 0.  1.
        -13    1    3    3    0    0 -0.42663763233E+02 -0.91452243495E+02 -0.50061135018E+02  0.11264913126E+03  0.00000000000E+00 0. -1.
         13    1    3    3    0    0 -0.50474034628E+02  0.84904764597E+01 -0.19525246943E+01  0.51220393544E+02  0.00000000000E+00 0.  1.
         21    1    1    2  502  501  0.10156134615E+02 -0.17234501002E+02 -0.90871534083E+01  0.21971605590E+02  0.00000000000E+00 0. -1.
<scales pt_clust_5="13000.00000" pt_clust_6="13000.00000" pt_clust_7="13000.00000" pt_clust_8="13000.00000" pt_clust_9="20.00438"></scales>
<clustering>
<clus scale="   20.004">  1  9  2 -1</clus>
<clus scale="   91.065">  5  6 -1 -1</clus>
<clus scale="   92.685">  7  8 -1 -1</clus>
<clus scale="  157.177">  2  5  1 -1</clus>
<clus scale="  157.177">  2  5  1 -1</clus>
</clustering>
</event>
<event>
 9    1  0.1266593E-005  0.1548796E+03  0.7546771E-02  0.1194867E+00
         -3   -1    0    0    0  501 -0.00000000000E+00  0.00000000000E+00  0.17210474109E+03  0.17210474109E+03  0.00000000000E+00 0.  1.
          3   -1    0    0  502    0  0.00000000000E+00 -0.00000000000E+00 -0.42398970926E+03  0.42398970926E+03  0.00000000000E+00 0. -1.
         23    2    1    2    0    0 -0.28108324395E+02 -0.12263665786E+03  0.45927020987E+02  0.16216473050E+03  0.91423633772E+02 0.  0.
         23    2    1    2    0    0  0.13749191499E+03  0.76397099489E+02 -0.24063400425E+03  0.30212612123E+03  0.92924300541E+02 0.  0.
        -11    1    3    3    0    0  0.33755842580E+02 -0.41622808988E+02  0.15474957837E+02  0.55779830193E+02  0.00000000000E+00 0.  1.
         11    1    3    3    0    0 -0.61864166974E+02 -0.81013848870E+02  0.30452063150E+02  0.10638490031E+03  0.00000000000E+00 0. -1.
        -13    1    4    4    0    0  0.13884422775E+02 -0.18107418715E+02 -0.12600079473E+02  0.26065644267E+02  0.00000000000E+00 0.  1.
         13    1    4    4    0    0  0.12360749222E+03  0.94504518204E+02 -0.22803392477E+03  0.27606047696E+03  0.00000000000E+00 0. -1.
         21    1    1    2  502  501 -0.10938359060E+03  0.46239558369E+02 -0.57177984901E+02  0.13180359862E+03  0.00000000000E+00 0. -1.
<scales pt_clust_5="13000.00000" pt_clust_6="13000.00000" pt_clust_7="13000.00000" pt_clust_8="13000.00000" pt_clust_9="118.75549"></scales>
<clustering>
<clus scale="   91.424">  5  6 -1 -1</clus>
<clus scale="   92.924">  7  8 -1 -1</clus>
<clus scale="  118.755">  2  9  1 -1</clus>
<clus scale="  153.984">  1  5  2 -1</clus>
<clus scale="  118.755">  2  5  1 -1</clus>
</clustering>
</event>
<event>
 9    1  0.1266593E-005  0.1443868E+03  0.7546771E-02  0.1219202E+00
         -2   -1    0    0    0  501 -0.00000000000E+00  0.00000000000E+00  0.37796381458E+03  0.37796381458E+03  0.00000000000E+00 0.  1.
          2   -1    0    0  502    0  0.00000000000E+00 -0.00000000000E+00 -0.14976721526E+03  0.14976721526E+03  0.00000000000E+00 0. -1.
         23    2    1    2    0    0  0.77203229858E+02 -0.86930468830E+02 -0.46183423598E+02  0.15493666914E+03  0.91406880041E+02 0.  0.
         23    2    1    2    0    0  0.31744716168E+02  0.55687362907E+02  0.54039393389E+02  0.12501264298E+03  0.92731307958E+02 0.  0.
        -13    1    3    3    0    0  0.17800070142E+02 -0.79618438904E+02 -0.39403163111E+01  0.81679032825E+02  0.00000000000E+00 0.  1.
         13    1    3    3    0    0  0.59403159716E+02 -0.73120299258E+01 -0.42243107287E+02  0.73257636320E+02  0.00000000000E+00 0. -1.
        -13    1    4    4    0    0  0.58357430203E+02  0.52286879548E+02  0.18545616551E+02  0.80519856719E+02  0.00000000000E+00 0. -1.
         13    1    4    4    0    0 -0.26612714035E+02  0.34004833594E+01  0.35493776837E+02  0.44492786264E+02  0.00000000000E+00 0.  1.
         21    1    1    2  502  501 -0.10894794603E+03  0.31243105923E+02  0.22034062953E+03  0.24778171771E+03  0.00000000000E+00 0.  1.
<scales pt_clust_5="13000.00000" pt_clust_6="13000.00000" pt_clust_7="13000.00000" pt_clust_8="13000.00000" pt_clust_9="111.76907"></scales>
<clustering>
<clus scale="   91.407">  5  6 -1 -1</clus>
<clus scale="   92.731">  7  8 -1 -1</clus>
<clus scale="  112.729">  2  7  1 -1</clus>
<clus scale="  111.769">  1  9  2 -1</clus>
<clus scale="  112.729">  2  5  1 -1</clus>
</clustering>
</event>
<event>
 9    1  0.1266593E-005  0.9580073E+02  0.7546771E-02  0.1291158E+00
         -1   -1    0    0    0  501 -0.00000000000E+00  0.00000000000E+00  0.30921899200E+03  0.30921899200E+03  0.00000000000E+00 0.  1.
          1   -1    0    0  502    0  0.00000000000E+00 -0.00000000000E+00 -0.54095039475E+02  0.54095039475E+02  0.00000000000E+00 0. -1.
         23    2    1    2    0    0  0.21765715983E+02  0.12389475443E+02  0.18061719259E+03  0.20545071408E+03  0.94658228181E+02 0.  0.
         23    2    1    2    0    0 -0.50862452551E+01  0.19206535041E+02  0.25162944037E+02  0.96942674018E+02  0.91487416698E+02 0.  0.
        -11    1    3    3    0    0  0.40464965061E+02 -0.20726529333E+02  0.42650323807E+02  0.62338210886E+02  0.00000000000E+00 0.  1.
         11    1    3    3    0    0 -0.18699249078E+02  0.33116004776E+02  0.13796686878E+03  0.14311250319E+03  0.00000000000E+00 0. -1.
        -13    1    4    4    0    0 -0.32980278580E+02 -0.90242451756E+01  0.41719034824E+02  0.53940834651E+02  0.00000000000E+00 0.  1.
         13    1    4    4    0    0  0.27894033325E+02  0.28230780216E+02 -0.16556090787E+02  0.43001839367E+02  0.00000000000E+00 0. -1.
         21    1    1    2  502  501 -0.16679470728E+02 -0.31596010484E+02  0.49343815902E+02  0.60920643382E+02  0.00000000000E+00 0. -1.
<scales pt_clust_5="13000.00000" pt_clust_6="13000.00000" pt_clust_7="13000.00000" pt_clust_8="13000.00000" pt_clust_9="35.72832"></scales>
<clustering>
<clus scale="   35.728">  1  9  2 -1</clus>
<clus scale="   91.487">  7  8 -1 -1</clus>
<clus scale="   92.669">  2  7  1 -1</clus>
<clus scale="   94.658">  5  6 -1 -1</clus>
<clus scale="   92.669">  2  5  1 -1</clus>
</clustering>
</event>
<event>
 9    1  0.1266593E-005  0.1129257E+03  0.7546771E-02  0.1258382E+00
          1   -1    0    0  502    0  0.00000000000E+00  0.00000000000E+00  0.22858130700E+03  0.22858130700E+03  0.00000000000E+00 0. -1.
         -1   -1    0    0    0  501 -0.00000000000E+00 -0.00000000000E+00 -0.13792082854E+03  0.13792082854E+03  0.00000000000E+00 0.  1.
         23    2    1    2    0    0  0.29199264434E+02  0.51812106707E+01  0.19932223769E+02  0.98333635280E+02  0.91612053222E+02 0.  0.
         23    2    1    2    0    0 -0.66719904967E+02  0.13631888951E+02  0.14152517741E+03  0.18586457903E+03  0.99392614317E+02 0.  0.
        -11    1    4    4    0    0 -0.61378387709E+02 -0.78498223500E+01  0.14992187868E+03  0.16218969109E+03  0.00000000000E+00 0. -1.
         11    1    4    4    0    0 -0.53415172578E+01  0.21481711301E+02 -0.83967012628E+01  0.23674887943E+02  0.00000000000E+00 0.  1.
        -11    1    3    3    0    0 -0.32715303734E+02  0.21813647744E+00  0.15100517681E+02  0.36032822761E+02  0.00000000000E+00 0. -1.
         11    1    3    3    0    0  0.61914568168E+02  0.49630741932E+01  0.48317060886E+01  0.62300812519E+02  0.00000000000E+00 0.  1.
         21    1    1    2  502  501  0.37520640533E+02 -0.18813099622E+02 -0.70796922718E+02  0.82303921230E+02  0.00000000000E+00 0.  1.
<scales pt_clust_5="13000.00000" pt_clust_6="13000.00000" pt_clust_7="13000.00000" pt_clust_8="13000.00000" pt_clust_9="41.97298"></scales>
<clustering>
<clus scale="   41.973">  2  9  1 -1</clus>
<clus scale="   91.612">  7  8 -1 -1</clus>
<clus scale="   99.393">  5  6 -1 -1</clus>
<clus scale="  106.142">  2  7  1 -1</clus>
<clus scale="  112.926">  1  5  2 -1</clus>
</clustering>
</event>
<event>
 9    1  0.1266593E-005  0.1180300E+03  0.7546771E-02  0.1246853E+00
          1   -1    0    0  502    0  0.00000000000E+00  0.00000000000E+00  0.41424509975E+03  0.41424509975E+03  0.00000000000E+00 0. -1.
         -1   -1    0    0    0  501 -0.00000000000E+00 -0.00000000000E+00 -0.47927693645E+02  0.47927693645E+02  0.00000000000E+00 0.  1.
         23    2    1    2    0    0  0.11515306867E+02 -0.60503580980E+02  0.11706323479E+03  0.16030747003E+03  0.90561572444E+02 0.  0.
         23    2    1    2    0    0 -0.20551023012E+02  0.79561412538E+02  0.25202660906E+03  0.28059253509E+03  0.91991283059E+02 0.  0.
        -11    1    4    4    0    0  0.29469325730E+02  0.19274783698E+01  0.44056521310E+02  0.53038980022E+02  0.00000000000E+00 0. -1.
         11    1    4    4    0    0 -0.50020348742E+02  0.77633934168E+02  0.20797008775E+03  0.22755355506E+03  0.00000000000E+00 0.  1.
        -13    1    3    3    0    0 -0.27768050816E+02 -0.60203474449E+02  0.93089814932E+02  0.11428576738E+03  0.00000000000E+00 0.  1.
         13    1    3    3    0    0  0.39283357683E+02 -0.30010653143E+00  0.23973419859E+02  0.46021702647E+02  0.00000000000E+00 0. -1.
         21    1    1    2  502  501  0.90357161450E+01 -0.19057831558E+02 -0.27724377534E+01  0.21272788276E+02  0.00000000000E+00 0. -1.
<scales pt_clust_5="13000.00000" pt_clust_6="13000.00000" pt_clust_7="13000.00000" pt_clust_8="13000.00000" pt_clust_9="21.09135"></scales>
<clustering>
<clus scale="   21.091">  2  9  1 -1</clus>
<clus scale="   90.562">  7  8 -1 -1</clus>
<clus scale="   91.991">  5  6 -1 -1</clus>
<clus scale="  116.919">  2  7  1 -1</clus>
<clus scale="  118.030">  1  5  2 -1</clus>
</clustering>
</event>
<event>
 9    1  0.1266593E-005  0.2137725E+03  0.7546771E-02  0.1158900E+00
         -2   -1    0    0    0  501 -0.00000000000E+00  0.00000000000E+00  0.54765568872E+03  0.54765568872E+03  0.00000000000E+00 0.  1.
          2   -1    0    0  502    0  0.00000000000E+00 -0.00000000000E+00 -0.13889493491E+03  0.13889493491E+03  0.00000000000E+00 0. -1.
         23    2    1    2    0    0  0.23192797458E+03 -0.44792451925E+02  0.24033875343E+03  0.34914139750E+03  0.91323873657E+02 0.  0.
         23    2    1    2    0    0 -0.72500883941E+02  0.61598503173E+02  0.77703598763E+02  0.15321023324E+03  0.91568403630E+02 0.  0.
        -11    1    3    3    0    0  0.74170951083E+00 -0.20689375558E+02  0.16910426851E+02  0.26731309925E+02  0.00000000000E+00 0.  1.
         11    1    3    3    0    0  0.23118626507E+03 -0.24103076367E+02  0.22342832658E+03  0.32241008757E+03  0.00000000000E+00 0. -1.
        -13    1    4    4    0    0 -0.21107080992E+02  0.75474192169E+02  0.40091391075E+02  0.88029439336E+02  0.00000000000E+00 0.  1.
         13    1    4    4    0    0 -0.51393802949E+02 -0.13875688996E+02  0.37612207688E+02  0.65180793903E+02  0.00000000000E+00 0. -1.
         21    1    1    2  502  501 -0.15942709064E+03 -0.16806051247E+02  0.90718401620E+02  0.18419899289E+03  0.00000000000E+00 0.  1.
<scales pt_clust_5="13000.00000" pt_clust_6="13000.00000" pt_clust_7="13000.00000" pt_clust_8="13000.00000" pt_clust_9="193.28376"></scales>
<clustering>
<clus scale="   91.324">  5  6 -1 -1</clus>
<clus scale="   91.568">  7  8 -1 -1</clus>
<clus scale="  132.044">  2  7  1 -1</clus>
<clus scale="  193.284">  1  9  2 -1</clus>
<clus scale="  132.044">  2  5  1 -1</clus>
</clustering>
</event>
<event>
 9    1  0.1266593E-005  0.1162292E+03  0.7546771E-02  0.1249795E+00
         -3   -1    0    0    0  501 -0.00000000000E+00  0.00000000000E+00  0.49369588844E+03  0.49369588844E+03  0.00000000000E+00 0.  1.
          3   -1    0    0  502    0  0.00000000000E+00 -0.00000000000E+00 -0.93857106488E+02  0.93857106488E+02  0.00000000000E+00 0. -1.
         23    2    1    2    0    0  0.31311098297E+02  0.48501696314E+02  0.28700090454E+03  0.30655631438E+03  0.90964032756E+02 0.  0.
         23    2    1    2    0    0  0.26013498341E+02 -0.73268337585E+02 -0.32127418988E+02  0.12315361590E+03  0.89942707702E+02 0.  0.
        -11    1    4    4    0    0  0.30956046317E+02  0.11378939032E+02 -0.15511575192E+01  0.33017618732E+02  0.00000000000E+00 0.  1.
         11    1    4    4    0    0 -0.49425479766E+01 -0.84647276617E+02 -0.30576261469E+02  0.90135997163E+02  0.00000000000E+00 0. -1.
        -11    1    3    3    0    0  0.48542889101E+01 -0.24861887565E+02  0.11413782744E+03  0.11691501712E+03  0.00000000000E+00 0. -1.
         11    1    3    3    0    0  0.26456809387E+02  0.73363583880E+02  0.17286307710E+03  0.18964129726E+03  0.00000000000E+00 0.  1.
         21    1    1    2  502  501 -0.57324596638E+02  0.24766641271E+02  0.14496529641E+03  0.15784306466E+03  0.00000000000E+00 0.  1.
<scales pt_clust_5="13000.00000" pt_clust_6="13000.00000" pt_clust_7="13000.00000" pt_clust_8="13000.00000" pt_clust_9="62.44594"></scales>
<clustering>
<clus scale="   62.446">  1  9  2 -1</clus>
<clus scale="   89.943">  5  6 -1 -1</clus>
<clus scale="   90.964">  7  8 -1 -1</clus>
<clus scale="  115.432">  2  5  1 -1</clus>
<clus scale="  115.432">  2  5  1 -1</clus>
</clustering>
</event>
<event>
 9    1  0.1266593E-005  0.1150425E+03  0.7546771E-02  0.1256966E+00
         -2   -1    0    0    0  501 -0.00000000000E+00  0.00000000000E+00  0.18742029386E+03  0.18742029386E+03  0.00000000000E+00 0.  1.
          2   -1    0    0  502    0  0.00000000000E+00 -0.00000000000E+00 -0.10073727495E+03  0.10073727495E+03  0.00000000000E+00 0. -1.
         23    2    1    2    0    0 -0.70062070281E+01  0.35435334850E+02  0.10482211458E+03  0.15217292770E+03  0.10423135001E+03 0.  0.
         23    2    1    2    0    0  0.25352855090E+02 -0.46434075800E+02 -0.32537388191E+02  0.11019932310E+03  0.91029217974E+02 0.  0.
        -11    1    3    3    0    0  0.26874742951E+02  0.23102634001E+02  0.11016349736E+03  0.11572372123E+03  0.00000000000E+00 0.  1.
         11    1    3    3    0    0 -0.33880949979E+02  0.12332700849E+02 -0.53413827724E+01  0.36449206461E+02  0.00000000000E+00 0. -1.
        -13    1    4    4    0    0 -0.29249116369E+02 -0.32671514759E+02 -0.31299947145E+02  0.53876018564E+02  0.00000000000E+00 0. -1.
         13    1    4    4    0    0  0.54601971459E+02 -0.13762561040E+02 -0.12374410467E+01  0.56323304537E+02  0.00000000000E+00 0.  1.
         21    1    1    2  502  501 -0.18346648062E+02  0.10998740950E+02  0.14398292516E+02  0.25785318012E+02  0.00000000000E+00 0.  1.
<scales pt_clust_5="13000.00000" pt_clust_6="13000.00000" pt_clust_7="13000.00000" pt_clust_8="13000.00000" pt_clust_9="21.39093"></scales>
<clustering>
<clus scale="   21.391">  1  9  2 -1</clus>
<clus scale="   91.029">  7  8 -1 -1</clus>
<clus scale="  103.232">  2  7  1 -1</clus>
<clus scale="  104.231">  5  6 -1 -1</clus>
<clus scale="  103.232">  2  5  1 -1</clus>
</clustering>
</event>
<event>
 9    1  0.1266593E-005  0.2573090E+03  0.7546771E-02  0.1108851E+00
          2   -1    0    0  502    0  0.00000000000E+00  0.00000000000E+00  0.14679526971E+04  0.14679526971E+04  0.00000000000E+00 0.  1.
         -2   -1    0    0    0  501 -0.00000000000E+00 -0.00000000000E+00 -0.11466810547E+03  0.11466810547E+03  0.00000000000E+00 0. -1.
         23    2    1    2    0    0  0.15160760160E+03 -0.15851686835E+03  0.58499149329E+02  0.24288124776E+03  0.86352114206E+02 0.  0.
         23    2    1    2    0    0 -0.14208711146E+03  0.20007726812E+03  0.12537599173E+04  0.12805703038E+04  0.87901719852E+02 0.  0.
        -11    1    3    3    0    0  0.89136964939E+02 -0.33355158372E+02  0.32714046879E+02  0.10063882934E+03  0.00000000000E+00 0. -1.
         11    1    3    3    0    0  0.62470636663E+02 -0.12516170997E+03  0.25785102450E+02  0.14224241842E+03  0.00000000000E+00 0.  1.
        -11    1    4    4    0    0 -0.20463360768E+02  0.90973168797E+02  0.35278565490E+03  0.36490078772E+03  0.00000000000E+00 0. -1.
         11    1    4    4    0    0 -0.12162375070E+03  0.10910409933E+03  0.90097426238E+03  0.91566951609E+03  0.00000000000E+00 0.  1.
         21    1    1    2  502  501 -0.95204901381E+01 -0.41560399779E+02  0.41025525062E+02  0.59169251042E+02  0.00000000000E+00 0. -1.
<scales pt_clust_5="13000.00000" pt_clust_6="13000.00000" pt_clust_7="13000.00000" pt_clust_8="13000.00000" pt_clust_9="42.63692"></scales>
<clustering>
<clus scale="   42.637">  2  9  1 -1</clus>
<clus scale="   86.352">  5  6 -1 -1</clus>
<clus scale="   87.902">  7  8 -1 -1</clus>
<clus scale="  256.784">  2  5  1 -1</clus>
<clus scale="  257.309">  1  5  2 -1</clus>
</clustering>
</event>
<event>
 9    1  0.1266593E-005  0.1197855E+03  0.7546771E-02  0.1243729E+00
         -1   -1    0    0    0  501 -0.00000000000E+00  0.00000000000E+00  0.87256017144E+02  0.87256017144E+02  0.00000000000E+00 0.  1.
          1   -1    0    0  502    0  0.00000000000E+00 -0.00000000000E+00 -0.22888873684E+03  0.22888873684E+03  0.00000000000E+00 0. -1.
         23    2    1    2    0    0  0.28795052145E+02 -0.60307411875E+02 -0.24645213971E+02  0.11687810834E+03  0.92665887374E+02 0.  0.
         23    2    1    2    0    0 -0.43416858904E+01  0.81654783842E+02 -0.11028688431E+03  0.16612187624E+03  0.93525007115E+02 0.  0.
        -13    1    4    4    0    0 -0.27984560333E+02  0.66072404472E+02 -0.24562649104E+02  0.75842085815E+02  0.00000000000E+00 0.  1.
         13    1    4    4    0    0  0.23642874443E+02  0.15582379370E+02 -0.85724235201E+02  0.90279790427E+02  0.00000000000E+00 0. -1.
        -13    1    3    3    0    0 -0.10138654851E+02 -0.72681584673E+02 -0.16644330738E+02  0.75249178192E+02  0.00000000000E+00 0.  1.
         13    1    3    3    0    0  0.38933706996E+02  0.12374172799E+02 -0.80008832330E+01  0.41628930150E+02  0.00000000000E+00 0. -1.
         21    1    1    2  502  501 -0.24453366255E+02 -0.21347371967E+02 -0.67006214188E+01  0.33144769399E+02  0.00000000000E+00 0. -1.
<scales pt_clust_5="13000.00000" pt_clust_6="13000.00000" pt_clust_7="13000.00000" pt_clust_8="13000.00000" pt_clust_9="32.46040"></scales>
<clustering>
<clus scale="   32.460">  1  9  2 -1</clus>
<clus scale="   92.666">  7  8 -1 -1</clus>
<clus scale="   93.525">  5  6 -1 -1</clus>
<clus scale="  119.116">  1  7  2 -1</clus>
<clus scale="  119.785">  2  5  1 -1</clus>
</clustering>
</event>
<event>
 9    1  0.1266593E-005  0.2701677E+03  0.7546771E-02  0.1101315E+00
         -2   -1    0    0    0  501 -0.00000000000E+00  0.00000000000E+00  0.54560724177E+02  0.54560724177E+02  0.00000000000E+00 0.  1.
          2   -1    0    0  502    0  0.00000000000E+00 -0.00000000000E+00 -0.17833629664E+04  0.17833629664E+04  0.00000000000E+00 0. -1.
         23    2    1    2    0    0  0.58137953704E+02  0.25504510944E+03 -0.66585459591E+03  0.72104891649E+03  0.90117520928E+02 0.  0.
         23    2    1    2    0    0 -0.28489715256E+02 -0.24793275464E+03 -0.10508719260E+04  0.10840810757E+04  0.92831347192E+02 0.  0.
        -11    1    4    4    0    0 -0.37708778645E+02 -0.21580674536E+03 -0.99618301426E+03  0.10199877946E+04  0.00000000000E+00 0. -1.
         11    1    4    4    0    0  0.92190633892E+01 -0.32126009281E+02 -0.54688911751E+02  0.64093281010E+02  0.00000000000E+00 0.  1.
        -11    1    3    3    0    0  0.17528500733E+02  0.14793720340E+03 -0.48137460017E+03  0.50389896823E+03  0.00000000000E+00 0.  1.
         11    1    3    3    0    0  0.40609452971E+02  0.10710790604E+03 -0.18447999573E+03  0.21714994827E+03  0.00000000000E+00 0. -1.
         21    1    1    2  502  501 -0.29648238448E+02 -0.71123548067E+01 -0.12075720271E+02  0.32793698389E+02  0.00000000000E+00 0. -1.
<scales pt_clust_5="13000.00000" pt_clust_6="13000.00000" pt_clust_7="13000.00000" pt_clust_8="13000.00000" pt_clust_9="30.48940"></scales>
<clustering>
<clus scale="   30.489">  1  9  2 -1</clus>
<clus scale="   90.118">  7  8 -1 -1</clus>
<clus scale="   92.831">  5  6 -1 -1</clus>
<clus scale="  269.247">  1  7  2 -1</clus>
<clus scale="  270.168">  2  5  1 -1</clus>
</clustering>
</event>
<event>
 9    1  0.1266593E-005  0.1351313E+03  0.7546771E-02  0.1220364E+00
         -3   -1    0    0    0  501 -0.00000000000E+00  0.00000000000E+00  0.10892896389E+03  0.10892896389E+03  0.00000000000E+00 0.  1.
          3   -1    0    0  502    0  0.00000000000E+00 -0.00000000000E+00 -0.31624412826E+03  0.31624412826E+03  0.00000000000E+00 0. -1.
         23    2    1    2    0    0 -0.78678711719E+02 -0.26398941571E+01 -0.29418427635E+02  0.12369977262E+03  0.90768282693E+02 0.  0.
         23    2    1    2    0    0  0.13986602239E+03 -0.30968209425E+02 -0.97414676307E+02  0.19493340369E+03  0.89374932166E+02 0.  0.
        -11    1    3    3    0    0 -0.78674400601E+02  0.26308221219E+02 -0.40982219133E+02  0.92527434303E+02  0.00000000000E+00 0.  1.
         11    1    3    3    0    0 -0.43111186949E-02 -0.28948115376E+02  0.11563791498E+02  0.31172338318E+02  0.00000000000E+00 0. -1.
        -13    1    4    4    0    0  0.42429813068E+02  0.86360250368E+01 -0.76191953029E+02  0.87636086584E+02  0.00000000000E+00 0. -1.
         13    1    4    4    0    0  0.97436209326E+02 -0.39604234462E+02 -0.21222723277E+02  0.10729731711E+03  0.00000000000E+00 0.  1.
         21    1    1    2  502  501 -0.61187310674E+02  0.33608103583E+02 -0.80482060432E+02  0.10653991583E+03  0.00000000000E+00 0.  1.
<scales pt_clust_5="13000.00000" pt_clust_6="13000.00000" pt_clust_7="13000.00000" pt_clust_8="13000.00000" pt_clust_9="69.80968"></scales>
<clustering>
<clus scale="   69.810">  2  9  1 -1</clus>
<clus scale="   89.375">  7  8 -1 -1</clus>
<clus scale="   90.768">  5  6 -1 -1</clus>
<clus scale="  134.199">  2  7  1 -1</clus>
<clus scale="   69.810">  2  5  1 -1</clus>
</clustering>
</event>
<event>
 9    1  0.1266593E-005  0.9974988E+02  0.7546771E-02  0.1281234E+00
          1   -1    0    0  502    0  0.00000000000E+00  0.00000000000E+00  0.24999255904E+03  0.24999255904E+03  0.00000000000E+00 0. -1.
         -1   -1    0    0    0  501 -0.00000000000E+00 -0.00000000000E+00 -0.13252313451E+03  0.13252313451E+03  0.00000000000E+00 0.  1.
         23    2    1    2    0    0  0.67728146079E+02 -0.22162406408E+02 -0.70631390081E+02  0.13558463685E+03  0.91192798263E+02 0.  0.
         23    2    1    2    0    0 -0.30714503868E+02  0.16046608944E+02  0.18471512955E+03  0.20926309218E+03  0.92035255523E+02 0.  0.
        -11    1    3    3    0    0  0.34645523804E+02 -0.20601482638E+02  0.15592514020E+02  0.43218744776E+02  0.00000000000E+00 0. -1.
         11    1    3    3    0    0  0.33082622275E+02 -0.15609237700E+01 -0.86223904101E+02  0.92365892071E+02  0.00000000000E+00 0.  1.
        -13    1    4    4    0    0 -0.58157149388E+01  0.28916666632E+02  0.17801896138E+03  0.18044596631E+03  0.00000000000E+00 0. -1.
         13    1    4    4    0    0 -0.24898788929E+02 -0.12870057688E+02  0.66961681693E+01  0.28817125866E+02  0.00000000000E+00 0.  1.
         21    1    1    2  502  501 -0.37013642211E+02  0.61157974637E+01  0.33856850658E+01  0.37667964529E+02  0.00000000000E+00 0. -1.
<scales pt_clust_5="13000.00000" pt_clust_6="13000.00000" pt_clust_7="13000.00000" pt_clust_8="13000.00000" pt_clust_9="37.51550"></scales>
<clustering>
<clus scale="   37.515">  2  9  1 -1</clus>
<clus scale="   91.193">  5  6 -1 -1</clus>
<clus scale="   92.035">  7  8 -1 -1</clus>
<clus scale="   98.973">  2  5  1 -1</clus>
<clus scale="   99.750">  1  5  2 -1</clus>
</clustering>
</event>
<event>
 9    1  0.1266593E-005  0.1107556E+03  0.7546771E-02  0.1263680E+00
         -1   -1    0    0    0  501 -0.00000000000E+00  0.00000000000E+00  0.33608810741E+03  0.33608810741E+03  0.00000000000E+00 0.  1.
          1   -1    0    0  502    0  0.00000000000E+00 -0.00000000000E+00 -0.10981694431E+03  0.10981694431E+03  0.00000000000E+00 0. -1.
         23    2    1    2    0    0  0.11590291941E+02 -0.68653575683E+02  0.14125424982E+03  0.18169519818E+03  0.90624133801E+02 0.  0.
         23    2    1    2    0    0  0.30352837405E+02  0.32865031780E+02 -0.47837663123E+02  0.12036832808E+03  0.10098855054E+03 0.  0.
        -11    1    4    4    0    0  0.17193269652E+01  0.31063503020E+02  0.26385446192E+02  0.40793247920E+02  0.00000000000E+00 0.  1.
         11    1    4    4    0    0  0.28633510440E+02  0.18015287599E+01 -0.74223109316E+02  0.79575080160E+02  0.00000000000E+00 0. -1.
        -11    1    3    3    0    0 -0.34531854622E+02 -0.93287864794E+01  0.67562364635E+02  0.76447029739E+02  0.00000000000E+00 0.  1.
         11    1    3    3    0    0  0.46122146563E+02 -0.59324789204E+02  0.73691885186E+02  0.10524816844E+03  0.00000000000E+00 0. -1.
         21    1    1    2  502  501 -0.41943129346E+02  0.35788543903E+02  0.13285457640E+03  0.14384152546E+03  0.00000000000E+00 0.  1.
<scales pt_clust_5="13000.00000" pt_clust_6="13000.00000" pt_clust_7="13000.00000" pt_clust_8="13000.00000" pt_clust_9="55.13661"></scales>
<clustering>
<clus scale="   55.137">  1  9  2 -1</clus>
<clus scale="   90.624">  7  8 -1 -1</clus>
<clus scale="  100.989">  5  6 -1 -1</clus>
<clus scale="  101.395">  1  7  2 -1</clus>
<clus scale="  110.756">  2  5  1 -1</clus>
</clustering>
</event>
<event>
 9    1  0.1266593E-005  0.1130189E+03  0.7546771E-02  0.1256120E+00
         -1   -1    0    0    0  501 -0.00000000000E+00  0.00000000000E+00  0.18908679040E+03  0.18908679040E+03  0.00000000000E+00 0.  1.
          1   -1    0    0  502    0  0.00000000000E+00 -0.00000000000E+00 -0.10384408394E+03  0.10384408394E+03  0.00000000000E+00 0. -1.
         23    2    1    2    0    0  0.91778855998E+02  0.82164987380E+01  0.52407729417E+02  0.14004569356E+03  0.91516976148E+02 0.  0.
         23    2    1    2    0    0 -0.50592358866E+02  0.11107449457E+02  0.13922697140E+02  0.10361635847E+03  0.88654080775E+02 0.  0.
        -11    1    3    3    0    0  0.37175857793E+02 -0.13939877885E+02  0.68310363168E+02  0.79010570902E+02  0.00000000000E+00 0.  1.
         11    1    3    3    0    0  0.54602998205E+02  0.22156376624E+02 -0.15902633752E+02  0.61035122661E+02  0.00000000000E+00 0. -1.
        -13    1    4    4    0    0  0.78789820318E+01  0.28128787367E+02  0.28699450431E+02  0.40950769122E+02  0.00000000000E+00 0. -1.
         13    1    4    4    0    0 -0.58471340898E+02 -0.17021337910E+02 -0.14776753292E+02  0.62665589349E+02  0.00000000000E+00 0.  1.
         21    1    1    2  502  501 -0.41186497132E+02 -0.19323948195E+02  0.18912279903E+02  0.49268822302E+02  0.00000000000E+00 0. -1.
<scales pt_clust_5="13000.00000" pt_clust_6="13000.00000" pt_clust_7="13000.00000" pt_clust_8="13000.00000" pt_clust_9="45.49442"></scales>
<clustering>
<clus scale="   45.494">  1  9  2 -1</clus>
<clus scale="   88.654">  7  8 -1 -1</clus>
<clus scale="   91.517">  5  6 -1 -1</clus>
<clus scale="  110.713">  2  7  1 -1</clus>
<clus scale="  110.713">  2  5  1 -1</clus>
</clustering>
</event>
<event>
 9    1  0.1266593E-005  0.9759485E+02  0.7546771E-02  0.1285561E+00
         -2   -1    0    0    0  501 -0.00000000000E+00  0.00000000000E+00  0.23073976436E+02  0.23073976436E+02  0.00000000000E+00 0.  1.
          2   -1    0    0  502    0  0.00000000000E+00 -0.00000000000E+00 -0.63721803655E+03  0.63721803655E+03  0.00000000000E+00 0. -1.
         23    2    1    2    0    0 -0.29715094475E+02 -0.51387432001E-01 -0.18007182836E+03  0.20403213335E+03  0.91215451485E+02 0.  0.
         23    2    1    2    0    0  0.27905988609E+02  0.30045557022E+02 -0.39236839268E+03  0.40485819419E+03  0.90970996098E+02 0.  0.
        -11    1    3    3    0    0 -0.45217994410E+01 -0.43969115922E+02 -0.68688266133E+02  0.81681134477E+02  0.00000000000E+00 0.  1.
         11    1    3    3    0    0 -0.25193295034E+02  0.43917728490E+02 -0.11138356223E+03  0.12235099887E+03  0.00000000000E+00 0. -1.
        -11    1    4    4    0    0  0.60826998853E+02  0.11944011237E+02 -0.25733935792E+03  0.26470007240E+03  0.00000000000E+00 0. -1.
         11    1    4    4    0    0 -0.32921010244E+02  0.18101545786E+02 -0.13502903476E+03  0.14015812179E+03  0.00000000000E+00 0.  1.
         21    1    1    2  502  501  0.18091058661E+01 -0.29994169590E+02 -0.41703839072E+02  0.51401685447E+02  0.00000000000E+00 0.  1.
<scales pt_clust_5="13000.00000" pt_clust_6="13000.00000" pt_clust_7="13000.00000" pt_clust_8="13000.00000" pt_clust_9="30.04868"></scales>
<clustering>
<clus scale="   30.049">  1  9  2 -1</clus>
<clus scale="   90.971">  7  8 -1 -1</clus>
<clus scale="   91.215">  5  6 -1 -1</clus>
<clus scale="   97.366">  2  7  1 -1</clus>
<clus scale="   97.366">  2  5  1 -1</clus>
</clustering>
</event>
<event>
 9    1  0.1266593E-005  0.1327617E+03  0.7546771E-02  0.1223543E+00
         -2   -1    0    0    0  501 -0.00000000000E+00  0.00000000000E+00  0.12412514677E+03  0.12412514677E+03  0.00000000000E+00 0.  1.
          2   -1    0    0  502    0  0.00000000000E+00 -0.00000000000E+00 -0.34663142395E+03  0.34663142395E+03  0.00000000000E+00 0. -1.
         23    2    1    2    0    0  0.75225889214E+02 -0.11972305378E+03 -0.10250157879E+03  0.19656501150E+03  0.90214666642E+02 0.  0.
         23    2    1    2    0    0  0.49709623342E+01  0.81958200984E+02 -0.13725392262E+03  0.18388510962E+03  0.90737186914E+02 0.  0.
        -11    1    4    4    0    0 -0.41918627069E+02  0.51230982151E+02 -0.70297904556E+02  0.96558687918E+02  0.00000000000E+00 0.  1.
         11    1    4    4    0    0  0.46889589403E+02  0.30727218832E+02 -0.66956018067E+02  0.87326421700E+02  0.00000000000E+00 0. -1.
        -13    1    3    3    0    0  0.72553023784E+02 -0.65779544849E+02 -0.10357645241E+03  0.14254462906E+03  0.00000000000E+00 0. -1.
         13    1    3    3    0    0  0.26728654306E+01 -0.53943508926E+02  0.10748736245E+01  0.54020382433E+02  0.00000000000E+00 0.  1.
         21    1    1    2  502  501 -0.80196851548E+02  0.37764852792E+02  0.17249224234E+02  0.90306449611E+02  0.00000000000E+00 0.  1.
<scales pt_clust_5="13000.00000" pt_clust_6="13000.00000" pt_clust_7="13000.00000" pt_clust_8="13000.00000" pt_clust_9="88.64378"></scales>
<clustering>
<clus scale="   88.644">  1  9  2 -1</clus>
<clus scale="   90.215">  7  8 -1 -1</clus>
<clus scale="   90.737">  5  6 -1 -1</clus>
<clus scale="  132.405">  1  7  2 -1</clus>
<clus scale="  132.762">  2  5  1 -1</clus>
</clustering>
</event>
<event>
 9    1  0.1266593E-005  0.9596539E+02  0.7546771E-02  0.1292125E+00
         -1   -1    0    0    0  501 -0.00000000000E+00  0.00000000000E+00  0.15377439725E+03  0.15377439725E+03  0.00000000000E+00 0.  1.
          1   -1    0    0  502    0  0.00000000000E+00 -0.00000000000E+00 -0.29296763167E+03  0.29296763167E+03  0.00000000000E+00 0. -1.
         23    2    1    2    0    0  0.54362116481E+02  0.62246960891E+00 -0.30305759880E+02  0.10927256619E+03  0.89813292240E+02 0.  0.
         23    2    1    2    0    0  0.22495299627E+02 -0.13249012385E+02 -0.19668628188E+03  0.22010199465E+03  0.95277593054E+02 0.  0.
        -11    1    3    3    0    0  0.22592702350E+02  0.21327040378E+02  0.26592745047E+02  0.40895561372E+02  0.00000000000E+00 0.  1.
         11    1    3    3    0    0  0.31769414131E+02 -0.20704570769E+02 -0.56898504927E+02  0.68377004818E+02  0.00000000000E+00 0. -1.
        -13    1    4    4    0    0  0.13254873171E+02 -0.44720081581E+02 -0.17419547675E+03  0.18033203121E+03  0.00000000000E+00 0. -1.
         13    1    4    4    0    0  0.92404264554E+01  0.31471069196E+02 -0.22490805129E+02  0.39769963449E+02  0.00000000000E+00 0.  1.
         21    1    1    2  502  501 -0.76857416108E+02  0.12626542776E+02  0.87798807335E+02  0.11736746808E+03  0.00000000000E+00 0.  1.
<scales pt_clust_5="13000.00000" pt_clust_6="13000.00000" pt_clust_7="13000.00000" pt_clust_8="13000.00000" pt_clust_9="77.88769"></scales>
<clustering>
<clus scale="   77.888">  1  9  2 -1</clus>
<clus scale="   89.813">  5  6 -1 -1</clus>
<clus scale="   90.543">  1  5  2 -1</clus>
<clus scale="   95.278">  7  8 -1 -1</clus>
<clus scale="   95.965">  2  5  1 -1</clus>
</clustering>
</event>
<event>
 9    1  0.1266593E-005  0.1157971E+03  0.7546771E-02  0.1250700E+00
          1   -1    0    0  502    0  0.00000000000E+00  0.00000000000E+00  0.98502947721E+02  0.98502947721E+02  0.00000000000E+00 0. -1.
         -1   -1    0    0    0  501 -0.00000000000E+00 -0.00000000000E+00 -0.62710411095E+03  0.62710411095E+03  0.00000000000E+00 0.  1.
         23    2    1    2    0    0  0.35882049103E+02  0.39623596604E+02 -0.42280649700E+03  0.43564021871E+03  0.90330035950E+02 0.  0.
         23    2    1    2    0    0 -0.25933384529E+02 -0.67583165619E+02  0.53047296061E+02  0.12837636249E+03  0.91795697710E+02 0.  0.
        -11    1    3    3    0    0 -0.27239728027E+02  0.17955630967E+01 -0.67850008320E+02  0.73135835668E+02  0.00000000000E+00 0. -1.
         11    1    3    3    0    0  0.63121777130E+02  0.37828033508E+02 -0.35495648868E+03  0.36250438304E+03  0.00000000000E+00 0.  1.
        -13    1    4    4    0    0 -0.17527247821E+02 -0.49389732749E+02  0.79481078599E+02  0.95203949353E+02  0.00000000000E+00 0. -1.
         13    1    4    4    0    0 -0.84061367083E+01 -0.18193432870E+02 -0.26433782537E+02  0.33172413135E+02  0.00000000000E+00 0.  1.
         21    1    1    2  502  501 -0.99486645731E+01  0.27959569015E+02 -0.15884196229E+03  0.16159047747E+03  0.00000000000E+00 0.  1.
<scales pt_clust_5="13000.00000" pt_clust_6="13000.00000" pt_clust_7="13000.00000" pt_clust_8="13000.00000" pt_clust_9="29.67682"></scales>
<clustering>
<clus scale="   29.677">  2  9  1 -1</clus>
<clus scale="   90.330">  5  6 -1 -1</clus>
<clus scale="   91.796">  7  8 -1 -1</clus>
<clus scale="  114.639">  2  5  1 -1</clus>
<clus scale="  115.797">  1  5  2 -1</clus>
</clustering>
</event>
<event>
 9    1  0.1266593E-005  0.1535291E+03  0.7546771E-02  0.1201745E+00
          3   -1    0    0  502    0  0.00000000000E+00  0.00000000000E+00  0.11274330151E+03  0.11274330151E+03  0.00000000000E+00 0. -1.
         -3   -1    0    0    0  501 -0.00000000000E+00 -0.00000000000E+00 -0.30365281977E+03  0.30365281977E+03  0.00000000000E+00 0.  1.
         23    2    1    2    0    0  0.11038455374E+03  0.41434424496E+02 -0.38276467159E+02  0.15495638561E+03  0.92977590116E+02 0.  0.
         23    2    1    2    0    0 -0.79350231344E+02 -0.15552929754E+02 -0.49403938936E+02  0.15058293375E+03  0.11703041449E+03 0.  0.
        -11    1    4    4    0    0  0.63647201081E+01 -0.36781034626E+02 -0.49850855947E+02  0.62277299307E+02  0.00000000000E+00 0.  1.
         11    1    4    4    0    0 -0.85714951452E+02  0.21228104872E+02  0.44691701108E+00  0.88305634439E+02  0.00000000000E+00 0. -1.
        -13    1    3    3    0    0  0.77400980814E+02 -0.18995476793E+02 -0.31797181362E+02  0.85806763790E+02  0.00000000000E+00 0.  1.
         13    1    3    3    0    0  0.32983572930E+02  0.60429901289E+02 -0.64792857969E+01  0.69149621817E+02  0.00000000000E+00 0. -1.
         21    1    1    2  502  501 -0.31034322401E+02 -0.25881494742E+02 -0.10322911216E+03  0.11085680193E+03  0.00000000000E+00 0. -1.
<scales pt_clust_5="13000.00000" pt_clust_6="13000.00000" pt_clust_7="13000.00000" pt_clust_8="13000.00000" pt_clust_9="40.41016"></scales>
<clustering>
<clus scale="   40.410">  2  9  1 -1</clus>
<clus scale="   92.978">  7  8 -1 -1</clus>
<clus scale="  117.030">  5  6 -1 -1</clus>
<clus scale="  136.088">  2  7  1 -1</clus>
<clus scale="  153.529">  1  5  2 -1</clus>
</clustering>
</event>
<event>
 9    1  0.1266593E-005  0.1283324E+03  0.7546771E-02  0.1230459E+00
          1   -1    0    0  502    0  0.00000000000E+00  0.00000000000E+00  0.28471790353E+02  0.28471790353E+02  0.00000000000E+00 0. -1.
         -1   -1    0    0    0  501 -0.00000000000E+00 -0.00000000000E+00 -0.75584345204E+03  0.75584345204E+03  0.00000000000E+00 0.  1.
         23    2    1    2    0    0 -0.53225126297E+02  0.90452287572E+02 -0.31879672003E+03  0.34779448066E+03  0.91187289013E+02 0.  0.
         23    2    1    2    0    0  0.39900045464E+02 -0.62252046181E+02 -0.27923754876E+03  0.30347575959E+03  0.93040835877E+02 0.  0.
        -11    1    4    4    0    0  0.64963828734E+02 -0.66344451415E+02 -0.23095100493E+03  0.24891816317E+03  0.00000000000E+00 0. -1.
         11    1    4    4    0    0 -0.25063783270E+02  0.40924052342E+01 -0.48286543831E+02  0.54557596424E+02  0.00000000000E+00 0.  1.
        -13    1    3    3    0    0 -0.26230389196E+02  0.85666073074E+02 -0.30339927431E+03  0.31635080061E+03  0.00000000000E+00 0.  1.
         13    1    3    3    0    0 -0.26994737101E+02  0.47862144986E+01 -0.15397445720E+02  0.31443680050E+02  0.00000000000E+00 0. -1.
         21    1    1    2  502  501  0.13325080833E+02 -0.28200241391E+02 -0.12933739290E+03  0.13304500214E+03  0.00000000000E+00 0. -1.
<scales pt_clust_5="13000.00000" pt_clust_6="13000.00000" pt_clust_7="13000.00000" pt_clust_8="13000.00000" pt_clust_9="31.18992"></scales>
<clustering>
<clus scale="   31.190">  2  9  1 -1</clus>
<clus scale="   91.187">  7  8 -1 -1</clus>
<clus scale="   93.041">  5  6 -1 -1</clus>
<clus scale="  126.995">  2  7  1 -1</clus>
<clus scale="  128.332">  1  5  2 -1</clus>
</clustering>
</event>
<event>
 9    1  0.1266593E-005  0.1022473E+03  0.7546771E-02  0.1278185E+00
          1   -1    0    0  502    0  0.00000000000E+00  0.00000000000E+00  0.50082438301E+03  0.50082438301E+03  0.00000000000E+00 0. -1.
         -1   -1    0    0    0  501 -0.00000000000E+00 -0.00000000000E+00 -0.52187651052E+02  0.52187651052E+02  0.00000000000E+00 0.  1.
         23    2    1    2    0    0 -0.83011378692E+02 -0.82221993332E+01  0.10571222841E+03  0.16568664923E+03  0.96532362159E+02 0.  0.
         23    2    1    2    0    0  0.79419661503E+01  0.26441178368E+02  0.24262892931E+03  0.26072937341E+03  0.91371757560E+02 0.  0.
        -11    1    3    3    0    0 -0.68759642256E+02  0.38011436083E+02  0.57285402183E+02  0.97233610339E+02  0.00000000000E+00 0.  1.
         11    1    3    3    0    0 -0.14251736435E+02 -0.46233635416E+02  0.48426826225E+02  0.68453038891E+02  0.00000000000E+00 0. -1.
        -11    1    4    4    0    0 -0.36807518043E+02  0.32228726730E+02  0.10379751968E+03  0.11474933247E+03  0.00000000000E+00 0.  1.
         11    1    4    4    0    0  0.44749484194E+02 -0.57875483620E+01  0.13883140963E+03  0.14598004093E+03  0.00000000000E+00 0. -1.
         21    1    1    2  502  501  0.75069412541E+02 -0.18218979035E+02  0.10029557424E+03  0.12659601142E+03  0.00000000000E+00 0. -1.
<scales pt_clust_5="13000.00000" pt_clust_6="13000.00000" pt_clust_7="13000.00000" pt_clust_8="13000.00000" pt_clust_9="77.24861"></scales>
<clustering>
<clus scale="   77.249">  2  9  1 -1</clus>
<clus scale="   91.372">  7  8 -1 -1</clus>
<clus scale="   96.532">  5  6 -1 -1</clus>
<clus scale="   97.390">  1  7  2 -1</clus>
<clus scale="   97.390">  1  5  2 -1</clus>
</clustering>
</event>
<event>
 9    1  0.1266593E-005  0.1930309E+03  0.7546771E-02  0.1155822E+00
         -1   -1    0    0    0  501 -0.00000000000E+00  0.00000000000E+00  0.19565419840E+03  0.19565419840E+03  0.00000000000E+00 0.  1.
          1   -1    0    0  502    0  0.00000000000E+00 -0.00000000000E+00 -0.37335489888E+03  0.37335489888E+03  0.00000000000E+00 0. -1.
         23    2    1    2    0    0 -0.12377416419E+03 -0.11507266549E+03 -0.44748788023E+02  0.19790550466E+03  0.92748976707E+02 0.  0.
         23    2    1    2    0    0  0.97408321025E+02  0.14020624331E+03 -0.20999358449E+03  0.28588461792E+03  0.92122405364E+02 0.  0.
        -11    1    3    3    0    0 -0.70932264309E+02 -0.11901514652E+03 -0.42288642345E+02  0.14485965792E+03  0.00000000000E+00 0.  1.
         11    1    3    3    0    0 -0.52841899883E+02  0.39424810244E+01 -0.24601456783E+01  0.53045846742E+02  0.00000000000E+00 0. -1.
        -11    1    4    4    0    0  0.28791714865E+02  0.38447259868E+02 -0.13199976355E+03  0.14046740623E+03  0.00000000000E+00 0. -1.
         11    1    4    4    0    0  0.68616606160E+02  0.10175898344E+03 -0.77993820946E+02  0.14541721170E+03  0.00000000000E+00 0.  1.
         21    1    1    2  502  501  0.26365843167E+02 -0.25133577813E+02  0.77041672027E+02  0.85218974697E+02  0.00000000000E+00 0.  1.
<scales pt_clust_5="13000.00000" pt_clust_6="13000.00000" pt_clust_7="13000.00000" pt_clust_8="13000.00000" pt_clust_9="36.42601"></scales>
<clustering>
<clus scale="   36.426">  1  9  2 -1</clus>
<clus scale="   92.122">  7  8 -1 -1</clus>
<clus scale="   92.749">  5  6 -1 -1</clus>
<clus scale="  192.731">  2  7  1 -1</clus>
<clus scale="  192.731">  2  5  1 -1</clus>
</clustering>
</event>
<event>
 9    1  0.1266593E-005  0.9806435E+02  0.7546771E-02  0.1286391E+00
          1   -1    0    0  502    0  0.00000000000E+00  0.00000000000E+00  0.31450354646E+03  0.31450354646E+03  0.00000000000E+00 0. -1.
         -1   -1    0    0    0  501 -0.00000000000E+00 -0.00000000000E+00 -0.61474837157E+02  0.61474837157E+02  0.00000000000E+00 0.  1.
         23    2    1    2    0    0 -0.49393228117E+02 -0.18222690789E+02  0.10447629766E+03  0.14727427512E+03  0.89457575957E+02 0.  0.
         23    2    1    2    0    0  0.18564285744E+02 -0.52746758355E+01  0.16180615835E+03  0.18773812592E+03  0.93230446391E+02 0.  0.
        -13    1    4    4    0    0  0.24655982887E+02  0.33197299871E+02  0.32213805061E+02  0.52418579219E+02  0.00000000000E+00 0.  1.
         13    1    4    4    0    0 -0.60916971431E+01 -0.38471975706E+02  0.12959235329E+03  0.13531954670E+03  0.00000000000E+00 0. -1.
        -13    1    3    3    0    0 -0.39399432961E+01  0.28970552093E+02  0.74077936439E+01  0.30161091632E+02  0.00000000000E+00 0.  1.
         13    1    3    3    0    0 -0.45453284821E+02 -0.47193242883E+02  0.97068504016E+02  0.11711318349E+03  0.00000000000E+00 0. -1.
         21    1    1    2  502  501  0.30828942373E+02  0.23497366625E+02 -0.13253746711E+02  0.40965982571E+02  0.00000000000E+00 0.  1.
<scales pt_clust_5="13000.00000" pt_clust_6="13000.00000" pt_clust_7="13000.00000" pt_clust_8="13000.00000" pt_clust_9="38.76274"></scales>
<clustering>
<clus scale="   38.763">  2  9  1 -1</clus>
<clus scale="   89.458">  7  8 -1 -1</clus>
<clus scale="   93.230">  5  6 -1 -1</clus>
<clus scale="   94.485">  2  7  1 -1</clus>
<clus scale="   98.064">  1  5  2 -1</clus>
</clustering>
</event>
<event>
 9    1  0.1266593E-005  0.9178542E+02  0.7546771E-02  0.1298658E+00
         -3   -1    0    0    0  501 -0.00000000000E+00  0.00000000000E+00  0.10620743360E+03  0.10620743360E+03  0.00000000000E+00 0.  1.
          3   -1    0    0  502    0  0.00000000000E+00 -0.00000000000E+00 -0.12631980717E+03  0.12631980717E+03  0.00000000000E+00 0. -1.
         23    2    1    2    0    0  0.45624482071E+01  0.29443297049E+02  0.12555831695E+02  0.96259227776E+02  0.90666787457E+02 0.  0.
         23    2    1    2    0    0 -0.98226644404E+01  0.10786334875E+02 -0.21750752185E+02  0.94252730754E+02  0.90540887323E+02 0.  0.
        -11    1    3    3    0    0 -0.23533071032E+02 -0.17063783114E+02  0.27385837750E+02  0.39936978299E+02  0.00000000000E+00 0. -1.
         11    1    3    3    0    0  0.28095519239E+02  0.46507080163E+02 -0.14830006055E+02  0.56322249477E+02  0.00000000000E+00 0.  1.
        -11    1    4    4    0    0 -0.30578564035E+02 -0.13618912231E+02 -0.43971519046E+02  0.55263168892E+02  0.00000000000E+00 0. -1.
         11    1    4    4    0    0  0.20755899594E+02  0.24405247106E+02  0.22220766861E+02  0.38989561862E+02  0.00000000000E+00 0.  1.
         21    1    1    2  502  501  0.52602162333E+01 -0.40229631924E+02 -0.10917453084E+02  0.42015282236E+02  0.00000000000E+00 0.  1.
<scales pt_clust_5="13000.00000" pt_clust_6="13000.00000" pt_clust_7="13000.00000" pt_clust_8="13000.00000" pt_clust_9="40.57207"></scales>
<clustering>
<clus scale="   40.572">  2  9  1 -1</clus>
<clus scale="   90.541">  7  8 -1 -1</clus>
<clus scale="   90.667">  5  6 -1 -1</clus>
<clus scale="   91.661">  2  7  1 -1</clus>
<clus scale="   40.572">  2  5  1 -1</clus>
</clustering>
</event>
<event>
 9    1  0.1266593E-005  0.1015785E+03  0.7546771E-02  0.1277295E+00
          1   -1    0    0  502    0  0.00000000000E+00  0.00000000000E+00  0.19145098663E+03  0.19145098663E+03  0.00000000000E+00 0. -1.
         -1   -1    0    0    0  501 -0.00000000000E+00 -0.00000000000E+00 -0.83968531121E+02  0.83968531121E+02  0.00000000000E+00 0.  1.
         23    2    1    2    0    0 -0.58541642929E+02 -0.70687337071E+01  0.17194641681E+02  0.11009180354E+03  0.91364427165E+02 0.  0.
         23    2    1    2    0    0  0.34197685469E+02 -0.16503034155E+02  0.85333962240E+02  0.13108158814E+03  0.91971005272E+02 0.  0.
        -11    1    4    4    0    0  0.43157319831E+02  0.28859352068E+02  0.55791943327E+02  0.76211268176E+02  0.00000000000E+00 0.  1.
         11    1    4    4    0    0 -0.89596343617E+01 -0.45362386224E+02  0.29542018912E+02  0.54870319966E+02  0.00000000000E+00 0. -1.
        -13    1    3    3    0    0 -0.56390504607E+02  0.31086995610E+02  0.28238885672E+02  0.70311627559E+02  0.00000000000E+00 0.  1.
         13    1    3    3    0    0 -0.21511383218E+01 -0.38155729317E+02 -0.11044243991E+02  0.39780175982E+02  0.00000000000E+00 0. -1.
         21    1    1    2  502  501  0.24343957460E+02  0.23571767863E+02  0.49538515868E+01  0.34246126066E+02  0.00000000000E+00 0.  1.
<scales pt_clust_5="13000.00000" pt_clust_6="13000.00000" pt_clust_7="13000.00000" pt_clust_8="13000.00000" pt_clust_9="33.88593"></scales>
<clustering>
<clus scale="   33.886">  2  9  1 -1</clus>
<clus scale="   91.364">  7  8 -1 -1</clus>
<clus scale="   91.971">  5  6 -1 -1</clus>
<clus scale="  101.030">  2  7  1 -1</clus>
<clus scale="  101.579">  1  5  2 -1</clus>
</clustering>
</event>
<event>
 9    1  0.1266593E-005  0.1673207E+03  0.7546771E-02  0.1181116E+00
          1   -1    0    0  502    0  0.00000000000E+00  0.00000000000E+00  0.82126402307E+03  0.82126402307E+03  0.00000000000E+00 0. -1.
         -1   -1    0    0    0  501 -0.00000000000E+00 -0.00000000000E+00 -0.50202958437E+02  0.50202958437E+02  0.00000000000E+00 0.  1.
         23    2    1    2    0    0  0.77409885885E+02  0.88825790782E+02  0.14645838610E+03  0.20855512014E+03  0.90348590122E+02 0.  0.
         23    2    1    2    0    0 -0.79172389712E+02 -0.12512652800E+03  0.57732730157E+03  0.60328123828E+03  0.93362326545E+02 0.  0.
        -13    1    3    3    0    0  0.21636569422E+02  0.63891579884E+02  0.23812378497E+02  0.71535337324E+02  0.00000000000E+00 0.  1.
         13    1    3    3    0    0  0.55773316463E+02  0.24934210899E+02  0.12264600760E+03  0.13701978281E+03  0.00000000000E+00 0. -1.
        -13    1    4    4    0    0 -0.29457581189E+02 -0.10238446960E+03  0.47970801139E+03  0.49139607741E+03  0.00000000000E+00 0.  1.
         13    1    4    4    0    0 -0.49714808523E+02 -0.22742058402E+02  0.97619290188E+02  0.11188516087E+03  0.00000000000E+00 0. -1.
         21    1    1    2  502  501  0.17625038270E+01  0.36300737223E+02  0.47275376959E+02  0.59630623083E+02  0.00000000000E+00 0. -1.
<scales pt_clust_5="13000.00000" pt_clust_6="13000.00000" pt_clust_7="13000.00000" pt_clust_8="13000.00000" pt_clust_9="36.34350"></scales>
<clustering>
<clus scale="   36.343">  2  9  1 -1</clus>
<clus scale="   90.349">  5  6 -1 -1</clus>
<clus scale="   93.362">  7  8 -1 -1</clus>
<clus scale="  165.658">  2  5  1 -1</clus>
<clus scale="  167.321">  1  5  2 -1</clus>
</clustering>
</event>
<event>
 9    1  0.1266593E-005  0.1003087E+03  0.7546771E-02  0.1279814E+00
         -2   -1    0    0    0  501 -0.00000000000E+00  0.00000000000E+00  0.33216912936E+02  0.33216912936E+02  0.00000000000E+00 0.  1.
          2   -1    0    0  502    0  0.00000000000E+00 -0.00000000000E+00 -0.63130816008E+03  0.63130816008E+03  0.00000000000E+00 0. -1.
         23    2    1    2    0    0  0.61271057538E+02 -0.13847138044E+02 -0.16761053517E+03  0.20145739191E+03  0.92444056239E+02 0.  0.
         23    2    1    2    0    0 -0.31433539459E+02 -0.22628824432E+01 -0.41414065998E+03  0.42542717706E+03  0.92101078681E+02 0.  0.
        -11    1    4    4    0    0 -0.20793631409E+02  0.44241428482E+02 -0.23596924445E+03  0.24097959131E+03  0.00000000000E+00 0.  1.
         11    1    4    4    0    0 -0.10639908050E+02 -0.46504310925E+02 -0.17817141553E+03  0.18444758576E+03  0.00000000000E+00 0. -1.
        -13    1    3    3    0    0  0.15226351388E+02  0.32089320435E+02 -0.10629142640E+03  0.11206887877E+03  0.00000000000E+00 0. -1.
         13    1    3    3    0    0  0.46044706150E+02 -0.45936458479E+02 -0.61319108764E+02  0.89388513141E+02  0.00000000000E+00 0.  1.
         21    1    1    2  502  501 -0.29837518079E+02  0.16110020487E+02 -0.16340051999E+02  0.37640504042E+02  0.00000000000E+00 0. -1.
<scales pt_clust_5="13000.00000" pt_clust_6="13000.00000" pt_clust_7="13000.00000" pt_clust_8="13000.00000" pt_clust_9="33.90885"></scales>
<clustering>
<clus scale="   33.909">  1  9  2 -1</clus>
<clus scale="   92.101">  5  6 -1 -1</clus>
<clus scale="   92.444">  7  8 -1 -1</clus>
<clus scale="   99.993">  2  5  1 -1</clus>
<clus scale="   99.993">  2  5  1 -1</clus>
</clustering>
</event>
<event>
 9    1  0.1266593E-005  0.9641377E+02  0.7546771E-02  0.1288692E+00
         -1   -1    0    0    0  501 -0.00000000000E+00  0.00000000000E+00  0.64162572380E+02  0.64162572380E+02  0.00000000000E+00 0.  1.
          1   -1    0    0  502    0  0.00000000000E+00 -0.00000000000E+00 -0.30889673536E+03  0.30889673536E+03  0.00000000000E+00 0. -1.
         23    2    1    2    0    0 -0.63960728462E+02  0.32951511171E+02 -0.41616743651E+02  0.12119730246E+03  0.88204625147E+02 0.  0.
         23    2    1    2    0    0  0.25998792434E+02  0.10326541710E+01 -0.15975185888E+03  0.18495457734E+03  0.89501595964E+02 0.  0.
        -11    1    4    4    0    0 -0.30392225333E+02  0.35150961714E+01 -0.27407658853E+02  0.41075820449E+02  0.00000000000E+00 0. -1.
         11    1    4    4    0    0  0.56391017767E+02 -0.24824420005E+01 -0.13234420002E+03  0.14387875689E+03  0.00000000000E+00 0.  1.
        -13    1    3    3    0    0 -0.71094491077E+02  0.51883728695E+02 -0.17531739371E+02  0.89742464030E+02  0.00000000000E+00 0.  1.
         13    1    3    3    0    0  0.71337626144E+01 -0.18932217524E+02 -0.24085004280E+02  0.31454838429E+02  0.00000000000E+00 0. -1.
         21    1    1    2  502  501  0.37961936028E+02 -0.33984165342E+02 -0.43365560451E+02  0.66907427945E+02  0.00000000000E+00 0. -1.
<scales pt_clust_5="13000.00000" pt_clust_6="13000.00000" pt_clust_7="13000.00000" pt_clust_8="13000.00000" pt_clust_9="50.95127"></scales>
<clustering>
<clus scale="   50.951">  1  9  2 -1</clus>
<clus scale="   88.205">  7  8 -1 -1</clus>
<clus scale="   89.502">  5  6 -1 -1</clus>
<clus scale="   95.211">  1  7  2 -1</clus>
<clus scale="   96.414">  2  5  1 -1</clus>
</clustering>
</event>
<event>
 9    1  0.1266593E-005  0.1430354E+03  0.7546771E-02  0.1219261E+00
          1   -1    0    0  502    0  0.00000000000E+00  0.00000000000E+00  0.15903385103E+03  0.15903385103E+03  0.00000000000E+00 0. -1.
         -1   -1    0    0    0  501 -0.00000000000E+00 -0.00000000000E+00 -0.34876062150E+03  0.34876062150E+03  0.00000000000E+00 0.  1.
         23    2    1    2    0    0 -0.24005417989E+02  0.12425221934E+02 -0.94023962587E+02  0.15961456610E+03  0.12611763532E+03 0.  0.
         23    2    1    2    0    0  0.65872521374E+02 -0.40049619734E+02  0.92865377984E+02  0.15305450466E+03  0.94119827107E+02 0.  0.
        -13    1    4    4    0    0  0.26775887157E+02  0.21873852255E+01  0.91629689508E+02  0.95486819962E+02  0.00000000000E+00 0. -1.
         13    1    4    4    0    0  0.39096634217E+02 -0.42237004960E+02  0.12356884759E+01  0.57567684694E+02  0.00000000000E+00 0.  1.
        -13    1    3    3    0    0 -0.56363200795E+02  0.51466497263E+02 -0.42663571594E+02  0.87440214350E+02  0.00000000000E+00 0.  1.
         13    1    3    3    0    0  0.32357782806E+02 -0.39041275329E+02 -0.51360390993E+02  0.72174351749E+02  0.00000000000E+00 0. -1.
         21    1    1    2  502  501 -0.41867103385E+02  0.27624397800E+02 -0.18856818586E+03  0.19512540178E+03  0.00000000000E+00 0.  1.
<scales pt_clust_5="13000.00000" pt_clust_6="13000.00000" pt_clust_7="13000.00000" pt_clust_8="13000.00000" pt_clust_9="50.15936"></scales>
<clustering>
<clus scale="   50.159">  2  9  1 -1</clus>
<clus scale="   94.120">  5  6 -1 -1</clus>
<clus scale="  115.810">  1  5  2 -1</clus>
<clus scale="  126.118">  7  8 -1 -1</clus>
<clus scale="  115.810">  1  5  2 -1</clus>
</clustering>
</event>
<event>
 9    1  0.1266593E-005  0.2918168E+03  0.7546771E-02  0.1089419E+00
         -1   -1    0    0    0  501 -0.00000000000E+00  0.00000000000E+00  0.20120962868E+03  0.20120962868E+03  0.00000000000E+00 0.  1.
          1   -1    0    0  502    0  0.00000000000E+00 -0.00000000000E+00 -0.62759109000E+03  0.62759109000E+03  0.00000000000E+00 0. -1.
         23    2    1    2    0    0 -0.77855957126E+02 -0.26867139473E+03 -0.72187118388E+02  0.30253919248E+03  0.89850512077E+02 0.  0.
         23    2    1    2    0    0  0.11103979297E+03  0.25407396411E+03 -0.38200165292E+03  0.48057237615E+03  0.90228216368E+02 0.  0.
        -13    1    4    4    0    0  0.59137131029E+01  0.25187917183E+02 -0.37639491076E+01  0.26145180962E+02  0.00000000000E+00 0.  1.
         13    1    4    4    0    0  0.10512607987E+03  0.22888604693E+03 -0.37823770381E+03  0.45442719519E+03  0.00000000000E+00 0. -1.
        -13    1    3    3    0    0 -0.70306639955E+02 -0.12977301153E+03 -0.40632533141E+01  0.14765015466E+03  0.00000000000E+00 0.  1.
         13    1    3    3    0    0 -0.75493171713E+01 -0.13889838320E+03 -0.68123865074E+02  0.15488903782E+03  0.00000000000E+00 0. -1.
         21    1    1    2  502  501 -0.33183835847E+02  0.14597430623E+02  0.27807309988E+02  0.45689150037E+02  0.00000000000E+00 0.  1.
<scales pt_clust_5="13000.00000" pt_clust_6="13000.00000" pt_clust_7="13000.00000" pt_clust_8="13000.00000" pt_clust_9="36.25261"></scales>
<clustering>
<clus scale="   36.253">  1  9  2 -1</clus>
<clus scale="   89.851">  7  8 -1 -1</clus>
<clus scale="   90.228">  5  6 -1 -1</clus>
<clus scale="  291.700">  1  7  2 -1</clus>
<clus scale="  291.817">  2  5  1 -1</clus>
</clustering>
</event>
<event>
 9    1  0.1266593E-005  0.1090426E+03  0.7546771E-02  0.1262669E+00
          1   -1    0    0  502    0  0.00000000000E+00  0.00000000000E+00  0.59744080137E+03  0.59744080137E+03  0.00000000000E+00 0. -1.
         -1   -1    0    0    0  501 -0.00000000000E+00 -0.00000000000E+00 -0.13488769645E+03  0.13488769645E+03  0.00000000000E+00 0.  1.
         23    2    1    2    0    0 -0.72780113395E+02  0.86380191240E+01 -0.96337339041E+02  0.15094332447E+03  0.90174519841E+02 0.  0.
         23    2    1    2    0    0  0.56768918326E+02 -0.22021281165E+02  0.54654422585E+03  0.55713854117E+03  0.89359478170E+02 0.  0.
        -11    1    3    3    0    0  0.52083797311E+01  0.30160178911E+02 -0.47299315264E+02  0.56338165003E+02  0.00000000000E+00 0.  1.
         11    1    3    3    0    0 -0.77988493126E+02 -0.21522159787E+02 -0.49038023777E+02  0.94605159468E+02  0.00000000000E+00 0. -1.
        -13    1    4    4    0    0  0.16070595719E+02  0.33850478713E+02  0.14964954060E+03  0.15426958209E+03  0.00000000000E+00 0.  1.
         13    1    4    4    0    0  0.40698322607E+02 -0.55871759877E+02  0.39689468525E+03  0.40286895909E+03  0.00000000000E+00 0. -1.
         21    1    1    2  502  501  0.16011195069E+02  0.13383262040E+02  0.12346218118E+02  0.24246632182E+02  0.00000000000E+00 0.  1.
<scales pt_clust_5="13000.00000" pt_clust_6="13000.00000" pt_clust_7="13000.00000" pt_clust_8="13000.00000" pt_clust_9="20.86792"></scales>
<clustering>
<clus scale="   20.868">  2  9  1 -1</clus>
<clus scale="   89.359">  7  8 -1 -1</clus>
<clus scale="   90.175">  5  6 -1 -1</clus>
<clus scale="  108.370">  1  7  2 -1</clus>
<clus scale="  108.370">  1  5  2 -1</clus>
</clustering>
</event>
<event>
 9    1  0.1266593E-005  0.9330742E+02  0.7546771E-02  0.1296318E+00
          2   -1    0    0  502    0  0.00000000000E+00  0.00000000000E+00  0.30202605407E+03  0.30202605407E+03  0.00000000000E+00 0. -1.
         -2   -1    0    0    0  501 -0.00000000000E+00 -0.00000000000E+00 -0.70344666351E+02  0.70344666351E+02  0.00000000000E+00 0.  1.
         23    2    1    2    0    0  0.27317994501E+02 -0.42054078525E+02  0.11013953674E+03  0.15078100488E+03  0.89940955829E+02 0.  0.
         23    2    1    2    0    0  0.28273843555E+02 -0.11389867999E+02  0.10446463420E+03  0.14260655776E+03  0.92166323555E+02 0.  0.
        -11    1    4    4    0    0  0.55669884059E+02 -0.30465300688E+02  0.63688196373E+02  0.89908046884E+02  0.00000000000E+00 0. -1.
         11    1    4    4    0    0 -0.27396040504E+02  0.19075432689E+02  0.40776437822E+02  0.52698510881E+02  0.00000000000E+00 0.  1.
        -11    1    3    3    0    0 -0.20096439147E+01 -0.64234471569E+02  0.83533207759E+02  0.10539403591E+03  0.00000000000E+00 0. -1.
         11    1    3    3    0    0  0.29327638416E+02  0.22180393045E+02  0.26606328983E+02  0.45386968974E+02  0.00000000000E+00 0.  1.
         21    1    1    2  502  501 -0.55591838056E+02  0.53443946524E+02  0.17077216779E+02  0.78983157770E+02  0.00000000000E+00 0.  1.
<scales pt_clust_5="13000.00000" pt_clust_6="13000.00000" pt_clust_7="13000.00000" pt_clust_8="13000.00000" pt_clust_9="77.11490"></scales>
<clustering>
<clus scale="   77.115">  2  9  1 -1</clus>
<clus scale="   89.941">  7  8 -1 -1</clus>
<clus scale="   91.110">  2  7  1 -1</clus>
<clus scale="   92.166">  5  6 -1 -1</clus>
<clus scale="   93.307">  1  5  2 -1</clus>
</clustering>
</event>
<event>
 9    1  0.1266593E-005  0.1103065E+03  0.7546771E-02  0.1263305E+00
         -1   -1    0    0    0  501 -0.00000000000E+00  0.00000000000E+00  0.15923492832E+03  0.15923492832E+03  0.00000000000E+00 0.  1.
          1   -1    0    0  502    0  0.00000000000E+00 -0.00000000000E+00 -0.13624721259E+03  0.13624721259E+03  0.00000000000E+00 0. -1.
         23    2    1    2    0    0  0.36966937204E+02 -0.28657620986E+02  0.57142217910E+02  0.11718118353E+03  0.90985619843E+02 0.  0.
         23    2    1    2    0    0 -0.23529350276E+02  0.45292925809E+02 -0.73668566317E+02  0.13337141952E+03  0.98771445407E+02 0.  0.
        -13    1    4    4    0    0 -0.45240406809E+02 -0.84445354129E+01 -0.56607403948E+02  0.72954799487E+02  0.00000000000E+00 0.  1.
         13    1    4    4    0    0  0.21711056532E+02  0.53737461222E+02 -0.17061162369E+02  0.60416620029E+02  0.00000000000E+00 0. -1.
        -13    1    3    3    0    0  0.11168504914E+02 -0.60217036908E+02  0.38654614390E+02  0.72422415381E+02  0.00000000000E+00 0.  1.
         13    1    3    3    0    0  0.25798432290E+02  0.31559415922E+02  0.18487603521E+02  0.44758768146E+02  0.00000000000E+00 0. -1.
         21    1    1    2  502  501 -0.13437586928E+02 -0.16635304823E+02  0.39514064132E+02  0.44929537870E+02  0.00000000000E+00 0.  1.
<scales pt_clust_5="13000.00000" pt_clust_6="13000.00000" pt_clust_7="13000.00000" pt_clust_8="13000.00000" pt_clust_9="21.38462"></scales>
<clustering>
<clus scale="   21.385">  1  9  2 -1</clus>
<clus scale="   90.986">  7  8 -1 -1</clus>
<clus scale="   98.771">  5  6 -1 -1</clus>
<clus scale="  103.393">  1  7  2 -1</clus>
<clus scale="  110.307">  2  5  1 -1</clus>
</clustering>
</event>
<event>
 9    1  0.1266593E-005  0.1476972E+03  0.7546771E-02  0.1203479E+00
          2   -1    0    0  502    0  0.00000000000E+00  0.00000000000E+00  0.62772892152E+03  0.62772892152E+03  0.00000000000E+00 0. -1.
         -2   -1    0    0    0  501 -0.00000000000E+00 -0.00000000000E+00 -0.41498384113E+02  0.41498384113E+02  0.00000000000E+00 0.  1.
         23    2    1    2    0    0 -0.27285891611E+02 -0.11444941538E+03  0.24891989376E+03  0.29057085038E+03  0.92882275076E+02 0.  0.
         23    2    1    2    0    0  0.49789039481E+02  0.10227143611E+03  0.29129321595E+03  0.32600383428E+03  0.92132335305E+02 0.  0.
        -13    1    4    4    0    0  0.17692929329E+02  0.10998266578E+03  0.20006676349E+03  0.22898894378E+03  0.00000000000E+00 0.  1.
         13    1    4    4    0    0  0.32096110152E+02 -0.77112296676E+01  0.91226452463E+02  0.97014890500E+02  0.00000000000E+00 0. -1.
        -13    1    3    3    0    0  0.86753119877E+01 -0.94036212118E+02  0.22194189206E+03  0.24119758224E+03  0.00000000000E+00 0. -1.
         13    1    3    3    0    0 -0.35961203598E+02 -0.20413203259E+02  0.26978001698E+02  0.49373268143E+02  0.00000000000E+00 0.  1.
         21    1    1    2  502  501 -0.22503147870E+02  0.12177979264E+02  0.46017427702E+02  0.52652620973E+02  0.00000000000E+00 0. -1.
<scales pt_clust_5="13000.00000" pt_clust_6="13000.00000" pt_clust_7="13000.00000" pt_clust_8="13000.00000" pt_clust_9="25.58701"></scales>
<clustering>
<clus scale="   25.587">  2  9  1 -1</clus>
<clus scale="   92.132">  5  6 -1 -1</clus>
<clus scale="   92.882">  7  8 -1 -1</clus>
<clus scale="  147.227">  1  5  2 -1</clus>
<clus scale="  147.227">  1  5  2 -1</clus>
</clustering>
</event>
<event>
 9    1  0.1266593E-005  0.1434252E+03  0.7546771E-02  0.1208902E+00
          1   -1    0    0  502    0  0.00000000000E+00  0.00000000000E+00  0.36368889446E+03  0.36368889446E+03  0.00000000000E+00 0. -1.
         -1   -1    0    0    0  501 -0.00000000000E+00 -0.00000000000E+00 -0.11557775253E+03  0.11557775253E+03  0.00000000000E+00 0.  1.
         23    2    1    2    0    0 -0.12152854012E+03 -0.54713979730E+02  0.44139983052E+00  0.16134346047E+03  0.90932457126E+02 0.  0.
         23    2    1    2    0    0  0.90383832432E+02  0.54422044466E+02  0.25035788057E+03  0.28666132267E+03  0.91458457579E+02 0.  0.
        -13    1    4    4    0    0  0.59962331694E+02  0.18770246039E+02  0.48331682249E+02  0.79270138561E+02  0.00000000000E+00 0. -1.
         13    1    4    4    0    0  0.30421500739E+02  0.35651798427E+02  0.20202619832E+03  0.20739118411E+03  0.00000000000E+00 0.  1.
        -13    1    3    3    0    0 -0.22274827645E+02  0.20484655123E+02  0.18572593107E+02  0.35506763537E+02  0.00000000000E+00 0. -1.
         13    1    3    3    0    0 -0.99253712477E+02 -0.75198634853E+02 -0.18131193277E+02  0.12583669693E+03  0.00000000000E+00 0.  1.
         21    1    1    2  502  501  0.31144707690E+02  0.29193526439E+00 -0.26881384677E+01  0.31261863856E+02  0.00000000000E+00 0.  1.
<scales pt_clust_5="13000.00000" pt_clust_6="13000.00000" pt_clust_7="13000.00000" pt_clust_8="13000.00000" pt_clust_9="31.14608"></scales>
<clustering>
<clus scale="   31.146">  2  9  1 -1</clus>
<clus scale="   90.932">  7  8 -1 -1</clus>
<clus scale="   91.458">  5  6 -1 -1</clus>
<clus scale="  143.090">  2  7  1 -1</clus>
<clus scale="  143.425">  1  5  2 -1</clus>
</clustering>
</event>
<event>
 9    1  0.1266593E-005  0.1064934E+03  0.7546771E-02  0.1269855E+00
         -1   -1    0    0    0  501 -0.00000000000E+00  0.00000000000E+00  0.25591439001E+03  0.25591439001E+03  0.00000000000E+00 0.  1.
          1   -1    0    0  502    0  0.00000000000E+00 -0.00000000000E+00 -0.76904196917E+02  0.76904196917E+02  0.00000000000E+00 0. -1.
         23    2    1    2    0    0  0.59707170990E+02 -0.14304978322E+02  0.15010159145E+03  0.18594559026E+03  0.90970853069E+02 0.  0.
         23    2    1    2    0    0 -0.33252271398E+02  0.21886698625E+02 -0.29557620539E+01  0.10476976795E+03  0.96867056404E+02 0.  0.
        -13    1    3    3    0    0  0.43873703090E+02 -0.33785407830E+02  0.15099250924E+03  0.16082628346E+03  0.00000000000E+00 0.  1.
         13    1    3    3    0    0  0.15833467900E+02  0.19480429508E+02 -0.89091778797E+00  0.25119306799E+02  0.00000000000E+00 0. -1.
        -13    1    4    4    0    0  0.14479282743E+02 -0.29490946993E+02  0.79416559255E+01  0.33799933168E+02  0.00000000000E+00 0.  1.
         13    1    4    4    0    0 -0.47731554141E+02  0.51377645618E+02 -0.10897417979E+02  0.70969834779E+02  0.00000000000E+00 0. -1.
         21    1    1    2  502  501 -0.26454899592E+02 -0.75817203029E+01  0.31864363694E+02  0.42103228722E+02  0.00000000000E+00 0. -1.
<scales pt_clust_5="13000.00000" pt_clust_6="13000.00000" pt_clust_7="13000.00000" pt_clust_8="13000.00000" pt_clust_9="27.51989"></scales>
<clustering>
<clus scale="   27.520">  1  9  2 -1</clus>
<clus scale="   90.971">  5  6 -1 -1</clus>
<clus scale="   96.867">  7  8 -1 -1</clus>
<clus scale="  101.160">  1  5  2 -1</clus>
<clus scale="  106.493">  2  5  1 -1</clus>
</clustering>
</event>
<event>
 9    1  0.1266593E-005  0.1074960E+03  0.7546771E-02  0.1266103E+00
          2   -1    0    0  502    0  0.00000000000E+00  0.00000000000E+00  0.34624072742E+03  0.34624072742E+03  0.00000000000E+00 0. -1.
         -2   -1    0    0    0  501 -0.00000000000E+00 -0.00000000000E+00 -0.52757040010E+02  0.52757040010E+02  0.00000000000E+00 0.  1.
         23    2    1    2    0    0  0.55240216089E+02 -0.11946688577E+01  0.65085770466E+02  0.12401958847E+03  0.89954389000E+02 0.  0.
         23    2    1    2    0    0 -0.50993977898E+02  0.37656201755E+02  0.13885217697E+03  0.17820052933E+03  0.91962635303E+02 0.  0.
        -11    1    4    4    0    0 -0.64179174828E+02  0.58107195137E+02  0.11659775270E+03  0.14522550927E+03  0.00000000000E+00 0.  1.
         11    1    4    4    0    0  0.13185196930E+02 -0.20450993382E+02  0.22254424274E+02  0.32975020063E+02  0.00000000000E+00 0. -1.
        -11    1    3    3    0    0 -0.23658954813E+01 -0.27705927797E+02  0.52441296604E+02  0.59357438338E+02  0.00000000000E+00 0.  1.
         11    1    3    3    0    0  0.57606111571E+02  0.26511258939E+02  0.12644473863E+02  0.64662150135E+02  0.00000000000E+00 0. -1.
         21    1    1    2  502  501 -0.42462381912E+01 -0.36461532898E+02  0.89545739970E+02  0.96777649624E+02  0.00000000000E+00 0.  1.
<scales pt_clust_5="13000.00000" pt_clust_6="13000.00000" pt_clust_7="13000.00000" pt_clust_8="13000.00000" pt_clust_9="36.70795"></scales>
<clustering>
<clus scale="   36.708">  1  9  2 -1</clus>
<clus scale="   89.954">  7  8 -1 -1</clus>
<clus scale="   91.963">  5  6 -1 -1</clus>
<clus scale="  105.783">  2  7  1 -1</clus>
<clus scale="   36.708">  1  5  2 -1</clus>
</clustering>
</event>
<event>
 9    1  0.1266593E-005  0.1073550E+03  0.7546771E-02  0.1271444E+00
         -1   -1    0    0    0  501 -0.00000000000E+00  0.00000000000E+00  0.87736196426E+02  0.87736196426E+02  0.00000000000E+00 0.  1.
          1   -1    0    0  502    0  0.00000000000E+00 -0.00000000000E+00 -0.25993712270E+03  0.25993712270E+03  0.00000000000E+00 0. -1.
         23    2    1    2    0    0 -0.43679355226E+02  0.27581128858E+02  0.21860961562E+02  0.94541977094E+02  0.76103081741E+02 0.  0.
         23    2    1    2    0    0  0.77084028705E+02 -0.41125814139E+02 -0.13935543663E+03  0.18761701907E+03  0.90260334898E+02 0.  0.
        -11    1    3    3    0    0  0.18209113114E+02  0.19612325181E+02 -0.38795218141E+01  0.27041926502E+02  0.00000000000E+00 0. -1.
         11    1    3    3    0    0 -0.61888468340E+02  0.79688036766E+01  0.25740483376E+02  0.67500050592E+02  0.00000000000E+00 0.  1.
        -13    1    4    4    0    0  0.56137136364E+02 -0.14857524535E+02 -0.16671392492E+02  0.60415721812E+02  0.00000000000E+00 0.  1.
         13    1    4    4    0    0  0.20946892341E+02 -0.26268289605E+02 -0.12268404414E+03  0.12720129726E+03  0.00000000000E+00 0. -1.
         21    1    1    2  502  501 -0.33404673479E+02  0.13544685281E+02 -0.54706451199E+02  0.65514322956E+02  0.00000000000E+00 0.  1.
<scales pt_clust_5="13000.00000" pt_clust_6="13000.00000" pt_clust_7="13000.00000" pt_clust_8="13000.00000" pt_clust_9="36.04623"></scales>
<clustering>
<clus scale="   36.046">  2  9  1 -1</clus>
<clus scale="   76.103">  5  6 -1 -1</clus>
<clus scale="   90.260">  7  8 -1 -1</clus>
<clus scale="   95.759">  1  5  2 -1</clus>
<clus scale="   36.046">  2  5  1 -1</clus>
</clustering>
</event>
<event>
 9    1  0.1266593E-005  0.1152180E+03  0.7546771E-02  0.1251606E+00
         -2   -1    0    0    0  501 -0.00000000000E+00  0.00000000000E+00  0.40743513546E+03  0.40743513546E+03  0.00000000000E+00 0.  1.
          2   -1    0    0  502    0  0.00000000000E+00 -0.00000000000E+00 -0.79481478330E+02  0.79481478330E+02  0.00000000000E+00 0. -1.
         23    2    1    2    0    0  0.58434436969E+02 -0.42591850480E+02  0.31040184463E+03  0.33123432307E+03  0.90212097185E+02 0.  0.
         23    2    1    2    0    0 -0.26659154339E+02  0.60013001059E+02 -0.56170382398E+01  0.11267112103E+03  0.91383584898E+02 0.  0.
        -11    1    3    3    0    0  0.26778626217E+02  0.26700694663E+02  0.78370006644E+02  0.87016549339E+02  0.00000000000E+00 0.  1.
         11    1    3    3    0    0  0.31655810752E+02 -0.69292545143E+02  0.23203183799E+03  0.24421777373E+03  0.00000000000E+00 0. -1.
        -11    1    4    4    0    0 -0.50690722975E+02  0.31632302179E+02 -0.31322786093E+02  0.67463092617E+02  0.00000000000E+00 0.  1.
         11    1    4    4    0    0  0.24031568636E+02  0.28380698880E+02  0.25705747853E+02  0.45208028410E+02  0.00000000000E+00 0. -1.
         21    1    1    2  502  501 -0.31775282629E+02 -0.17421150579E+02  0.23168850737E+02  0.43011169691E+02  0.00000000000E+00 0. -1.
<scales pt_clust_5="13000.00000" pt_clust_6="13000.00000" pt_clust_7="13000.00000" pt_clust_8="13000.00000" pt_clust_9="36.23762"></scales>
<clustering>
<clus scale="   36.238">  2  9  1 -1</clus>
<clus scale="   90.212">  5  6 -1 -1</clus>
<clus scale="   91.384">  7  8 -1 -1</clus>
<clus scale="  114.291">  1  5  2 -1</clus>
<clus scale="   36.238">  2  5  1 -1</clus>
</clustering>
</event>
<event>
 9    1  0.1266593E-005  0.2780315E+03  0.7546771E-02  0.1097610E+00
         -1   -1    0    0    0  501 -0.00000000000E+00  0.00000000000E+00  0.21870740900E+03  0.21870740900E+03  0.00000000000E+00 0.  1.
          1   -1    0    0  502    0  0.00000000000E+00 -0.00000000000E+00 -0.40015241083E+03  0.40015241083E+03  0.00000000000E+00 0. -1.
         23    2    1    2    0    0 -0.10707259633E+03 -0.23712935461E+03 -0.29579163034E+02  0.28341595832E+03  0.10841958699E+03 0.  0.
         23    2    1    2    0    0  0.84134130359E+02  0.23948576713E+03 -0.15635391753E+03  0.31195197458E+03  0.91844990995E+02 0.  0.
        -11    1    4    4    0    0  0.56832942674E+02  0.47018027427E+02 -0.59488810806E+02  0.94760734945E+02  0.00000000000E+00 0.  1.
         11    1    4    4    0    0  0.27301187685E+02  0.19246773970E+03 -0.96865106723E+02  0.21719123964E+03  0.00000000000E+00 0. -1.
        -13    1    3    3    0    0 -0.70832375685E+02 -0.20368410404E+03  0.16029591325E+02  0.21624381490E+03  0.00000000000E+00 0.  1.
         13    1    3    3    0    0 -0.36240220642E+02 -0.33445250571E+02 -0.45608754359E+02  0.67172143424E+02  0.00000000000E+00 0. -1.
         21    1    1    2  502  501  0.22938465968E+02 -0.23564125230E+01  0.44880787313E+01  0.23491886933E+02  0.00000000000E+00 0. -1.
<scales pt_clust_5="13000.00000" pt_clust_6="13000.00000" pt_clust_7="13000.00000" pt_clust_8="13000.00000" pt_clust_9="23.05918"></scales>
<clustering>
<clus scale="   23.059">  1  9  2 -1</clus>
<clus scale="   91.845">  5  6 -1 -1</clus>
<clus scale="  108.420">  7  8 -1 -1</clus>
<clus scale="  271.997">  2  5  1 -1</clus>
<clus scale="  271.997">  2  5  1 -1</clus>
</clustering>
</event>
<event>
 9    1  0.1266593E-005  0.9860307E+02  0.7546771E-02  0.1286135E+00
         -1   -1    0    0    0  501 -0.00000000000E+00  0.00000000000E+00  0.29270812698E+03  0.29270812698E+03  0.00000000000E+00 0.  1.
          1   -1    0    0  502    0  0.00000000000E+00 -0.00000000000E+00 -0.44904326638E+02  0.44904326638E+02  0.00000000000E+00 0. -1.
         23    2    1    2    0    0  0.30441694745E+02  0.26913441183E+02  0.16725246899E+03  0.19236466357E+03  0.85905444019E+02 0.  0.
         23    2    1    2    0    0 -0.31830103073E+02 -0.39737301198E+01  0.57826858150E+02  0.11292814117E+03  0.91541649272E+02 0.  0.
        -11    1    4    4    0    0 -0.10899015701E+02 -0.47439951470E+02  0.31332932496E+02  0.57888601620E+02  0.00000000000E+00 0. -1.
         11    1    4    4    0    0 -0.20931087373E+02  0.43466221350E+02  0.26493925654E+02  0.55039539548E+02  0.00000000000E+00 0.  1.
        -11    1    3    3    0    0  0.14834200064E+02  0.45796476693E+02  0.15959565837E+03  0.16669776525E+03  0.00000000000E+00 0.  1.
         11    1    3    3    0    0  0.15607494681E+02 -0.18883035510E+02  0.76568106133E+01  0.25666898314E+02  0.00000000000E+00 0. -1.
         21    1    1    2  502  501  0.13884083283E+01 -0.22939711063E+02  0.22724473205E+02  0.32319648881E+02  0.00000000000E+00 0.  1.
<scales pt_clust_5="13000.00000" pt_clust_6="13000.00000" pt_clust_7="13000.00000" pt_clust_8="13000.00000" pt_clust_9="22.98169"></scales>
<clustering>
<clus scale="   22.982">  2  9  1 -1</clus>
<clus scale="   85.905">  7  8 -1 -1</clus>
<clus scale="   91.542">  5  6 -1 -1</clus>
<clus scale="   93.394">  1  7  2 -1</clus>
<clus scale="   22.982">  2  5  1 -1</clus>
</clustering>
</event>
<event>
 9    1  0.1266593E-005  0.9214963E+02  0.7546771E-02  0.1298422E+00
          4   -1    0    0  502    0  0.00000000000E+00  0.00000000000E+00  0.86845083405E+02  0.86845083405E+02  0.00000000000E+00 0. -1.
         -4   -1    0    0    0  501 -0.00000000000E+00 -0.00000000000E+00 -0.26579171061E+03  0.26579171061E+03  0.00000000000E+00 0.  1.
         23    2    1    2    0    0  0.53661620017E+02 -0.35709096668E+02 -0.13687034535E+03  0.17588851904E+03  0.89713826391E+02 0.  0.
         23    2    1    2    0    0 -0.42396160967E+01 -0.17978161279E+01  0.15232570328E+02  0.92287588752E+02  0.90905232806E+02 0.  0.
        -11    1    3    3    0    0  0.61168937128E+02  0.11223261025E+02 -0.87592117633E+02  0.10742429673E+03  0.00000000000E+00 0.  1.
         11    1    3    3    0    0 -0.75073171107E+01 -0.46932357693E+02 -0.49278227718E+02  0.68464222305E+02  0.00000000000E+00 0. -1.
        -13    1    4    4    0    0 -0.33588079054E+01  0.41593060660E+02  0.23816895931E+02  0.48046943893E+02  0.00000000000E+00 0. -1.
         13    1    4    4    0    0 -0.88080819127E+00 -0.43390876788E+02 -0.85843256035E+01  0.44240644859E+02  0.00000000000E+00 0.  1.
         21    1    1    2  502  501 -0.49422003920E+02  0.37506912796E+02 -0.57308852184E+02  0.84460686225E+02  0.00000000000E+00 0. -1.
<scales pt_clust_5="13000.00000" pt_clust_6="13000.00000" pt_clust_7="13000.00000" pt_clust_8="13000.00000" pt_clust_9="62.04275"></scales>
<clustering>
<clus scale="   62.043">  2  9  1 -1</clus>
<clus scale="   89.714">  5  6 -1 -1</clus>
<clus scale="   90.905">  7  8 -1 -1</clus>
<clus scale="   90.975">  2  5  1 -1</clus>
<clus scale="   92.150">  1  5  2 -1</clus>
</clustering>
</event>
<event>
 9    1  0.1266593E-005  0.9531252E+02  0.7546771E-02  0.1291765E+00
         -4   -1    0    0    0  501 -0.00000000000E+00  0.00000000000E+00  0.10372426656E+03  0.10372426656E+03  0.00000000000E+00 0.  1.
          4   -1    0    0  502    0  0.00000000000E+00 -0.00000000000E+00 -0.23965377789E+03  0.23965377789E+03  0.00000000000E+00 0. -1.
         23    2    1    2    0    0 -0.20232736056E+02 -0.22341346121E+02  0.64449467680E+01  0.96476864980E+02  0.91420724033E+02 0.  0.
         23    2    1    2    0    0  0.16594843087E+02 -0.52131635888E+01 -0.17787698024E+03  0.20181332802E+03  0.93732776404E+02 0.  0.
        -11    1    4    4    0    0  0.66770950025E+01  0.42404442549E+02 -0.55786011552E+02  0.70390336201E+02  0.00000000000E+00 0.  1.
         11    1    4    4    0    0  0.99177480841E+01 -0.47617606138E+02 -0.12209096869E+03  0.13142299181E+03  0.00000000000E+00 0. -1.
        -13    1    3    3    0    0 -0.98186021762E+00  0.33507842520E+02 -0.10311691914E+02  0.35072361625E+02  0.00000000000E+00 0.  1.
         13    1    3    3    0    0 -0.19250875838E+02 -0.55849188641E+02  0.16756638682E+02  0.61404503355E+02  0.00000000000E+00 0. -1.
         21    1    1    2  502  501  0.36378929695E+01  0.27554509710E+02  0.35502522140E+02  0.45087851456E+02  0.00000000000E+00 0.  1.
<scales pt_clust_5="13000.00000" pt_clust_6="13000.00000" pt_clust_7="13000.00000" pt_clust_8="13000.00000" pt_clust_9="27.79362"></scales>
<clustering>
<clus scale="   27.794">  1  9  2 -1</clus>
<clus scale="   91.421">  7  8 -1 -1</clus>
<clus scale="   93.040">  1  7  2 -1</clus>
<clus scale="   93.733">  5  6 -1 -1</clus>
<clus scale="   95.313">  2  5  1 -1</clus>
</clustering>
</event>
<event>
 9    1  0.1266593E-005  0.1046596E+03  0.7546771E-02  0.1272079E+00
         -1   -1    0    0    0  501 -0.00000000000E+00  0.00000000000E+00  0.39006442860E+03  0.39006442860E+03  0.00000000000E+00 0.  1.
          1   -1    0    0  502    0  0.00000000000E+00 -0.00000000000E+00 -0.87627240232E+02  0.87627240232E+02  0.00000000000E+00 0. -1.
         23    2    1    2    0    0 -0.66245413758E+02 -0.27410704409E+02  0.15059228800E+03  0.18859973739E+03  0.88045568765E+02 0.  0.
         23    2    1    2    0    0  0.47869036812E+02  0.10247266765E+01 -0.27850964239E+02  0.10654189773E+03  0.91011015888E+02 0.  0.
        -11    1    3    3    0    0 -0.29923845140E+02 -0.16273445447E+02  0.80754190290E+00  0.34072183062E+02  0.00000000000E+00 0. -1.
         11    1    3    3    0    0 -0.36321568618E+02 -0.11137258962E+02  0.14978474609E+03  0.15452755433E+03  0.00000000000E+00 0.  1.
        -11    1    4    4    0    0  0.11142741228E+02 -0.41671041935E+02  0.12420955384E+01  0.43152974630E+02  0.00000000000E+00 0.  1.
         11    1    4    4    0    0  0.36726295584E+02  0.42695768612E+02 -0.29093059777E+02  0.63388923101E+02  0.00000000000E+00 0. -1.
         21    1    1    2  502  501  0.18376376946E+02  0.26385977732E+02  0.17969586461E+03  0.18255003371E+03  0.00000000000E+00 0.  1.
<scales pt_clust_5="13000.00000" pt_clust_6="13000.00000" pt_clust_7="13000.00000" pt_clust_8="13000.00000" pt_clust_9="32.15449"></scales>
<clustering>
<clus scale="   32.154">  1  9  2 -1</clus>
<clus scale="   88.046">  5  6 -1 -1</clus>
<clus scale="   91.011">  7  8 -1 -1</clus>
<clus scale="  102.091">  1  5  2 -1</clus>
<clus scale="  104.660">  2  5  1 -1</clus>
</clustering>
</event>
<event>
 9    1  0.1266593E-005  0.9114627E+02  0.7546771E-02  0.1302383E+00
          1   -1    0    0  502    0  0.00000000000E+00  0.00000000000E+00  0.63777771570E+03  0.63777771570E+03  0.00000000000E+00 0. -1.
         -1   -1    0    0    0  501 -0.00000000000E+00 -0.00000000000E+00 -0.45884378210E+02  0.45884378210E+02  0.00000000000E+00 0.  1.
         23    2    1    2    0    0  0.13440983070E+02  0.33500150144E+01  0.16817478120E+03  0.18915743141E+03  0.85474523681E+02 0.  0.
         23    2    1    2    0    0  0.25526795621E+02 -0.17397406710E+02  0.43997338309E+03  0.45000706274E+03  0.89305608099E+02 0.  0.
        -13    1    4    4    0    0 -0.28836232180E+02 -0.24107743400E+02  0.13410058086E+03  0.13926836455E+03  0.00000000000E+00 0.  1.
         13    1    4    4    0    0  0.54363027802E+02  0.67103366900E+01  0.30587280223E+03  0.31073869819E+03  0.00000000000E+00 0. -1.
        -13    1    3    3    0    0 -0.11402061422E+02  0.34375457971E+02  0.12643934768E+03  0.13152409573E+03  0.00000000000E+00 0. -1.
         13    1    3    3    0    0  0.24843044492E+02 -0.31025442957E+02  0.41735433515E+02  0.57633335675E+02  0.00000000000E+00 0.  1.
         21    1    1    2  502  501 -0.38967778692E+02  0.14047391696E+02 -0.16254826801E+02  0.44497599755E+02  0.00000000000E+00 0.  1.
<scales pt_clust_5="13000.00000" pt_clust_6="13000.00000" pt_clust_7="13000.00000" pt_clust_8="13000.00000" pt_clust_9="41.42242"></scales>
<clustering>
<clus scale="   41.422">  2  9  1 -1</clus>
<clus scale="   85.475">  7  8 -1 -1</clus>
<clus scale="   87.396">  2  7  1 -1</clus>
<clus scale="   89.306">  5  6 -1 -1</clus>
<clus scale="   91.146">  1  5  2 -1</clus>
</clustering>
</event>
<event>
 9    1  0.1266593E-005  0.3169106E+03  0.7546771E-02  0.1077408E+00
         -1   -1    0    0    0  501 -0.00000000000E+00  0.00000000000E+00  0.31666296517E+03  0.31666296517E+03  0.00000000000E+00 0.  1.
          1   -1    0    0  502    0  0.00000000000E+00 -0.00000000000E+00 -0.97864337955E+03  0.97864337955E+03  0.00000000000E+00 0. -1.
         23    2    1    2    0    0 -0.25008108168E+03  0.26940775912E+03 -0.20089660793E+02  0.38174964349E+03  0.10103518074E+03 0.  0.
         23    2    1    2    0    0  0.22555361963E+03 -0.18162721613E+03 -0.72757580998E+03  0.78846094186E+03  0.91876093770E+02 0.  0.
        -11    1    4    4    0    0  0.44569863495E+02 -0.58720290404E+02 -0.29026924618E+03  0.29948419076E+03  0.00000000000E+00 0.  1.
         11    1    4    4    0    0  0.18098375613E+03 -0.12290692572E+03 -0.43730656380E+03  0.48897675110E+03  0.00000000000E+00 0. -1.
        -13    1    3    3    0    0 -0.95116280049E+02  0.17349639615E+03  0.41357109451E+01  0.19790202200E+03  0.00000000000E+00 0.  1.
         13    1    3    3    0    0 -0.15496480164E+03  0.95911362966E+02 -0.24225371738E+02  0.18384762149E+03  0.00000000000E+00 0. -1.
         21    1    1    2  502  501  0.24527462056E+02 -0.87780542989E+02  0.85685056396E+02  0.12509575937E+03  0.00000000000E+00 0. -1.
<scales pt_clust_5="13000.00000" pt_clust_6="13000.00000" pt_clust_7="13000.00000" pt_clust_8="13000.00000" pt_clust_9="91.14286"></scales>
<clustering>
<clus scale="   91.143">  1  9  2 -1</clus>
<clus scale="   91.876">  5  6 -1 -1</clus>
<clus scale="  101.035">  7  8 -1 -1</clus>
<clus scale="  314.111">  2  5  1 -1</clus>
<clus scale="  314.111">  2  5  1 -1</clus>
</clustering>
</event>
<event>
 9    1  0.1266593E-005  0.1755450E+03  0.7546771E-02  0.1172671E+00
         -3   -1    0    0    0  501 -0.00000000000E+00  0.00000000000E+00  0.23310512086E+03  0.23310512086E+03  0.00000000000E+00 0.  1.
          3   -1    0    0  502    0  0.00000000000E+00 -0.00000000000E+00 -0.64952623125E+03  0.64952623125E+03  0.00000000000E+00 0. -1.
         23    2    1    2    0    0  0.13680712232E+03  0.59960204508E+02 -0.94835750721E+02  0.19808754581E+03  0.89069867786E+02 0.  0.
         23    2    1    2    0    0 -0.94246890486E+02 -0.12088846895E+03 -0.47848448793E+03  0.51093227675E+03  0.92778704128E+02 0.  0.
        -11    1    3    3    0    0  0.11000353477E+03  0.36270292109E+01 -0.47982186720E+02  0.12006757783E+03  0.00000000000E+00 0.  1.
         11    1    3    3    0    0  0.26803587556E+02  0.56333175297E+02 -0.46853564001E+02  0.78019967986E+02  0.00000000000E+00 0. -1.
        -11    1    4    4    0    0 -0.42232210248E+02 -0.82539068076E+02 -0.39289251110E+03  0.40368401334E+03  0.00000000000E+00 0. -1.
         11    1    4    4    0    0 -0.52014680238E+02 -0.38349400873E+02 -0.85591976831E+02  0.10724826341E+03  0.00000000000E+00 0.  1.
         21    1    1    2  502  501 -0.42560231838E+02  0.60928264441E+02  0.15689912826E+03  0.17361152954E+03  0.00000000000E+00 0.  1.
<scales pt_clust_5="13000.00000" pt_clust_6="13000.00000" pt_clust_7="13000.00000" pt_clust_8="13000.00000" pt_clust_9="74.32111"></scales>
<clustering>
<clus scale="   74.321">  1  9  2 -1</clus>
<clus scale="   89.070">  5  6 -1 -1</clus>
<clus scale="   92.779">  7  8 -1 -1</clus>
<clus scale="  173.613">  1  5  2 -1</clus>
<clus scale="  175.545">  2  5  1 -1</clus>
</clustering>
</event>
<event>
 9    1  0.1266593E-005  0.1158056E+03  0.7546771E-02  0.1250366E+00
          1   -1    0    0  502    0  0.00000000000E+00  0.00000000000E+00  0.72466143675E+02  0.72466143675E+02  0.00000000000E+00 0. -1.
         -1   -1    0    0    0  501 -0.00000000000E+00 -0.00000000000E+00 -0.31439143536E+03  0.31439143536E+03  0.00000000000E+00 0.  1.
         23    2    1    2    0    0 -0.51021731262E+02 -0.77283906240E+02 -0.14924705502E+03  0.19838957104E+03  0.92237298547E+02 0.  0.
         23    2    1    2    0    0 -0.95511135853E+00  0.46250955954E+02 -0.48878429267E+02  0.11374813580E+03  0.91703186343E+02 0.  0.
        -11    1    4    4    0    0  0.41058157600E+02  0.44085340664E+02 -0.33671881336E+02  0.69015108199E+02  0.00000000000E+00 0. -1.
         11    1    4    4    0    0 -0.42013268959E+02  0.21656152905E+01 -0.15206547931E+02  0.44733027599E+02  0.00000000000E+00 0.  1.
        -13    1    3    3    0    0 -0.70429362417E+02 -0.71302172039E+02 -0.86332543552E+02  0.13227850507E+03  0.00000000000E+00 0.  1.
         13    1    3    3    0    0  0.19407631156E+02 -0.59817342004E+01 -0.62914511463E+02  0.66111065971E+02  0.00000000000E+00 0. -1.
         21    1    1    2  502  501  0.51976842620E+02  0.31032950285E+02 -0.43799807401E+02  0.74719872193E+02  0.00000000000E+00 0. -1.
<scales pt_clust_5="13000.00000" pt_clust_6="13000.00000" pt_clust_7="13000.00000" pt_clust_8="13000.00000" pt_clust_9="60.53624"></scales>
<clustering>
<clus scale="   60.536">  1  9  2 -1</clus>
<clus scale="   91.703">  5  6 -1 -1</clus>
<clus scale="   92.237">  7  8 -1 -1</clus>
<clus scale="  115.381">  1  5  2 -1</clus>
<clus scale="   60.536">  1  5  2 -1</clus>
</clustering>
</event>
<event>
 9    1  0.1266593E-005  0.1166506E+03  0.7546771E-02  0.1248961E+00
          1   -1    0    0  502    0  0.00000000000E+00  0.00000000000E+00  0.35530269568E+03  0.35530269568E+03  0.00000000000E+00 0. -1.
         -1   -1    0    0    0  501 -0.00000000000E+00 -0.00000000000E+00 -0.81759621423E+02  0.81759621423E+02  0.00000000000E+00 0.  1.
         23    2    1    2    0    0  0.49485332631E+01  0.10576189740E+03  0.74627391634E+02  0.15836927846E+03  0.91112643776E+02 0.  0.
         23    2    1    2    0    0 -0.88635801412E+01 -0.60197398482E+02  0.20484606245E+03  0.23257774228E+03  0.91805267099E+02 0.  0.
        -11    1    4    4    0    0 -0.16747805681E+02  0.19612111139E+02  0.81228380120E+02  0.85224254972E+02  0.00000000000E+00 0.  1.
         11    1    4    4    0    0  0.78842255402E+01 -0.79809509621E+02  0.12361768233E+03  0.14735348731E+03  0.00000000000E+00 0. -1.
        -11    1    3    3    0    0 -0.33375694705E+02  0.92533362923E+02  0.45105917590E+02  0.10821693053E+03  0.00000000000E+00 0.  1.
         11    1    3    3    0    0  0.38324227968E+02  0.13228534474E+02  0.29521474044E+02  0.50152347936E+02  0.00000000000E+00 0. -1.
         21    1    1    2  502  501  0.39150468781E+01 -0.45564498915E+02 -0.59303798263E+01  0.46115296360E+02  0.00000000000E+00 0. -1.
<scales pt_clust_5="13000.00000" pt_clust_6="13000.00000" pt_clust_7="13000.00000" pt_clust_8="13000.00000" pt_clust_9="45.73239"></scales>
<clustering>
<clus scale="   45.732">  2  9  1 -1</clus>
<clus scale="   91.113">  7  8 -1 -1</clus>
<clus scale="   91.805">  5  6 -1 -1</clus>
<clus scale="  116.106">  2  7  1 -1</clus>
<clus scale="  116.651">  1  5  2 -1</clus>
</clustering>
</event>
<event>
 9    1  0.1981713E-005  0.1609147E+03  0.7546771E-02  0.1188392E+00
         -1   -1    0    0    0  501 -0.00000000000E+00  0.00000000000E+00  0.14790621669E+03  0.14790621669E+03  0.00000000000E+00 0.  1.
          1   -1    0    0  502    0  0.00000000000E+00 -0.00000000000E+00 -0.62770366801E+03  0.62770366801E+03  0.00000000000E+00 0. -1.
         23    2    1    2    0    0 -0.12049874129E+03  0.22139959556E+02  0.47330236004E+02  0.15947747151E+03  0.90458765292E+02 0.  0.
         23    2    1    2    0    0  0.13086129101E+03 -0.43963459348E+01 -0.55693298730E+03  0.57993056010E+03  0.94874110540E+02 0.  0.
        -11    1    3    3    0    0 -0.10764584140E+03  0.52021165517E+02  0.33758110901E+02  0.12423139251E+03  0.00000000000E+00 0.  1.
         11    1    3    3    0    0 -0.12852899885E+02 -0.29881205962E+02  0.13572125103E+02  0.35246079001E+02  0.00000000000E+00 0. -1.
        -13    1    4    4    0    0  0.42502489724E+02  0.37964990570E+02 -0.13079083581E+03  0.14266760275E+03  0.00000000000E+00 0.  1.
         13    1    4    4    0    0  0.88358801290E+02 -0.42361336505E+02 -0.42614215149E+03  0.43726295735E+03  0.00000000000E+00 0. -1.
         21    1    1    2  502  501 -0.10362549727E+02 -0.17743613621E+02  0.29805299976E+02  0.36201853099E+02  0.00000000000E+00 0.  1.
<scales pt_clust_5="13000.00000" pt_clust_6="13000.00000" pt_clust_7="13000.00000" pt_clust_8="13000.00000" pt_clust_9="20.54795"></scales>
<clustering>
<clus scale="   20.548">  1  9  2 -1</clus>
<clus scale="   90.459">  5  6 -1 -1</clus>
<clus scale="   94.874">  7  8 -1 -1</clus>
<clus scale="  158.352">  1  5  2 -1</clus>
<clus scale="  160.915">  2  5  1 -1</clus>
</clustering>
</event>
<event>
 9    1  0.1266593E-005  0.9815541E+02  0.7546771E-02  0.1286807E+00
         -2   -1    0    0    0  501 -0.00000000000E+00  0.00000000000E+00  0.16194560544E+03  0.16194560544E+03  0.00000000000E+00 0.  1.
          2   -1    0    0  502    0  0.00000000000E+00 -0.00000000000E+00 -0.12062217713E+03  0.12062217713E+03  0.00000000000E+00 0. -1.
         23    2    1    2    0    0 -0.17080550091E+01 -0.51660499947E+02  0.87892464941E+02  0.13762047620E+03  0.92426107622E+02 0.  0.
         23    2    1    2    0    0  0.43045618135E+01  0.28900394637E+02 -0.67219330662E+02  0.11410579400E+03  0.87452454210E+02 0.  0.
        -13    1    4    4    0    0  0.36117890729E+02  0.85031207495E+01 -0.66682891844E+02  0.76311291156E+02  0.00000000000E+00 0. -1.
         13    1    4    4    0    0 -0.31813328915E+02  0.20397273887E+02 -0.53643881749E+00  0.37794502845E+02  0.00000000000E+00 0.  1.
        -13    1    3    3    0    0  0.71848362083E+01  0.26280315352E+02  0.26498096992E+02  0.38005604725E+02  0.00000000000E+00 0. -1.
         13    1    3    3    0    0 -0.88928912175E+01 -0.77940815298E+02  0.61394367948E+02  0.99614871477E+02  0.00000000000E+00 0.  1.
         21    1    1    2  502  501 -0.25965068043E+01  0.22760105310E+02  0.20650294036E+02  0.30841512367E+02  0.00000000000E+00 0.  1.
<scales pt_clust_5="13000.00000" pt_clust_6="13000.00000" pt_clust_7="13000.00000" pt_clust_8="13000.00000" pt_clust_9="22.90773"></scales>
<clustering>
<clus scale="   22.908">  1  9  2 -1</clus>
<clus scale="   87.452">  5  6 -1 -1</clus>
<clus scale="   92.426">  7  8 -1 -1</clus>
<clus scale="   93.487">  2  5  1 -1</clus>
<clus scale="   93.487">  2  5  1 -1</clus>
</clustering>
</event>
<event>
 9    1  0.1266593E-005  0.9677047E+02  0.7546771E-02  0.1289094E+00
          1   -1    0    0  502    0  0.00000000000E+00  0.00000000000E+00  0.17651930894E+03  0.17651930894E+03  0.00000000000E+00 0. -1.
         -1   -1    0    0    0  501 -0.00000000000E+00 -0.00000000000E+00 -0.12233660296E+03  0.12233660296E+03  0.00000000000E+00 0.  1.
         23    2    1    2    0    0 -0.37444177371E+02  0.15181474223E+02  0.13270602964E+02  0.10166441124E+03  0.92341756707E+02 0.  0.
         23    2    1    2    0    0  0.13310653968E+00 -0.31541199523E+02  0.92074163444E+02  0.13179033059E+03  0.88860422456E+02 0.  0.
        -11    1    3    3    0    0 -0.65611615924E+02  0.25715957426E+02  0.12568863642E+02  0.71583314702E+02  0.00000000000E+00 0.  1.
         11    1    3    3    0    0  0.28167438553E+02 -0.10534483203E+02  0.70173932180E+00  0.30081096540E+02  0.00000000000E+00 0. -1.
        -13    1    4    4    0    0 -0.19440470484E+02 -0.11253418879E+02 -0.10942409127E+02  0.24986149095E+02  0.00000000000E+00 0.  1.
         13    1    4    4    0    0  0.19573577024E+02 -0.20287780644E+02  0.10301657257E+03  0.10680418150E+03  0.00000000000E+00 0. -1.
         21    1    1    2  502  501  0.37311070831E+02  0.16359725301E+02 -0.51162060433E+02  0.65401170068E+02  0.00000000000E+00 0.  1.
<scales pt_clust_5="13000.00000" pt_clust_6="13000.00000" pt_clust_7="13000.00000" pt_clust_8="13000.00000" pt_clust_9="40.74011"></scales>
<clustering>
<clus scale="   40.740">  2  9  1 -1</clus>
<clus scale="   88.860">  7  8 -1 -1</clus>
<clus scale="   92.342">  5  6 -1 -1</clus>
<clus scale="   93.454">  1  7  2 -1</clus>
<clus scale="   93.454">  1  5  2 -1</clus>
</clustering>
</event>
<event>
 9    1  0.1266593E-005  0.9424693E+02  0.7546771E-02  0.1292984E+00
         -1   -1    0    0    0  501 -0.00000000000E+00  0.00000000000E+00  0.29731861394E+02  0.29731861394E+02  0.00000000000E+00 0.  1.
          1   -1    0    0  502    0  0.00000000000E+00 -0.00000000000E+00 -0.48447819977E+03  0.48447819977E+03  0.00000000000E+00 0. -1.
         23    2    1    2    0    0 -0.32699673797E+01 -0.82208463455E+00 -0.11494427571E+03  0.14647271208E+03  0.90723207375E+02 0.  0.
         23    2    1    2    0    0  0.31012572080E+02  0.16705068358E+02 -0.30624945159E+03  0.32139407559E+03  0.90909770058E+02 0.  0.
        -11    1    4    4    0    0  0.43339240492E+02 -0.15462379064E+02 -0.25822099186E+03  0.26228887809E+03  0.00000000000E+00 0. -1.
         11    1    4    4    0    0 -0.12326668412E+02  0.32167447422E+02 -0.48028459724E+02  0.59105197498E+02  0.00000000000E+00 0.  1.
        -13    1    3    3    0    0 -0.45970918223E+02 -0.85983876647E+01 -0.68088403897E+02  0.82603198109E+02  0.00000000000E+00 0.  1.
         13    1    3    3    0    0  0.42700950843E+02  0.77763030302E+01 -0.46855871815E+02  0.63869513974E+02  0.00000000000E+00 0. -1.
         21    1    1    2  502  501 -0.27742604700E+02 -0.15882983724E+02 -0.33552611076E+02  0.46343273488E+02  0.00000000000E+00 0.  1.
<scales pt_clust_5="13000.00000" pt_clust_6="13000.00000" pt_clust_7="13000.00000" pt_clust_8="13000.00000" pt_clust_9="31.96750"></scales>
<clustering>
<clus scale="   31.968">  1  9  2 -1</clus>
<clus scale="   90.723">  7  8 -1 -1</clus>
<clus scale="   90.910">  5  6 -1 -1</clus>
<clus scale="   94.067">  1  7  2 -1</clus>
<clus scale="   94.247">  2  5  1 -1</clus>
</clustering>
</event>
<event>
 9    1  0.1266593E-005  0.1275523E+03  0.7546771E-02  0.1240825E+00
          1   -1    0    0  502    0  0.00000000000E+00  0.00000000000E+00  0.15514949679E+03  0.15514949679E+03  0.00000000000E+00 0. -1.
         -1   -1    0    0    0  501 -0.00000000000E+00 -0.00000000000E+00 -0.29182401194E+03  0.29182401194E+03  0.00000000000E+00 0.  1.
         23    2    1    2    0    0  0.96867117456E+01  0.43536430842E+02 -0.11138892900E+03  0.15281925712E+03  0.94641315760E+02 0.  0.
         23    2    1    2    0    0  0.76002835310E+02  0.35509571145E+02  0.71719674607E+02  0.14249348041E+03  0.90129460303E+02 0.  0.
        -13    1    3    3    0    0 -0.90773552094E+01 -0.17933061197E+02 -0.77695361756E+02  0.80253113957E+02  0.00000000000E+00 0.  1.
         13    1    3    3    0    0  0.18764066955E+02  0.61469492039E+02 -0.33693567246E+02  0.72566143166E+02  0.00000000000E+00 0. -1.
        -13    1    4    4    0    0  0.23422615600E+02  0.10765513018E+02 -0.20877467486E+02  0.33172034015E+02  0.00000000000E+00 0.  1.
         13    1    4    4    0    0  0.52580219710E+02  0.24744058127E+02  0.92597142092E+02  0.10932144639E+03  0.00000000000E+00 0. -1.
         21    1    1    2  502  501 -0.85689547056E+02 -0.79046001987E+02 -0.97005260755E+02  0.15166077119E+03  0.00000000000E+00 0.  1.
<scales pt_clust_5="13000.00000" pt_clust_6="13000.00000" pt_clust_7="13000.00000" pt_clust_8="13000.00000" pt_clust_9="90.25667"></scales>
<clustering>
<clus scale="   90.129">  7  8 -1 -1</clus>
<clus scale="   94.641">  5  6 -1 -1</clus>
<clus scale="  104.624">  2  5  1 -1</clus>
<clus scale="   90.257">  2  9  1 -1</clus>
<clus scale="  127.552">  1  5  2 -1</clus>
</clustering>
</event>
<event>
 9    1  0.1266593E-005  0.9612130E+02  0.7546771E-02  0.1292938E+00
          1   -1    0    0  502    0  0.00000000000E+00  0.00000000000E+00  0.40382258990E+03  0.40382258990E+03  0.00000000000E+00 0. -1.
         -1   -1    0    0    0  501 -0.00000000000E+00 -0.00000000000E+00 -0.48804025492E+02  0.48804025492E+02  0.00000000000E+00 0.  1.
         23    2    1    2    0    0  0.34832926942E+02 -0.77631154823E+01  0.14140168304E+03  0.17346635100E+03  0.93928378044E+02 0.  0.
         23    2    1    2    0    0 -0.12965210294E+02 -0.75999567664E+01  0.23113796516E+03  0.24720389730E+03  0.86366381670E+02 0.  0.
        -11    1    4    4    0    0 -0.93731407537E+01 -0.40919639221E+02  0.62641928958E+02  0.75407452584E+02  0.00000000000E+00 0.  1.
         11    1    4    4    0    0 -0.35920695398E+01  0.33319682455E+02  0.16849603620E+03  0.17179644472E+03  0.00000000000E+00 0. -1.
        -13    1    3    3    0    0  0.64620894511E+02 -0.16582176075E+02  0.76441946417E+02  0.10146033581E+03  0.00000000000E+00 0.  1.
         13    1    3    3    0    0 -0.29787967569E+02  0.88190605924E+01  0.64959736625E+02  0.72006015194E+02  0.00000000000E+00 0. -1.
         21    1    1    2  502  501 -0.21867716649E+02  0.15363072249E+02 -0.17521083790E+02  0.31956367089E+02  0.00000000000E+00 0. -1.
<scales pt_clust_5="13000.00000" pt_clust_6="13000.00000" pt_clust_7="13000.00000" pt_clust_8="13000.00000" pt_clust_9="26.72491"></scales>
<clustering>
<clus scale="   26.725">  2  9  1 -1</clus>
<clus scale="   86.366">  5  6 -1 -1</clus>
<clus scale="   88.746">  1  5  2 -1</clus>
<clus scale="   93.928">  7  8 -1 -1</clus>
<clus scale="   88.746">  1  5  2 -1</clus>
</clustering>
</event>
<event>
 9    1  0.1266593E-005  0.9502990E+02  0.7546771E-02  0.1292161E+00
         -1   -1    0    0    0  501 -0.00000000000E+00  0.00000000000E+00  0.74326110079E+02  0.74326110079E+02  0.00000000000E+00 0.  1.
          1   -1    0    0  502    0  0.00000000000E+00 -0.00000000000E+00 -0.26991088739E+03  0.26991088739E+03  0.00000000000E+00 0. -1.
         23    2    1    2    0    0 -0.40921618468E+02 -0.11189233348E+02  0.15027494759E+02  0.10181936159E+03  0.91332245097E+02 0.  0.
         23    2    1    2    0    0  0.20484216675E+02  0.11688119507E+02 -0.19765466650E+03  0.21821359032E+03  0.89406870763E+02 0.  0.
        -13    1    3    3    0    0 -0.12135033669E+02 -0.43429737972E+02  0.32096082564E+02  0.55349432684E+02  0.00000000000E+00 0.  1.
         13    1    3    3    0    0 -0.28786584799E+02  0.32240504624E+02 -0.17068587804E+02  0.46469928905E+02  0.00000000000E+00 0. -1.
        -13    1    4    4    0    0 -0.15101882078E+02 -0.31984313626E+02 -0.63011030364E+02  0.72259622943E+02  0.00000000000E+00 0.  1.
         13    1    4    4    0    0  0.35586098753E+02  0.43672433133E+02 -0.13464363614E+03  0.14595396737E+03  0.00000000000E+00 0. -1.
         21    1    1    2  502  501  0.20437401793E+02 -0.49888615935E+00 -0.12957605565E+02  0.24204045559E+02  0.00000000000E+00 0. -1.
<scales pt_clust_5="13000.00000" pt_clust_6="13000.00000" pt_clust_7="13000.00000" pt_clust_8="13000.00000" pt_clust_9="20.44349"></scales>
<clustering>
<clus scale="   20.443">  1  9  2 -1</clus>
<clus scale="   89.407">  7  8 -1 -1</clus>
<clus scale="   91.332">  5  6 -1 -1</clus>
<clus scale="   93.181">  2  7  1 -1</clus>
<clus scale="   93.181">  2  5  1 -1</clus>
</clustering>
</event>
<event>
 9    1  0.1266593E-005  0.1396850E+03  0.7546771E-02  0.1230581E+00
         -1   -1    0    0    0  501 -0.00000000000E+00  0.00000000000E+00  0.10639220702E+04  0.10639220702E+04  0.00000000000E+00 0.  1.
          1   -1    0    0  502    0  0.00000000000E+00 -0.00000000000E+00 -0.34160333251E+02  0.34160333251E+02  0.00000000000E+00 0. -1.
         23    2    1    2    0    0  0.77089786126E+02  0.90595451179E+02  0.31057440448E+03  0.34469861834E+03  0.90610738144E+02 0.  0.
         23    2    1    2    0    0 -0.42971735778E+02  0.80318097045E+01  0.18879124556E+03  0.21281798249E+03  0.87967489627E+02 0.  0.
        -11    1    3    3    0    0 -0.48303416462E+01  0.52922700873E+02  0.16611637858E+03  0.17440984978E+03  0.00000000000E+00 0.  1.
         11    1    3    3    0    0  0.81920127772E+02  0.37672750306E+02  0.14445802590E+03  0.17028876856E+03  0.00000000000E+00 0. -1.
        -11    1    4    4    0    0 -0.68768489458E+02  0.16771478717E+02  0.12991852958E+03  0.14795003200E+03  0.00000000000E+00 0.  1.
         11    1    4    4    0    0  0.25796753680E+02 -0.87396690125E+01  0.58872715972E+02  0.64867950490E+02  0.00000000000E+00 0. -1.
         21    1    1    2  502  501 -0.34118050348E+02 -0.98627260883E+02  0.53039608695E+03  0.54056580266E+03  0.00000000000E+00 0.  1.
<scales pt_clust_5="13000.00000" pt_clust_6="13000.00000" pt_clust_7="13000.00000" pt_clust_8="13000.00000" pt_clust_9="106.30896"></scales>
<clustering>
<clus scale="   87.967">  7  8 -1 -1</clus>
<clus scale="   90.611">  5  6 -1 -1</clus>
<clus scale="   98.231">  2  7  1 -1</clus>
<clus scale="  106.309">  1  9  2 -1</clus>
<clus scale="   98.231">  2  5  1 -1</clus>
</clustering>
</event>
<event>
 9    1  0.1266593E-005  0.1892689E+03  0.7546771E-02  0.1159215E+00
         -1   -1    0    0    0  501 -0.00000000000E+00  0.00000000000E+00  0.84810384106E+02  0.84810384106E+02  0.00000000000E+00 0.  1.
          1   -1    0    0  502    0  0.00000000000E+00 -0.00000000000E+00 -0.76290090580E+03  0.76290090580E+03  0.00000000000E+00 0. -1.
         23    2    1    2    0    0 -0.16694431928E+03 -0.20565071569E+02 -0.10313640830E+03  0.21758922593E+03  0.91731263014E+02 0.  0.
         23    2    1    2    0    0  0.16517884008E+03 -0.71279595538E+01 -0.57188705492E+03  0.60220383091E+03  0.90883405264E+02 0.  0.
        -13    1    3    3    0    0 -0.98200586059E+02 -0.49658655314E+02 -0.89196051900E+02  0.14165194254E+03  0.00000000000E+00 0. -1.
         13    1    3    3    0    0 -0.68743733225E+02  0.29093583745E+02 -0.13940356404E+02  0.75937283396E+02  0.00000000000E+00 0.  1.
        -13    1    4    4    0    0  0.15271102040E+03 -0.36269017488E+02 -0.47814261905E+03  0.50324592550E+03  0.00000000000E+00 0. -1.
         13    1    4    4    0    0  0.12467819680E+02  0.29141057934E+02 -0.93744435875E+02  0.98957905407E+02  0.00000000000E+00 0.  1.
         21    1    1    2  502  501  0.17654792013E+01  0.27693031123E+02 -0.30670584611E+01  0.27918233060E+02  0.00000000000E+00 0.  1.
<scales pt_clust_5="13000.00000" pt_clust_6="13000.00000" pt_clust_7="13000.00000" pt_clust_8="13000.00000" pt_clust_9="27.74925"></scales>
<clustering>
<clus scale="   27.749">  1  9  2 -1</clus>
<clus scale="   90.883">  7  8 -1 -1</clus>
<clus scale="   91.731">  5  6 -1 -1</clus>
<clus scale="  188.859">  2  7  1 -1</clus>
<clus scale="  188.859">  2  5  1 -1</clus>
</clustering>
</event>
<event>
 9    1  0.1652975E-005  0.1218018E+03  0.7546771E-02  0.1251372E+00
          2   -1    0    0  502    0  0.00000000000E+00  0.00000000000E+00  0.74889996324E+03  0.74889996324E+03  0.00000000000E+00 0. -1.
         -2   -1    0    0    0  501 -0.00000000000E+00 -0.00000000000E+00 -0.40835737567E+02  0.40835737567E+02  0.00000000000E+00 0.  1.
         23    2    1    2    0    0 -0.39941468650E+02 -0.15335754317E+02  0.78527573610E+02  0.12763591380E+03  0.91070524302E+02 0.  0.
         23    2    1    2    0    0  0.31980717853E+02 -0.10368965749E+02  0.62249891641E+03  0.63428547576E+03  0.11697385206E+03 0.  0.
        -13    1    3    3    0    0 -0.12904498495E+02 -0.52153842818E+02  0.52218948748E+02  0.74922413272E+02  0.00000000000E+00 0. -1.
         13    1    3    3    0    0 -0.27036970155E+02  0.36818088501E+02  0.26308624861E+02  0.52713500530E+02  0.00000000000E+00 0.  1.
        -13    1    4    4    0    0 -0.29734681403E+02  0.34149984015E+02  0.21003021249E+03  0.21485591183E+03  0.00000000000E+00 0.  1.
         13    1    4    4    0    0  0.61715399256E+02 -0.44518949765E+02  0.41246870391E+03  0.41942956393E+03  0.00000000000E+00 0. -1.
         21    1    1    2  502  501  0.79607507966E+01  0.25704720067E+02  0.70377356572E+01  0.27814311247E+02  0.00000000000E+00 0.  1.
<scales pt_clust_5="13000.00000" pt_clust_6="13000.00000" pt_clust_7="13000.00000" pt_clust_8="13000.00000" pt_clust_9="26.90922"></scales>
<clustering>
<clus scale="   26.909">  2  9  1 -1</clus>
<clus scale="   91.071">  5  6 -1 -1</clus>
<clus scale="   97.194">  2  5  1 -1</clus>
<clus scale="  116.974">  7  8 -1 -1</clus>
<clus scale="  121.802">  1  5  2 -1</clus>
</clustering>
</event>
<event>
 9    1  0.1266593E-005  0.1189992E+03  0.7546771E-02  0.1245170E+00
         -1   -1    0    0    0  501 -0.00000000000E+00  0.00000000000E+00  0.19152336587E+03  0.19152336587E+03  0.00000000000E+00 0.  1.
          1   -1    0    0  502    0  0.00000000000E+00 -0.00000000000E+00 -0.29184845511E+03  0.29184845511E+03  0.00000000000E+00 0. -1.
         23    2    1    2    0    0  0.56829801458E+02 -0.19342360433E+02  0.12060748819E+03  0.16210871713E+03  0.90162723568E+02 0.  0.
         23    2    1    2    0    0 -0.76312108250E+02  0.14743134870E+02 -0.25495391751E+03  0.28178950844E+03  0.91449052037E+02 0.  0.
        -11    1    4    4    0    0 -0.79925154896E+02  0.36003310295E+02 -0.24010555046E+03  0.25560701105E+03  0.00000000000E+00 0. -1.
         11    1    4    4    0    0  0.36130466459E+01 -0.21260175425E+02 -0.14848367054E+02  0.26182497386E+02  0.00000000000E+00 0.  1.
        -11    1    3    3    0    0  0.68714173829E+02  0.13705485064E+02  0.97512521524E+02  0.12007568388E+03  0.00000000000E+00 0.  1.
         11    1    3    3    0    0 -0.11884372371E+02 -0.33047845496E+02  0.23094966661E+02  0.42033033244E+02  0.00000000000E+00 0. -1.
         21    1    1    2  502  501  0.19482306793E+02  0.45992255628E+01  0.34021340090E+02  0.39473595418E+02  0.00000000000E+00 0.  1.
<scales pt_clust_5="13000.00000" pt_clust_6="13000.00000" pt_clust_7="13000.00000" pt_clust_8="13000.00000" pt_clust_9="20.01782"></scales>
<clustering>
<clus scale="   20.018">  1  9  2 -1</clus>
<clus scale="   90.163">  7  8 -1 -1</clus>
<clus scale="   91.449">  5  6 -1 -1</clus>
<clus scale="  118.014">  1  7  2 -1</clus>
<clus scale="  118.999">  2  5  1 -1</clus>
</clustering>
</event>
<event>
 9    1  0.1266593E-005  0.3858243E+03  0.7546771E-02  0.1048868E+00
          2   -1    0    0  502    0  0.00000000000E+00  0.00000000000E+00  0.61235602557E+03  0.61235602557E+03  0.00000000000E+00 0. -1.
         -2   -1    0    0    0  501 -0.00000000000E+00 -0.00000000000E+00 -0.32752931433E+03  0.32752931433E+03  0.00000000000E+00 0.  1.
         23    2    1    2    0    0  0.34793457093E+03  0.88156955134E+02 -0.86659379654E+01  0.37010990844E+03  0.89867299162E+02 0.  0.
         23    2    1    2    0    0 -0.37269902814E+03 -0.83329375787E+02  0.33814428717E+03  0.51848846786E+03  0.92953654617E+02 0.  0.
        -11    1    4    4    0    0 -0.10133584569E+03 -0.37916886464E+02  0.47174821872E+02  0.11803434974E+03  0.00000000000E+00 0.  1.
         11    1    4    4    0    0 -0.27136318245E+03 -0.45412489324E+02  0.29096946530E+03  0.40045411812E+03  0.00000000000E+00 0. -1.
        -13    1    3    3    0    0  0.10685360642E+03  0.55878146857E+02  0.28891478357E+02  0.12399507258E+03  0.00000000000E+00 0. -1.
         13    1    3    3    0    0  0.24108096451E+03  0.32278808277E+02 -0.37557416322E+02  0.24611483586E+03  0.00000000000E+00 0.  1.
         21    1    1    2  502  501  0.24764457209E+02 -0.48275793473E+01 -0.44651637961E+02  0.51286963605E+02  0.00000000000E+00 0.  1.
<scales pt_clust_5="13000.00000" pt_clust_6="13000.00000" pt_clust_7="13000.00000" pt_clust_8="13000.00000" pt_clust_9="25.23061"></scales>
<clustering>
<clus scale="   25.231">  2  9  1 -1</clus>
<clus scale="   89.867">  7  8 -1 -1</clus>
<clus scale="   92.954">  5  6 -1 -1</clus>
<clus scale="  385.092">  2  7  1 -1</clus>
<clus scale="  385.824">  1  5  2 -1</clus>
</clustering>
</event>
<event>
 9    1  0.1266593E-005  0.1335373E+03  0.7546771E-02  0.1222361E+00
          3   -1    0    0  502    0  0.00000000000E+00  0.00000000000E+00  0.56378978325E+03  0.56378978325E+03  0.00000000000E+00 0. -1.
         -3   -1    0    0    0  501 -0.00000000000E+00 -0.00000000000E+00 -0.64840478191E+02  0.64840478191E+02  0.00000000000E+00 0.  1.
         23    2    1    2    0    0 -0.13430506485E+03  0.21108913236E+00  0.16725918858E+03  0.23330978482E+03  0.91760146727E+02 0.  0.
         23    2    1    2    0    0  0.83459907414E+02  0.42757912102E+01  0.31952239924E+03  0.34284747906E+03  0.92010824061E+02 0.  0.
        -13    1    3    3    0    0 -0.11231773063E+03  0.35673281764E+02  0.14201178673E+03  0.18454051917E+03  0.00000000000E+00 0.  1.
         13    1    3    3    0    0 -0.21987334225E+02 -0.35462192631E+02  0.25247401852E+02  0.48769265658E+02  0.00000000000E+00 0. -1.
        -13    1    4    4    0    0  0.29897857965E+02  0.37568656965E+01  0.15018480653E+02  0.33668244859E+02  0.00000000000E+00 0.  1.
         13    1    4    4    0    0  0.53562049448E+02  0.51892551376E+00  0.30450391859E+03  0.30917923420E+03  0.00000000000E+00 0. -1.
         21    1    1    2  502  501  0.50845157438E+02 -0.44868803426E+01  0.12167717242E+02  0.52472997561E+02  0.00000000000E+00 0. -1.
<scales pt_clust_5="13000.00000" pt_clust_6="13000.00000" pt_clust_7="13000.00000" pt_clust_8="13000.00000" pt_clust_9="51.04275"></scales>
<clustering>
<clus scale="   51.043">  2  9  1 -1</clus>
<clus scale="   91.760">  5  6 -1 -1</clus>
<clus scale="   92.011">  7  8 -1 -1</clus>
<clus scale="  133.365">  2  5  1 -1</clus>
<clus scale="  133.537">  1  5  2 -1</clus>
</clustering>
</event>
<event>
 9    1  0.1266593E-005  0.1083485E+03  0.7546771E-02  0.1264611E+00
          1   -1    0    0  502    0  0.00000000000E+00  0.00000000000E+00  0.42445246457E+03  0.42445246457E+03  0.00000000000E+00 0. -1.
         -1   -1    0    0    0  501 -0.00000000000E+00 -0.00000000000E+00 -0.70798523139E+02  0.70798523139E+02  0.00000000000E+00 0.  1.
         23    2    1    2    0    0  0.52390377849E+02 -0.47104316644E+02  0.13531981310E+03  0.17752140373E+03  0.90767993405E+02 0.  0.
         23    2    1    2    0    0 -0.46952387339E+02  0.27081686873E+02  0.25518387983E+03  0.27544032259E+03  0.88377680108E+02 0.  0.
        -11    1    3    3    0    0  0.42058513147E+02  0.55374762317E+00  0.10267393593E+02  0.43297165447E+02  0.00000000000E+00 0.  1.
         11    1    3    3    0    0  0.10331864702E+02 -0.47658064267E+02  0.12505241950E+03  0.13422423828E+03  0.00000000000E+00 0. -1.
        -13    1    4    4    0    0 -0.65774363190E+02  0.28506656471E+01  0.21517124673E+03  0.22501790721E+03  0.00000000000E+00 0. -1.
         13    1    4    4    0    0  0.18821975850E+02  0.24231021226E+02  0.40012633104E+02  0.50422415377E+02  0.00000000000E+00 0.  1.
         21    1    1    2  502  501 -0.54379905095E+01  0.20022629771E+02 -0.36849751497E+02  0.42289261393E+02  0.00000000000E+00 0.  1.
<scales pt_clust_5="13000.00000" pt_clust_6="13000.00000" pt_clust_7="13000.00000" pt_clust_8="13000.00000" pt_clust_9="20.74795"></scales>
<clustering>
<clus scale="   20.748">  2  9  1 -1</clus>
<clus scale="   88.378">  7  8 -1 -1</clus>
<clus scale="   90.768">  5  6 -1 -1</clus>
<clus scale="  106.354">  1  7  2 -1</clus>
<clus scale="  106.354">  1  5  2 -1</clus>
</clustering>
</event>
<event>
 9    1  0.1266593E-005  0.1447968E+03  0.7546771E-02  0.1207326E+00
         -1   -1    0    0    0  501 -0.00000000000E+00  0.00000000000E+00  0.21032385056E+03  0.21032385056E+03  0.00000000000E+00 0.  1.
          1   -1    0    0  502    0  0.00000000000E+00 -0.00000000000E+00 -0.42952202200E+03  0.42952202200E+03  0.00000000000E+00 0. -1.
         23    2    1    2    0    0  0.61254778763E+02  0.78884392458E+02  0.73069081381E+02  0.15333941301E+03  0.90548272401E+02 0.  0.
         23    2    1    2    0    0 -0.43905643666E+02 -0.10476479216E+03 -0.37264336292E+03  0.40030259275E+03  0.92063687808E+02 0.  0.
        -13    1    4    4    0    0 -0.58957003511E+02 -0.34987900988E+02 -0.24088091049E+03  0.25044698944E+03  0.00000000000E+00 0.  1.
         13    1    4    4    0    0  0.15051359845E+02 -0.69776891171E+02 -0.13176245243E+03  0.14985560331E+03  0.00000000000E+00 0. -1.
        -13    1    3    3    0    0  0.57954881154E+02  0.57282777797E+02  0.93079909626E+02  0.12370915268E+03  0.00000000000E+00 0.  1.
         13    1    3    3    0    0  0.32998976088E+01  0.21601614661E+02 -0.20010828245E+02  0.29630260330E+02  0.00000000000E+00 0. -1.
         21    1    1    2  502  501 -0.17349135097E+02  0.25880399701E+02  0.80376110095E+02  0.86203866800E+02  0.00000000000E+00 0.  1.
<scales pt_clust_5="13000.00000" pt_clust_6="13000.00000" pt_clust_7="13000.00000" pt_clust_8="13000.00000" pt_clust_9="31.15746"></scales>
<clustering>
<clus scale="   31.157">  1  9  2 -1</clus>
<clus scale="   90.548">  7  8 -1 -1</clus>
<clus scale="   92.064">  5  6 -1 -1</clus>
<clus scale="  143.838">  1  7  2 -1</clus>
<clus scale="  144.797">  2  5  1 -1</clus>
</clustering>
</event>
<event>
 9    1  0.1266593E-005  0.1016408E+03  0.7546771E-02  0.1279025E+00
         -1   -1    0    0    0  501 -0.00000000000E+00  0.00000000000E+00  0.71987393641E+02  0.71987393641E+02  0.00000000000E+00 0.  1.
          1   -1    0    0  502    0  0.00000000000E+00 -0.00000000000E+00 -0.35003430963E+03  0.35003430963E+03  0.00000000000E+00 0. -1.
         23    2    1    2    0    0  0.44803549008E+01  0.30203549603E+02 -0.27204034058E+02  0.95965555271E+02  0.86815899124E+02 0.  0.
         23    2    1    2    0    0  0.55166992681E+02 -0.15454695599E+02 -0.24073300363E+03  0.26378621620E+03  0.91370367841E+02 0.  0.
        -11    1    4    4    0    0  0.51208117161E+02  0.28700814611E+02 -0.97083384644E+02  0.11345127411E+03  0.00000000000E+00 0.  1.
         11    1    4    4    0    0  0.39588755196E+01 -0.44155510211E+02 -0.14364961899E+03  0.15033494209E+03  0.00000000000E+00 0. -1.
        -11    1    3    3    0    0 -0.21727692528E+02  0.51550169392E+02 -0.64783331751E+01  0.56315907057E+02  0.00000000000E+00 0.  1.
         11    1    3    3    0    0  0.26208047429E+02 -0.21346619788E+02 -0.20725700883E+02  0.39649648214E+02  0.00000000000E+00 0. -1.
         21    1    1    2  502  501 -0.59647347581E+02 -0.14748854004E+02 -0.10109878301E+02  0.62269931806E+02  0.00000000000E+00 0.  1.
<scales pt_clust_5="13000.00000" pt_clust_6="13000.00000" pt_clust_7="13000.00000" pt_clust_8="13000.00000" pt_clust_9="61.44375"></scales>
<clustering>
<clus scale="   61.444">  1  9  2 -1</clus>
<clus scale="   86.816">  7  8 -1 -1</clus>
<clus scale="   91.370">  5  6 -1 -1</clus>
<clus scale="   97.567">  1  7  2 -1</clus>
<clus scale="  101.641">  2  5  1 -1</clus>
</clustering>
</event>
<event>
 9    1  0.1266593E-005  0.2478707E+03  0.7546771E-02  0.1114799E+00
         -2   -1    0    0    0  501 -0.00000000000E+00  0.00000000000E+00  0.19344843519E+03  0.19344843519E+03  0.00000000000E+00 0.  1.
          2   -1    0    0  502    0  0.00000000000E+00 -0.00000000000E+00 -0.39583563466E+03  0.39583563466E+03  0.00000000000E+00 0. -1.
         23    2    1    2    0    0  0.32550477457E+02  0.22791152207E+03 -0.44239338516E+02  0.25240429391E+03  0.93528674951E+02 0.  0.
         23    2    1    2    0    0  0.11462937081E+02 -0.23049659394E+03 -0.15524284351E+03  0.29269490995E+03  0.91158604139E+02 0.  0.
        -11    1    3    3    0    0  0.24117011231E+02  0.31019177693E+02 -0.38853692229E+02  0.55257841211E+02  0.00000000000E+00 0. -1.
         11    1    3    3    0    0  0.84334662257E+01  0.19689234437E+03 -0.53856462864E+01  0.19714645270E+03  0.00000000000E+00 0.  1.
        -13    1    4    4    0    0  0.15912423776E+02 -0.16652198216E+02  0.71778813150E+01  0.24125151109E+02  0.00000000000E+00 0.  1.
         13    1    4    4    0    0 -0.44494866949E+01 -0.21384439572E+03 -0.16242072482E+03  0.26856975884E+03  0.00000000000E+00 0. -1.
         21    1    1    2  502  501 -0.44013414538E+02  0.25850718689E+01 -0.29050174489E+01  0.44184865987E+02  0.00000000000E+00 0. -1.
<scales pt_clust_5="13000.00000" pt_clust_6="13000.00000" pt_clust_7="13000.00000" pt_clust_8="13000.00000" pt_clust_9="44.08926"></scales>
<clustering>
<clus scale="   44.089">  1  9  2 -1</clus>
<clus scale="   91.159">  7  8 -1 -1</clus>
<clus scale="   93.529">  5  6 -1 -1</clus>
<clus scale="  246.986">  2  7  1 -1</clus>
<clus scale="  246.986">  2  5  1 -1</clus>
</clustering>
</event>
<event>
 9    1  0.1266593E-005  0.1486989E+03  0.7546771E-02  0.1208110E+00
         -1   -1    0    0    0  501 -0.00000000000E+00  0.00000000000E+00  0.21415757373E+03  0.21415757373E+03  0.00000000000E+00 0.  1.
          1   -1    0    0  502    0  0.00000000000E+00 -0.00000000000E+00 -0.14244465702E+03  0.14244465702E+03  0.00000000000E+00 0. -1.
         23    2    1    2    0    0  0.11787042690E+02  0.10643191816E+03  0.64725821014E+02  0.15473608435E+03  0.91033709776E+02 0.  0.
         23    2    1    2    0    0  0.24982400531E+02 -0.85353758264E+02 -0.26095384024E+02  0.14810062545E+03  0.11551381651E+03 0.  0.
        -11    1    3    3    0    0 -0.11966299346E+02  0.10422606720E+03  0.74794374941E+02  0.12884278764E+03  0.00000000000E+00 0. -1.
         11    1    3    3    0    0  0.23753342036E+02  0.22058509583E+01 -0.10068553926E+02  0.25893296710E+02  0.00000000000E+00 0.  1.
        -13    1    4    4    0    0 -0.25622816379E+02  0.73218366211E+01  0.19564769256E+02  0.33059313465E+02  0.00000000000E+00 0. -1.
         13    1    4    4    0    0  0.50605216910E+02 -0.92675594885E+02 -0.45660153280E+02  0.11504131199E+03  0.00000000000E+00 0.  1.
         21    1    1    2  502  501 -0.36769443221E+02 -0.21078159891E+02  0.33082479715E+02  0.53765520952E+02  0.00000000000E+00 0. -1.
<scales pt_clust_5="13000.00000" pt_clust_6="13000.00000" pt_clust_7="13000.00000" pt_clust_8="13000.00000" pt_clust_9="42.38255"></scales>
<clustering>
<clus scale="   42.383">  1  9  2 -1</clus>
<clus scale="   91.034">  5  6 -1 -1</clus>
<clus scale="  115.514">  7  8 -1 -1</clus>
<clus scale="  130.595">  1  5  2 -1</clus>
<clus scale="  148.699">  2  5  1 -1</clus>
</clustering>
</event>
<event>
 9    1  0.1266593E-005  0.1932856E+03  0.7546771E-02  0.1155762E+00
         -2   -1    0    0    0  501 -0.00000000000E+00  0.00000000000E+00  0.15866452306E+03  0.15866452306E+03  0.00000000000E+00 0.  1.
          2   -1    0    0  502    0  0.00000000000E+00 -0.00000000000E+00 -0.72487689944E+03  0.72487689944E+03  0.00000000000E+00 0. -1.
         23    2    1    2    0    0 -0.17842680543E+03  0.12365183661E+03  0.10218959878E+02  0.23461361441E+03  0.88392416718E+02 0.  0.
         23    2    1    2    0    0  0.14880469092E+03 -0.71530073993E+02 -0.55362051565E+03  0.58478358509E+03  0.90646447923E+02 0.  0.
        -13    1    4    4    0    0  0.10176566517E+03 -0.47561538778E+01 -0.24055675872E+03  0.26124016875E+03  0.00000000000E+00 0.  1.
         13    1    4    4    0    0  0.47039025754E+02 -0.66773920115E+02 -0.31306375693E+03  0.32354341634E+03  0.00000000000E+00 0. -1.
        -13    1    3    3    0    0 -0.13679730868E+03  0.13118068909E+03  0.21725708007E+02  0.19077180934E+03  0.00000000000E+00 0.  1.
         13    1    3    3    0    0 -0.41629496747E+02 -0.75288524768E+01 -0.11506748129E+02  0.43841805067E+02  0.00000000000E+00 0. -1.
         21    1    1    2  502  501  0.29622114509E+02 -0.52121762616E+02 -0.22810820611E+02  0.64144222991E+02  0.00000000000E+00 0. -1.
<scales pt_clust_5="13000.00000" pt_clust_6="13000.00000" pt_clust_7="13000.00000" pt_clust_8="13000.00000" pt_clust_9="59.95121"></scales>
<clustering>
<clus scale="   59.951">  1  9  2 -1</clus>
<clus scale="   88.392">  7  8 -1 -1</clus>
<clus scale="   90.646">  5  6 -1 -1</clus>
<clus scale="  192.239">  1  7  2 -1</clus>
<clus scale="  193.286">  2  5  1 -1</clus>
</clustering>
</event>
<event>
 9    1  0.1266593E-005  0.1285405E+03  0.7546771E-02  0.1230437E+00
         -2   -1    0    0    0  501 -0.00000000000E+00  0.00000000000E+00  0.37592115294E+02  0.37592115294E+02  0.00000000000E+00 0. -1.
          2   -1    0    0  502    0  0.00000000000E+00 -0.00000000000E+00 -0.88466177336E+03  0.88466177336E+03  0.00000000000E+00 0.  1.
         23    2    1    2    0    0 -0.47397281533E+02  0.39859606793E+02 -0.10732685912E+03  0.15146168965E+03  0.87099358175E+02 0.  0.
         23    2    1    2    0    0  0.80636198694E+02 -0.59552515809E+02 -0.70820361786E+03  0.72091879704E+03  0.90126848899E+02 0.  0.
        -11    1    3    3    0    0 -0.67825099650E+02  0.70827395136E+01 -0.66139900782E+02  0.94999451666E+02  0.00000000000E+00 0. -1.
         11    1    3    3    0    0  0.20427818116E+02  0.32776867280E+02 -0.41186958334E+02  0.56462237987E+02  0.00000000000E+00 0.  1.
        -13    1    4    4    0    0  0.76185724922E+02 -0.80983133065E+02 -0.62875561660E+03  0.63851089101E+03  0.00000000000E+00 0.  1.
         13    1    4    4    0    0  0.44504737723E+01  0.21430617256E+02 -0.79448001255E+02  0.82407906030E+02  0.00000000000E+00 0. -1.
         21    1    1    2  502  501 -0.33238917161E+02  0.19692909016E+02 -0.31539181087E+02  0.49873401961E+02  0.00000000000E+00 0. -1.
<scales pt_clust_5="13000.00000" pt_clust_6="13000.00000" pt_clust_7="13000.00000" pt_clust_8="13000.00000" pt_clust_9="38.63465"></scales>
<clustering>
<clus scale="   38.635">  1  9  2 -1</clus>
<clus scale="   87.099">  5  6 -1 -1</clus>
<clus scale="   90.127">  7  8 -1 -1</clus>
<clus scale="  126.436">  1  5  2 -1</clus>
<clus scale="  128.541">  2  5  1 -1</clus>
</clustering>
</event>
<event>
 9    1  0.1266593E-005  0.1078560E+03  0.7546771E-02  0.1267034E+00
          1   -1    0    0  502    0  0.00000000000E+00  0.00000000000E+00  0.30785331652E+03  0.30785331652E+03  0.00000000000E+00 0. -1.
         -1   -1    0    0    0  501 -0.00000000000E+00 -0.00000000000E+00 -0.70052566967E+02  0.70052566967E+02  0.00000000000E+00 0.  1.
         23    2    1    2    0    0 -0.33551043844E+02 -0.58974561126E+02  0.23743366905E+02  0.11640730619E+03  0.91560046196E+02 0.  0.
         23    2    1    2    0    0  0.67729646143E+01  0.41176523522E+02  0.20036265163E+03  0.22655031086E+03  0.97151798953E+02 0.  0.
        -11    1    4    4    0    0  0.26967785591E+02  0.54401133292E+02  0.19140064118E+03  0.20080077243E+03  0.00000000000E+00 0. -1.
         11    1    4    4    0    0 -0.20194820976E+02 -0.13224609770E+02  0.89620104519E+01  0.25749538426E+02  0.00000000000E+00 0.  1.
        -11    1    3    3    0    0 -0.47394936061E+02 -0.15570504954E+02 -0.19529336305E+02  0.53573459523E+02  0.00000000000E+00 0.  1.
         11    1    3    3    0    0  0.13843892217E+02 -0.43404056172E+02  0.43272703210E+02  0.62833846668E+02  0.00000000000E+00 0. -1.
         21    1    1    2  502  501  0.26778079229E+02  0.17798037604E+02  0.13694731015E+02  0.34948266443E+02  0.00000000000E+00 0. -1.
<scales pt_clust_5="13000.00000" pt_clust_6="13000.00000" pt_clust_7="13000.00000" pt_clust_8="13000.00000" pt_clust_9="32.15332"></scales>
<clustering>
<clus scale="   32.153">  2  9  1 -1</clus>
<clus scale="   91.560">  7  8 -1 -1</clus>
<clus scale="   97.152">  5  6 -1 -1</clus>
<clus scale="  102.848">  2  7  1 -1</clus>
<clus scale="  107.856">  1  5  2 -1</clus>
</clustering>
</event>
<event>
 9    1  0.1266593E-005  0.9765406E+02  0.7546771E-02  0.1287545E+00
          1   -1    0    0  502    0  0.00000000000E+00  0.00000000000E+00  0.36312244493E+02  0.36312244493E+02  0.00000000000E+00 0. -1.
         -1   -1    0    0    0  501 -0.00000000000E+00 -0.00000000000E+00 -0.38407083625E+03  0.38407083625E+03  0.00000000000E+00 0.  1.
         23    2    1    2    0    0 -0.19739068031E+02  0.11500043631E+02 -0.14088940936E+03  0.17138629880E+03  0.94876529946E+02 0.  0.
         23    2    1    2    0    0 -0.13116995559E+02 -0.33777753807E+02 -0.13155496469E+03  0.16386130947E+03  0.90723909648E+02 0.  0.
        -11    1    4    4    0    0  0.29510074185E+01 -0.57747228371E+02 -0.46990325320E+02  0.74508667302E+02  0.00000000000E+00 0.  1.
         11    1    4    4    0    0 -0.16068002978E+02  0.23969474565E+02 -0.84564639371E+02  0.89352642169E+02  0.00000000000E+00 0. -1.
        -11    1    3    3    0    0 -0.53729819346E+02  0.26223693015E+02 -0.76371631067E+02  0.96990729424E+02  0.00000000000E+00 0. -1.
         11    1    3    3    0    0  0.33990751315E+02 -0.14723649384E+02 -0.64517778296E+02  0.74395569374E+02  0.00000000000E+00 0.  1.
         21    1    1    2  502  501  0.32856063590E+02  0.22277710175E+02 -0.75314217702E+02  0.85135472474E+02  0.00000000000E+00 0.  1.
<scales pt_clust_5="13000.00000" pt_clust_6="13000.00000" pt_clust_7="13000.00000" pt_clust_8="13000.00000" pt_clust_9="39.69657"></scales>
<clustering>
<clus scale="   39.697">  2  9  1 -1</clus>
<clus scale="   90.724">  5  6 -1 -1</clus>
<clus scale="   93.625">  1  5  2 -1</clus>
<clus scale="   94.877">  7  8 -1 -1</clus>
<clus scale="   93.625">  1  5  2 -1</clus>
</clustering>
</event>
<event>
 9    1  0.1266593E-005  0.1364971E+03  0.7546771E-02  0.1236994E+00
          1   -1    0    0  502    0  0.00000000000E+00  0.00000000000E+00  0.86325649323E+03  0.86325649323E+03  0.00000000000E+00 0. -1.
         -1   -1    0    0    0  501 -0.00000000000E+00 -0.00000000000E+00 -0.34154010213E+02  0.34154010213E+02  0.00000000000E+00 0.  1.
         23    2    1    2    0    0 -0.18462963334E+00 -0.20368102793E+01  0.13528024931E+03  0.16376566878E+03  0.92272778931E+02 0.  0.
         23    2    1    2    0    0 -0.53582881307E+02 -0.83738249871E+02  0.43596605088E+03  0.45662837812E+03  0.92519503478E+02 0.  0.
        -11    1    3    3    0    0 -0.19702962304E+02 -0.21926211716E+02  0.13252404620E+03  0.13576298577E+03  0.00000000000E+00 0. -1.
         11    1    3    3    0    0  0.19518332671E+02  0.19889401437E+02  0.27562031068E+01  0.28002683002E+02  0.00000000000E+00 0.  1.
        -13    1    4    4    0    0 -0.72028087652E+02 -0.46373319875E+02  0.20910587582E+03  0.22597300172E+03  0.00000000000E+00 0.  1.
         13    1    4    4    0    0  0.18445206345E+02 -0.37364929996E+02  0.22686017506E+03  0.23065537640E+03  0.00000000000E+00 0. -1.
         21    1    1    2  502  501  0.53767510940E+02  0.85775060150E+02  0.25785618283E+03  0.27701645655E+03  0.00000000000E+00 0.  1.
<scales pt_clust_5="13000.00000" pt_clust_6="13000.00000" pt_clust_7="13000.00000" pt_clust_8="13000.00000" pt_clust_9="100.35738"></scales>
<clustering>
<clus scale="   92.273">  5  6 -1 -1</clus>
<clus scale="   92.295">  2  5  1 -1</clus>
<clus scale="   92.520">  7  8 -1 -1</clus>
<clus scale="  100.357">  2  9  1 -1</clus>
<clus scale="  136.497">  1  5  2 -1</clus>
</clustering>
</event>
<event>
 9    1  0.1266593E-005  0.1253883E+03  0.7546771E-02  0.1234970E+00
          2   -1    0    0  502    0  0.00000000000E+00  0.00000000000E+00  0.48712476147E+03  0.48712476147E+03  0.00000000000E+00 0. -1.
         -2   -1    0    0    0  501 -0.00000000000E+00 -0.00000000000E+00 -0.46722333127E+02  0.46722333127E+02  0.00000000000E+00 0.  1.
         23    2    1    2    0    0 -0.98781266860E+02 -0.33466057157E+02  0.16533862849E+03  0.21568024778E+03  0.91122947424E+02 0.  0.
         23    2    1    2    0    0  0.53697864936E+02  0.44339310549E+02  0.18672796897E+03  0.21839731346E+03  0.89334298971E+02 0.  0.
        -11    1    4    4    0    0  0.70163280891E+02  0.76365865297E+01  0.96006298085E+02  0.11915709258E+03  0.00000000000E+00 0. -1.
         11    1    4    4    0    0 -0.16465415955E+02  0.36702724020E+02  0.90721670889E+02  0.99240220888E+02  0.00000000000E+00 0.  1.
        -11    1    3    3    0    0 -0.82395914850E+02 -0.46138792608E+02  0.16998158011E+03  0.19445208290E+03  0.00000000000E+00 0. -1.
         11    1    3    3    0    0 -0.16385352010E+02  0.12672735450E+02 -0.46429516234E+01  0.21228164878E+02  0.00000000000E+00 0.  1.
         21    1    1    2  502  501  0.45083401924E+02 -0.10873253392E+02  0.88335830881E+02  0.99769533354E+02  0.00000000000E+00 0. -1.
<scales pt_clust_5="13000.00000" pt_clust_6="13000.00000" pt_clust_7="13000.00000" pt_clust_8="13000.00000" pt_clust_9="46.37608"></scales>
<clustering>
<clus scale="   46.376">  1  9  2 -1</clus>
<clus scale="   89.334">  5  6 -1 -1</clus>
<clus scale="   91.123">  7  8 -1 -1</clus>
<clus scale="  124.094">  1  5  2 -1</clus>
<clus scale="   46.376">  1  5  2 -1</clus>
</clustering>
</event>
<event>
 9    1  0.1266593E-005  0.1379120E+03  0.7546771E-02  0.1216995E+00
          2   -1    0    0  502    0  0.00000000000E+00  0.00000000000E+00  0.45956363313E+03  0.45956363313E+03  0.00000000000E+00 0. -1.
         -2   -1    0    0    0  501 -0.00000000000E+00 -0.00000000000E+00 -0.13564970710E+03  0.13564970710E+03  0.00000000000E+00 0.  1.
         23    2    1    2    0    0  0.11399388692E+03  0.33342603003E+02 -0.69997877279E+00  0.14875088264E+03  0.89554450948E+02 0.  0.
         23    2    1    2    0    0 -0.90288294289E+02 -0.40877850703E+02  0.37027660733E+03  0.39446421261E+03  0.93135784331E+02 0.  0.
        -13    1    3    3    0    0  0.10095546625E+03  0.10813165954E+02 -0.33463839101E+02  0.10690537522E+03  0.00000000000E+00 0.  1.
         13    1    3    3    0    0  0.13038420672E+02  0.22529437049E+02  0.32763860328E+02  0.41845507417E+02  0.00000000000E+00 0. -1.
        -13    1    4    4    0    0  0.19548553919E+02 -0.81776576908E+01  0.50155054106E+02  0.54447676700E+02  0.00000000000E+00 0.  1.
         13    1    4    4    0    0 -0.10983684821E+03 -0.32700193012E+02  0.32012155323E+03  0.34001653591E+03  0.00000000000E+00 0. -1.
         21    1    1    2  502  501 -0.23705592634E+02  0.75352477002E+01 -0.45662702525E+02  0.51998244989E+02  0.00000000000E+00 0. -1.
<scales pt_clust_5="13000.00000" pt_clust_6="13000.00000" pt_clust_7="13000.00000" pt_clust_8="13000.00000" pt_clust_9="24.87439"></scales>
<clustering>
<clus scale="   24.874">  2  9  1 -1</clus>
<clus scale="   89.554">  5  6 -1 -1</clus>
<clus scale="   93.136">  7  8 -1 -1</clus>
<clus scale="  135.519">  2  5  1 -1</clus>
<clus scale="  137.912">  1  5  2 -1</clus>
</clustering>
</event>
<event>
 9    1  0.1266593E-005  0.1156994E+03  0.7546771E-02  0.1250783E+00
          1   -1    0    0  502    0  0.00000000000E+00  0.00000000000E+00  0.27540094818E+03  0.27540094818E+03  0.00000000000E+00 0. -1.
         -1   -1    0    0    0  501 -0.00000000000E+00 -0.00000000000E+00 -0.43556324325E+03  0.43556324325E+03  0.00000000000E+00 0.  1.
         23    2    1    2    0    0  0.55675650041E+02 -0.14613088507E+02 -0.35828316756E+03  0.37406036055E+03  0.90779980243E+02 0.  0.
         23    2    1    2    0    0 -0.59984707812E+02  0.37408008384E+02  0.25244781313E+03  0.27783105517E+03  0.91992785610E+02 0.  0.
        -13    1    4    4    0    0 -0.68444257305E+02  0.60371440202E+02  0.19081812915E+03  0.21152041406E+03  0.00000000000E+00 0. -1.
         13    1    4    4    0    0  0.84595494931E+01 -0.22963431818E+02  0.61629683974E+02  0.66310641116E+02  0.00000000000E+00 0.  1.
        -13    1    3    3    0    0  0.33317421770E+02  0.34195173297E+02 -0.10796547438E+03  0.11805043044E+03  0.00000000000E+00 0. -1.
         13    1    3    3    0    0  0.22358228271E+02 -0.48808261805E+02 -0.25031769318E+03  0.25600993010E+03  0.00000000000E+00 0.  1.
         21    1    1    2  502  501  0.43090577712E+01 -0.22794919877E+02 -0.54326940635E+02  0.59072775708E+02  0.00000000000E+00 0.  1.
<scales pt_clust_5="13000.00000" pt_clust_6="13000.00000" pt_clust_7="13000.00000" pt_clust_8="13000.00000" pt_clust_9="23.19863"></scales>
<clustering>
<clus scale="   23.199">  2  9  1 -1</clus>
<clus scale="   90.780">  7  8 -1 -1</clus>
<clus scale="   91.993">  5  6 -1 -1</clus>
<clus scale="  114.737">  2  7  1 -1</clus>
<clus scale="  115.699">  1  5  2 -1</clus>
</clustering>
</event>
<event>
 9    1  0.1266593E-005  0.1407287E+03  0.7546771E-02  0.1215120E+00
         -2   -1    0    0    0  501 -0.00000000000E+00  0.00000000000E+00  0.79334434618E+02  0.79334434618E+02  0.00000000000E+00 0.  1.
          2   -1    0    0  502    0  0.00000000000E+00 -0.00000000000E+00 -0.33226813423E+03  0.33226813423E+03  0.00000000000E+00 0. -1.
         23    2    1    2    0    0  0.11330562699E+03 -0.57683111814E+02 -0.10156811701E+03  0.18090836632E+03  0.79033208935E+02 0.  0.
         23    2    1    2    0    0 -0.80390662887E+02  0.48024682500E+02 -0.14547233104E+03  0.19588887919E+03  0.91876139900E+02 0.  0.
        -11    1    4    4    0    0 -0.58565307267E+02 -0.66420362801E+01 -0.11587543535E+03  0.13000433985E+03  0.00000000000E+00 0.  1.
         11    1    4    4    0    0 -0.21825355620E+02  0.54666718780E+02 -0.29596895695E+02  0.65884539346E+02  0.00000000000E+00 0. -1.
        -13    1    3    3    0    0  0.62717558515E+02  0.36235994427E+01 -0.17499429691E+02  0.65213899274E+02  0.00000000000E+00 0.  1.
         13    1    3    3    0    0  0.50588068476E+02 -0.61306711257E+02 -0.84068687316E+02  0.11569446704E+03  0.00000000000E+00 0. -1.
         21    1    1    2  502  501 -0.32914964104E+02  0.96584293142E+01 -0.58932515591E+01  0.34805323339E+02  0.00000000000E+00 0. -1.
<scales pt_clust_5="13000.00000" pt_clust_6="13000.00000" pt_clust_7="13000.00000" pt_clust_8="13000.00000" pt_clust_9="34.30277"></scales>
<clustering>
<clus scale="   34.303">  1  9  2 -1</clus>
<clus scale="   79.033">  7  8 -1 -1</clus>
<clus scale="   91.876">  5  6 -1 -1</clus>
<clus scale="  132.701">  1  7  2 -1</clus>
<clus scale="  140.729">  2  5  1 -1</clus>
</clustering>
</event>
<event>
 9    1  0.1266593E-005  0.9862177E+02  0.7546771E-02  0.1285297E+00
         -2   -1    0    0    0  501 -0.00000000000E+00  0.00000000000E+00  0.50521475321E+02  0.50521475321E+02  0.00000000000E+00 0.  1.
          2   -1    0    0  502    0  0.00000000000E+00 -0.00000000000E+00 -0.27920095838E+03  0.27920095838E+03  0.00000000000E+00 0. -1.
         23    2    1    2    0    0 -0.53908216583E+02  0.99252937318E+00 -0.71158577335E+02  0.12882434732E+03  0.92871354059E+02 0.  0.
         23    2    1    2    0    0  0.22829778121E+02 -0.28145019671E+00 -0.13168123253E+03  0.16047453283E+03  0.88830460447E+02 0.  0.
        -11    1    3    3    0    0 -0.56396548299E+02 -0.31880806308E+02 -0.70645862332E+02  0.95852982925E+02  0.00000000000E+00 0. -1.
         11    1    3    3    0    0  0.24883317157E+01  0.32873335681E+02 -0.51271500244E+00  0.32971364397E+02  0.00000000000E+00 0.  1.
        -11    1    4    4    0    0 -0.85151659080E+01 -0.40092283440E+02 -0.61815336638E+02  0.74168963088E+02  0.00000000000E+00 0.  1.
         11    1    4    4    0    0  0.31344944029E+02  0.39810833243E+02 -0.69865895892E+02  0.86305569742E+02  0.00000000000E+00 0. -1.
         21    1    1    2  502  501  0.31078438463E+02 -0.71107917647E+00 -0.25839673198E+02  0.40423553553E+02  0.00000000000E+00 0.  1.
<scales pt_clust_5="13000.00000" pt_clust_6="13000.00000" pt_clust_7="13000.00000" pt_clust_8="13000.00000" pt_clust_9="31.08657"></scales>
<clustering>
<clus scale="   31.087">  1  9  2 -1</clus>
<clus scale="   88.830">  7  8 -1 -1</clus>
<clus scale="   92.871">  5  6 -1 -1</clus>
<clus scale="   94.826">  2  7  1 -1</clus>
<clus scale="   94.826">  2  5  1 -1</clus>
</clustering>
</event>
<event>
 9    1  0.1266593E-005  0.9921369E+02  0.7546771E-02  0.1283391E+00
          3   -1    0    0  502    0  0.00000000000E+00  0.00000000000E+00  0.14672682731E+03  0.14672682731E+03  0.00000000000E+00 0. -1.
         -3   -1    0    0    0  501 -0.00000000000E+00 -0.00000000000E+00 -0.10609889993E+03  0.10609889993E+03  0.00000000000E+00 0.  1.
         23    2    1    2    0    0  0.19124301184E+02  0.39864673066E+02 -0.10055813284E+02  0.10074354401E+03  0.89962276669E+02 0.  0.
         23    2    1    2    0    0 -0.25857765742E+02 -0.19450997780E+02  0.71977888541E+02  0.12182497885E+03  0.92809178794E+02 0.  0.
        -11    1    3    3    0    0  0.42484028409E+02  0.23831075591E+02 -0.37365127598E+02  0.61391901698E+02  0.00000000000E+00 0.  1.
         11    1    3    3    0    0 -0.23359727225E+02  0.16033597475E+02  0.27309314314E+02  0.39351642307E+02  0.00000000000E+00 0. -1.
        -13    1    4    4    0    0 -0.54110374131E+02 -0.33226082975E+02  0.62252573067E+02  0.88922933105E+02  0.00000000000E+00 0. -1.
         13    1    4    4    0    0  0.28252608390E+02  0.13775085195E+02  0.97253154744E+01  0.32902045742E+02  0.00000000000E+00 0.  1.
         21    1    1    2  502  501  0.67334645577E+01 -0.20413675286E+02 -0.21294147882E+02  0.30257204392E+02  0.00000000000E+00 0.  1.
<scales pt_clust_5="13000.00000" pt_clust_6="13000.00000" pt_clust_7="13000.00000" pt_clust_8="13000.00000" pt_clust_9="21.49553"></scales>
<clustering>
<clus scale="   21.496">  2  9  1 -1</clus>
<clus scale="   89.962">  5  6 -1 -1</clus>
<clus scale="   92.809">  7  8 -1 -1</clus>
<clus scale="   96.556">  2  5  1 -1</clus>
<clus scale="   99.214">  1  5  2 -1</clus>
</clustering>
</event>
<event>
 9    1  0.1266593E-005  0.1831662E+03  0.7546771E-02  0.1165131E+00
          1   -1    0    0  502    0  0.00000000000E+00  0.00000000000E+00  0.58903413071E+03  0.58903413071E+03  0.00000000000E+00 0. -1.
         -1   -1    0    0    0  501 -0.00000000000E+00 -0.00000000000E+00 -0.69733411671E+02  0.69733411671E+02  0.00000000000E+00 0.  1.
         23    2    1    2    0    0  0.11898601339E+03 -0.85052527274E+02  0.17435740042E+03  0.24432683373E+03  0.88901601895E+02 0.  0.
         23    2    1    2    0    0 -0.14947333604E+03  0.77170566606E+02  0.32450583565E+03  0.37690015916E+03  0.91935401609E+02 0.  0.
        -11    1    3    3    0    0  0.81656939180E+02 -0.23715776019E+02  0.44576398064E+02  0.96007025851E+02  0.00000000000E+00 0.  1.
         11    1    3    3    0    0  0.37329074215E+02 -0.61336751255E+02  0.12978100236E+03  0.14831980788E+03  0.00000000000E+00 0. -1.
        -11    1    4    4    0    0 -0.27682707641E+02 -0.15488153149E+02  0.10223429374E+03  0.10704235613E+03  0.00000000000E+00 0.  1.
         11    1    4    4    0    0 -0.12179062840E+03  0.92658719756E+02  0.22227154191E+03  0.26985780303E+03  0.00000000000E+00 0. -1.
         21    1    1    2  502  501  0.30487322642E+02  0.78819606673E+01  0.20437482962E+02  0.37540549485E+02  0.00000000000E+00 0.  1.
<scales pt_clust_5="13000.00000" pt_clust_6="13000.00000" pt_clust_7="13000.00000" pt_clust_8="13000.00000" pt_clust_9="31.48971"></scales>
<clustering>
<clus scale="   31.490">  2  9  1 -1</clus>
<clus scale="   88.902">  5  6 -1 -1</clus>
<clus scale="   91.935">  7  8 -1 -1</clus>
<clus scale="  181.662">  2  5  1 -1</clus>
<clus scale="  183.166">  1  5  2 -1</clus>
</clustering>
</event>
<event>
 9    1  0.1266593E-005  0.1072636E+03  0.7546771E-02  0.1268670E+00
          1   -1    0    0  502    0  0.00000000000E+00  0.00000000000E+00  0.23728325235E+03  0.23728325235E+03  0.00000000000E+00 0. -1.
         -1   -1    0    0    0  501 -0.00000000000E+00 -0.00000000000E+00 -0.19689948378E+03  0.19689948378E+03  0.00000000000E+00 0.  1.
         23    2    1    2    0    0  0.32471743632E+02 -0.30139439118E+01 -0.12823541730E+03  0.15902634020E+03  0.88213131887E+02 0.  0.
         23    2    1    2    0    0 -0.51185885531E+02 -0.50263645827E+01  0.20598624460E+03  0.23259863816E+03  0.95008074891E+02 0.  0.
        -11    1    4    4    0    0 -0.88958069284E+01 -0.34951883761E+02  0.15772207569E+03  0.16179314793E+03  0.00000000000E+00 0.  1.
         11    1    4    4    0    0 -0.42290078603E+02  0.29925519178E+02  0.48264168910E+02  0.70805490231E+02  0.00000000000E+00 0. -1.
        -13    1    3    3    0    0  0.19455907087E+02 -0.30051964375E+02 -0.12357817553E+03  0.12865931117E+03  0.00000000000E+00 0.  1.
         13    1    3    3    0    0  0.13015836545E+02  0.27038020463E+02 -0.46572417662E+01  0.30367029035E+02  0.00000000000E+00 0. -1.
         21    1    1    2  502  501  0.18714141900E+02  0.80403084945E+01 -0.37367058725E+02  0.42557757759E+02  0.00000000000E+00 0.  1.
<scales pt_clust_5="13000.00000" pt_clust_6="13000.00000" pt_clust_7="13000.00000" pt_clust_8="13000.00000" pt_clust_9="20.36825"></scales>
<clustering>
<clus scale="   20.368">  2  9  1 -1</clus>
<clus scale="   88.213">  7  8 -1 -1</clus>
<clus scale="   95.008">  5  6 -1 -1</clus>
<clus scale="  101.294">  2  7  1 -1</clus>
<clus scale="  107.264">  1  5  2 -1</clus>
</clustering>
</event>
<event>
 9    1  0.1266593E-005  0.9875229E+02  0.7546771E-02  0.1283604E+00
          1   -1    0    0  502    0  0.00000000000E+00  0.00000000000E+00  0.92928080415E+02  0.92928080415E+02  0.00000000000E+00 0. -1.
         -1   -1    0    0    0  501 -0.00000000000E+00 -0.00000000000E+00 -0.13929658418E+03  0.13929658418E+03  0.00000000000E+00 0.  1.
         23    2    1    2    0    0  0.25916500993E+02 -0.12211565273E+02 -0.41012755259E+02  0.10594090642E+03  0.93384378830E+02 0.  0.
         23    2    1    2    0    0 -0.20546907845E+02  0.34539841562E+02 -0.14604774133E+02  0.10152635670E+03  0.92082167661E+02 0.  0.
        -11    1    3    3    0    0 -0.37703204896E+01  0.21579288316E+02 -0.54701508219E+02  0.58924833494E+02  0.00000000000E+00 0.  1.
         11    1    3    3    0    0  0.29686821483E+02 -0.33790853589E+02  0.13688752960E+02  0.47016072928E+02  0.00000000000E+00 0. -1.
        -13    1    4    4    0    0  0.34754654477E+02  0.13033754451E+00 -0.10311224041E+02  0.36252232165E+02  0.00000000000E+00 0.  1.
         13    1    4    4    0    0 -0.55301562322E+02  0.34409504018E+02 -0.42935500917E+01  0.65274124540E+02  0.00000000000E+00 0. -1.
         21    1    1    2  502  501 -0.53695931480E+01 -0.22328276289E+02  0.92490256245E+01  0.24757401472E+02  0.00000000000E+00 0. -1.
<scales pt_clust_5="13000.00000" pt_clust_6="13000.00000" pt_clust_7="13000.00000" pt_clust_8="13000.00000" pt_clust_9="22.96485"></scales>
<clustering>
<clus scale="   22.965">  1  9  2 -1</clus>
<clus scale="   92.082">  7  8 -1 -1</clus>
<clus scale="   93.384">  5  6 -1 -1</clus>
<clus scale="   97.522">  1  7  2 -1</clus>
<clus scale="   22.965">  1  5  2 -1</clus>
</clustering>
</event>
<event>
 9    1  0.1266593E-005  0.1011747E+03  0.7546771E-02  0.1278299E+00
         -1   -1    0    0    0  501 -0.00000000000E+00  0.00000000000E+00  0.46941159379E+03  0.46941159379E+03  0.00000000000E+00 0.  1.
          1   -1    0    0  502    0  0.00000000000E+00 -0.00000000000E+00 -0.38956924976E+03  0.38956924976E+03  0.00000000000E+00 0. -1.
         23    2    1    2    0    0  0.23213789544E+02 -0.23852531305E+02  0.36732836513E+01  0.97427623533E+02  0.91492215733E+02 0.  0.
         23    2    1    2    0    0  0.41492211466E+02  0.28836241123E+02 -0.33223009936E+03  0.34802984994E+03  0.90525162851E+02 0.  0.
        -11    1    4    4    0    0  0.31305623275E+02 -0.30341944188E+02 -0.13583973881E+03  0.14266432724E+03  0.00000000000E+00 0. -1.
         11    1    4    4    0    0  0.10186588192E+02  0.59178185311E+02 -0.19639036055E+03  0.20536552270E+03  0.00000000000E+00 0.  1.
        -13    1    3    3    0    0 -0.27673217631E+02 -0.26483925839E+02  0.20905492215E+02  0.43637654687E+02  0.00000000000E+00 0.  1.
         13    1    3    3    0    0  0.50887007175E+02  0.26313945332E+01 -0.17232208564E+02  0.53789968846E+02  0.00000000000E+00 0. -1.
         21    1    1    2  502  501 -0.64706001011E+02 -0.49837098172E+01  0.40839915974E+03  0.41352337008E+03  0.00000000000E+00 0.  1.
<scales pt_clust_5="13000.00000" pt_clust_6="13000.00000" pt_clust_7="13000.00000" pt_clust_8="13000.00000" pt_clust_9="64.89764"></scales>
<clustering>
<clus scale="   64.898">  1  9  2 -1</clus>
<clus scale="   90.525">  5  6 -1 -1</clus>
<clus scale="   91.492">  7  8 -1 -1</clus>
<clus scale="  100.301">  2  5  1 -1</clus>
<clus scale="  100.301">  2  5  1 -1</clus>
</clustering>
</event>
<event>
 9    1  0.1266593E-005  0.9170502E+02  0.7546771E-02  0.1298834E+00
          1   -1    0    0  502    0  0.00000000000E+00  0.00000000000E+00  0.10850848818E+03  0.10850848818E+03  0.00000000000E+00 0. -1.
         -1   -1    0    0    0  501 -0.00000000000E+00 -0.00000000000E+00 -0.15524201139E+03  0.15524201139E+03  0.00000000000E+00 0.  1.
         23    2    1    2    0    0 -0.20676922882E+02  0.20890126724E+02 -0.39839780214E+02  0.10327453934E+03  0.90633822901E+02 0.  0.
         23    2    1    2    0    0  0.93643972496E+01  0.17135288749E+02  0.38404667864E+02  0.10026091655E+03  0.90531888405E+02 0.  0.
        -13    1    3    3    0    0 -0.34884894170E+02  0.48522602531E+02 -0.10768028937E+02  0.60723547696E+02  0.00000000000E+00 0.  1.
         13    1    3    3    0    0  0.14207971288E+02 -0.27632475807E+02 -0.29071751277E+02  0.42550991642E+02  0.00000000000E+00 0. -1.
        -13    1    4    4    0    0 -0.19463927208E+02  0.38125354570E+02  0.47007679499E+02  0.63577582962E+02  0.00000000000E+00 0. -1.
         13    1    4    4    0    0  0.28828324457E+02 -0.20990065821E+02 -0.86030116354E+01  0.36683333592E+02  0.00000000000E+00 0.  1.
         21    1    1    2  502  501  0.11312525632E+02 -0.38025415472E+02 -0.45298410859E+02  0.60215043672E+02  0.00000000000E+00 0.  1.
<scales pt_clust_5="13000.00000" pt_clust_6="13000.00000" pt_clust_7="13000.00000" pt_clust_8="13000.00000" pt_clust_9="39.67248"></scales>
<clustering>
<clus scale="   39.672">  2  9  1 -1</clus>
<clus scale="   90.532">  7  8 -1 -1</clus>
<clus scale="   90.634">  5  6 -1 -1</clus>
<clus scale="   91.604">  1  7  2 -1</clus>
<clus scale="   91.604">  1  5  2 -1</clus>
</clustering>
</event>
<event>
 9    1  0.1266593E-005  0.1638426E+03  0.7546771E-02  0.1185612E+00
         -1   -1    0    0    0  501 -0.00000000000E+00  0.00000000000E+00  0.10560876674E+03  0.10560876674E+03  0.00000000000E+00 0.  1.
          1   -1    0    0  502    0  0.00000000000E+00 -0.00000000000E+00 -0.89686066563E+03  0.89686066563E+03  0.00000000000E+00 0. -1.
         23    2    1    2    0    0  0.58059775165E+02 -0.77624448863E+02  0.76725492729E+01  0.13170531409E+03  0.88830902246E+02 0.  0.
         23    2    1    2    0    0 -0.65444446519E+02  0.12041777613E+03 -0.80902153006E+03  0.82617989133E+03  0.96301403670E+02 0.  0.
        -13    1    4    4    0    0  0.23215449830E+02  0.10335793969E+02 -0.97688807893E+02  0.10094002643E+03  0.00000000000E+00 0.  1.
         13    1    4    4    0    0 -0.88659896349E+02  0.11008198216E+03 -0.71133272217E+03  0.72523986490E+03  0.00000000000E+00 0. -1.
        -13    1    3    3    0    0  0.76147794876E+02 -0.53277144856E+02  0.25697664995E+02  0.96422563825E+02  0.00000000000E+00 0.  1.
         13    1    3    3    0    0 -0.18088019711E+02 -0.24347304006E+02 -0.18025115722E+02  0.35282750264E+02  0.00000000000E+00 0. -1.
         21    1    1    2  502  501  0.73846713542E+01 -0.42793327270E+02  0.10097081895E+02  0.44584226949E+02  0.00000000000E+00 0.  1.
<scales pt_clust_5="13000.00000" pt_clust_6="13000.00000" pt_clust_7="13000.00000" pt_clust_8="13000.00000" pt_clust_9="43.42582"></scales>
<clustering>
<clus scale="   43.426">  1  9  2 -1</clus>
<clus scale="   88.831">  7  8 -1 -1</clus>
<clus scale="   96.301">  5  6 -1 -1</clus>
<clus scale="  159.566">  1  7  2 -1</clus>
<clus scale="  163.843">  2  5  1 -1</clus>
</clustering>
</event>
<event>
 9    1  0.1266593E-005  0.1058846E+03  0.7546771E-02  0.1269068E+00
         -3   -1    0    0    0  501 -0.00000000000E+00  0.00000000000E+00  0.40598431124E+02  0.40598431124E+02  0.00000000000E+00 0.  1.
          3   -1    0    0  502    0  0.00000000000E+00 -0.00000000000E+00 -0.35362812146E+03  0.35362812146E+03  0.00000000000E+00 0. -1.
         23    2    1    2    0    0  0.49182473309E+02 -0.37052284004E+02 -0.13679980777E+03  0.17569630907E+03  0.91450632494E+02 0.  0.
         23    2    1    2    0    0 -0.25415244371E+02  0.41558595806E+02 -0.15828649920E+03  0.18841126239E+03  0.89839503755E+02 0.  0.
        -11    1    4    4    0    0  0.30678110423E+02 -0.74970878156E+00 -0.62413238990E+02  0.69549413539E+02  0.00000000000E+00 0.  1.
         11    1    4    4    0    0 -0.56093354794E+02  0.42308304587E+02 -0.95873260209E+02  0.11886184885E+03  0.00000000000E+00 0. -1.
        -13    1    3    3    0    0 -0.12649700650E+02 -0.45232378693E+02 -0.70081594897E+02  0.84364761317E+02  0.00000000000E+00 0.  1.
         13    1    3    3    0    0  0.61832173959E+02  0.81800946897E+01 -0.66718212868E+02  0.91331547748E+02  0.00000000000E+00 0. -1.
         21    1    1    2  502  501 -0.23767228938E+02 -0.45063118021E+01 -0.17943383373E+02  0.30118981130E+02  0.00000000000E+00 0.  1.
<scales pt_clust_5="13000.00000" pt_clust_6="13000.00000" pt_clust_7="13000.00000" pt_clust_8="13000.00000" pt_clust_9="24.19066"></scales>
<clustering>
<clus scale="   24.191">  1  9  2 -1</clus>
<clus scale="   89.840">  5  6 -1 -1</clus>
<clus scale="   91.451">  7  8 -1 -1</clus>
<clus scale="  104.496">  2  5  1 -1</clus>
<clus scale="  104.496">  2  5  1 -1</clus>
</clustering>
</event>
<event>
 9    1  0.1266593E-005  0.9324754E+02  0.7546771E-02  0.1295670E+00
          1   -1    0    0  502    0  0.00000000000E+00  0.00000000000E+00  0.28286492807E+03  0.28286492807E+03  0.00000000000E+00 0. -1.
         -1   -1    0    0    0  501 -0.00000000000E+00 -0.00000000000E+00 -0.86407297642E+02  0.86407297642E+02  0.00000000000E+00 0.  1.
         23    2    1    2    0    0 -0.21408834193E+02 -0.33205851677E+02  0.55630209529E+02  0.11405291562E+03  0.91391359452E+02 0.  0.
         23    2    1    2    0    0 -0.10567102769E+02 -0.38753474562E+02  0.14485271197E+03  0.17637257176E+03  0.92257685057E+02 0.  0.
        -11    1    3    3    0    0  0.23219707970E+02 -0.45948656263E+02  0.18816481526E+02  0.54813263245E+02  0.00000000000E+00 0.  1.
         11    1    3    3    0    0 -0.44628542162E+02  0.12742804586E+02  0.36813728003E+02  0.59239652377E+02  0.00000000000E+00 0. -1.
        -13    1    4    4    0    0  0.34259528353E+02  0.74167436161E+01  0.64681716440E+02  0.73569340152E+02  0.00000000000E+00 0.  1.
         13    1    4    4    0    0 -0.44826631122E+02 -0.46170218178E+02  0.80170995527E+02  0.10280323160E+03  0.00000000000E+00 0. -1.
         21    1    1    2  502  501  0.31975936961E+02  0.71959326240E+02 -0.40252910702E+01  0.78846738332E+02  0.00000000000E+00 0.  1.
<scales pt_clust_5="13000.00000" pt_clust_6="13000.00000" pt_clust_7="13000.00000" pt_clust_8="13000.00000" pt_clust_9="78.74392"></scales>
<clustering>
<clus scale="   78.744">  2  9  1 -1</clus>
<clus scale="   91.391">  5  6 -1 -1</clus>
<clus scale="   92.258">  7  8 -1 -1</clus>
<clus scale="   92.391">  2  5  1 -1</clus>
<clus scale="   93.248">  1  5  2 -1</clus>
</clustering>
</event>
<event>
 9    1  0.1266593E-005  0.1060201E+03  0.7546771E-02  0.1270686E+00
          1   -1    0    0  502    0  0.00000000000E+00  0.00000000000E+00  0.52251574042E+03  0.52251574042E+03  0.00000000000E+00 0. -1.
         -1   -1    0    0    0  501 -0.00000000000E+00 -0.00000000000E+00 -0.33662899851E+02  0.33662899851E+02  0.00000000000E+00 0.  1.
         23    2    1    2    0    0  0.26361626447E+02  0.27702695038E+02  0.14708410515E+03  0.17486934791E+03  0.86505376663E+02 0.  0.
         23    2    1    2    0    0 -0.42007507217E+02 -0.43524744305E+02  0.34164058674E+03  0.35905738794E+03  0.92438537943E+02 0.  0.
        -13    1    3    3    0    0  0.56732381372E+01  0.36480094871E+02  0.14784331274E+03  0.15238316205E+03  0.00000000000E+00 0. -1.
         13    1    3    3    0    0  0.20688388310E+02 -0.87773998339E+01 -0.75920759453E+00  0.22486185867E+02  0.00000000000E+00 0.  1.
        -13    1    4    4    0    0 -0.27239970917E+02  0.25681831457E+02  0.85831862868E+02  0.93641236461E+02  0.00000000000E+00 0. -1.
         13    1    4    4    0    0 -0.14767536300E+02 -0.69206575762E+02  0.25580872387E+03  0.26541615148E+03  0.00000000000E+00 0.  1.
         21    1    1    2  502  501  0.15645880770E+02  0.15822049267E+02  0.12814868081E+00  0.22251904417E+02  0.00000000000E+00 0. -1.
<scales pt_clust_5="13000.00000" pt_clust_6="13000.00000" pt_clust_7="13000.00000" pt_clust_8="13000.00000" pt_clust_9="22.25154"></scales>
<clustering>
<clus scale="   22.252">  2  9  1 -1</clus>
<clus scale="   86.505">  5  6 -1 -1</clus>
<clus scale="   92.439">  7  8 -1 -1</clus>
<clus scale="  100.889">  2  5  1 -1</clus>
<clus scale="  106.020">  1  5  2 -1</clus>
</clustering>
</event>
<event>
 9    1  0.1266593E-005  0.1115727E+03  0.7546771E-02  0.1258204E+00
          1   -1    0    0  502    0  0.00000000000E+00  0.00000000000E+00  0.25184308187E+03  0.25184308187E+03  0.00000000000E+00 0. -1.
         -1   -1    0    0    0  501 -0.00000000000E+00 -0.00000000000E+00 -0.73325246156E+02  0.73325246156E+02  0.00000000000E+00 0.  1.
         23    2    1    2    0    0 -0.55886921928E+02  0.14613375229E+02  0.20362422883E+02  0.11161618516E+03  0.93309408671E+02 0.  0.
         23    2    1    2    0    0  0.71718820473E+02  0.66044959116E+01  0.13342884000E+03  0.17732714498E+03  0.91948096384E+02 0.  0.
        -11    1    4    4    0    0  0.37215261625E+02 -0.38806243985E+02  0.36907244617E+02  0.65215373765E+02  0.00000000000E+00 0. -1.
         11    1    4    4    0    0  0.34503558848E+02  0.45410739896E+02  0.96521595379E+02  0.11211177122E+03  0.00000000000E+00 0.  1.
        -13    1    3    3    0    0 -0.33218565889E+02 -0.39174532148E+02  0.10320647118E+02  0.52389243607E+02  0.00000000000E+00 0. -1.
         13    1    3    3    0    0 -0.22668356038E+02  0.53787907377E+02  0.10041775765E+02  0.59226941556E+02  0.00000000000E+00 0.  1.
         21    1    1    2  502  501 -0.15831898546E+02 -0.21217871141E+02  0.24726572834E+02  0.36224997880E+02  0.00000000000E+00 0. -1.
<scales pt_clust_5="13000.00000" pt_clust_6="13000.00000" pt_clust_7="13000.00000" pt_clust_8="13000.00000" pt_clust_9="26.47352"></scales>
<clustering>
<clus scale="   26.474">  1  9  2 -1</clus>
<clus scale="   91.948">  5  6 -1 -1</clus>
<clus scale="   93.309">  7  8 -1 -1</clus>
<clus scale="  110.437">  1  5  2 -1</clus>
<clus scale="   26.474">  1  5  2 -1</clus>
</clustering>
</event>
<event>
 9    1  0.1266593E-005  0.9150930E+02  0.7546771E-02  0.1302013E+00
         -1   -1    0    0    0  501 -0.00000000000E+00  0.00000000000E+00  0.51860562556E+02  0.51860562556E+02  0.00000000000E+00 0.  1.
          1   -1    0    0  502    0  0.00000000000E+00 -0.00000000000E+00 -0.33794525571E+03  0.33794525571E+03  0.00000000000E+00 0. -1.
         23    2    1    2    0    0 -0.90771071929E+01  0.18884570892E+02 -0.96214529314E+02  0.13092116133E+03  0.86279162841E+02 0.  0.
         23    2    1    2    0    0 -0.23447239367E+02  0.14324292462E+02 -0.19000389076E+03  0.21240154595E+03  0.90873427523E+02 0.  0.
        -11    1    4    4    0    0 -0.56497953364E+02  0.11350707859E+02 -0.88476226031E+02  0.10558835104E+03  0.00000000000E+00 0.  1.
         11    1    4    4    0    0  0.33050713997E+02  0.29735846026E+01 -0.10152766473E+03  0.10681319491E+03  0.00000000000E+00 0. -1.
        -11    1    3    3    0    0 -0.19332389523E+02  0.47800189094E+02 -0.82562553728E+02  0.97340508732E+02  0.00000000000E+00 0. -1.
         11    1    3    3    0    0  0.10255282330E+02 -0.28915618201E+02 -0.13651975585E+02  0.33580652600E+02  0.00000000000E+00 0.  1.
         21    1    1    2  502  501  0.32524346560E+02 -0.33208863354E+02  0.13372691359E+00  0.46483110990E+02  0.00000000000E+00 0. -1.
<scales pt_clust_5="13000.00000" pt_clust_6="13000.00000" pt_clust_7="13000.00000" pt_clust_8="13000.00000" pt_clust_9="46.48292"></scales>
<clustering>
<clus scale="   46.483">  1  9  2 -1</clus>
<clus scale="   86.279">  7  8 -1 -1</clus>
<clus scale="   86.949">  1  7  2 -1</clus>
<clus scale="   90.873">  5  6 -1 -1</clus>
<clus scale="   91.509">  2  5  1 -1</clus>
</clustering>
</event>
<event>
 9    1  0.1266593E-005  0.1116586E+03  0.7546771E-02  0.1259823E+00
         -3   -1    0    0    0  501 -0.00000000000E+00  0.00000000000E+00  0.33692927564E+03  0.33692927564E+03  0.00000000000E+00 0.  1.
          3   -1    0    0  502    0  0.00000000000E+00 -0.00000000000E+00 -0.56496872924E+02  0.56496872924E+02  0.00000000000E+00 0. -1.
         23    2    1    2    0    0  0.42836210949E+02 -0.41017389679E+01  0.19374071167E+03  0.21945080233E+03  0.93655891702E+02 0.  0.
         23    2    1    2    0    0 -0.67280056486E+02  0.72854918222E-02  0.33855125996E+02  0.11561466821E+03  0.87715311636E+02 0.  0.
        -11    1    4    4    0    0 -0.20998499393E+02  0.15886873860E+02  0.56019114682E+02  0.61898876788E+02  0.00000000000E+00 0.  1.
         11    1    4    4    0    0 -0.46281557094E+02 -0.15879588368E+02 -0.22163988686E+02  0.53715791423E+02  0.00000000000E+00 0. -1.
        -13    1    3    3    0    0 -0.23242038363E+02 -0.13955944621E+02  0.10458054660E+03  0.10803726887E+03  0.00000000000E+00 0. -1.
         13    1    3    3    0    0  0.66078249313E+02  0.98542056533E+01  0.89160165073E+02  0.11141353346E+03  0.00000000000E+00 0.  1.
         21    1    1    2  502  501  0.24443845537E+02  0.40944534761E+01  0.52836565049E+02  0.58360678030E+02  0.00000000000E+00 0.  1.
<scales pt_clust_5="13000.00000" pt_clust_6="13000.00000" pt_clust_7="13000.00000" pt_clust_8="13000.00000" pt_clust_9="24.78439"></scales>
<clustering>
<clus scale="   24.784">  1  9  2 -1</clus>
<clus scale="   87.715">  5  6 -1 -1</clus>
<clus scale="   93.656">  7  8 -1 -1</clus>
<clus scale="  106.725">  2  5  1 -1</clus>
<clus scale="  106.725">  2  5  1 -1</clus>
</clustering>
</event>
<event>
 9    1  0.1266593E-005  0.2403842E+03  0.7546771E-02  0.1120639E+00
         -1   -1    0    0    0  501 -0.00000000000E+00  0.00000000000E+00  0.28595540047E+03  0.28595540047E+03  0.00000000000E+00 0.  1.
          1   -1    0    0  502    0  0.00000000000E+00 -0.00000000000E+00 -0.57595460886E+03  0.57595460886E+03  0.00000000000E+00 0. -1.
         23    2    1    2    0    0 -0.20761966812E+03  0.14271119218E+03  0.16070391196E+03  0.30773473435E+03  0.73501758073E+02 0.  0.
         23    2    1    2    0    0  0.16245165919E+03 -0.14610468589E+03 -0.45024380511E+03  0.50887763927E+03  0.92194614227E+02 0.  0.
        -11    1    3    3    0    0 -0.16513690431E+03  0.14439641012E+03  0.12695779956E+03  0.25345374980E+03  0.00000000000E+00 0.  1.
         11    1    3    3    0    0 -0.42482763813E+02 -0.16852179417E+01  0.33746112407E+02  0.54280984546E+02  0.00000000000E+00 0. -1.
        -11    1    4    4    0    0  0.45748596645E+02 -0.69943484234E+02 -0.91021821447E+02  0.12357182956E+03  0.00000000000E+00 0.  1.
         11    1    4    4    0    0  0.11670306254E+03 -0.76161201660E+02 -0.35922198366E+03  0.38530580970E+03  0.00000000000E+00 0. -1.
         21    1    1    2  502  501  0.45168008937E+02  0.33934937143E+01 -0.45931524473E+00  0.45297635715E+02  0.00000000000E+00 0.  1.
<scales pt_clust_5="13000.00000" pt_clust_6="13000.00000" pt_clust_7="13000.00000" pt_clust_8="13000.00000" pt_clust_9="45.29531"></scales>
<clustering>
<clus scale="   45.295">  1  9  2 -1</clus>
<clus scale="   73.502">  5  6 -1 -1</clus>
<clus scale="   92.195">  7  8 -1 -1</clus>
<clus scale="  233.853">  1  5  2 -1</clus>
<clus scale="  240.384">  2  5  1 -1</clus>
</clustering>
</event>
<event>
 9    1  0.1266593E-005  0.1083020E+03  0.7546771E-02  0.1266532E+00
         -1   -1    0    0    0  501 -0.00000000000E+00  0.00000000000E+00  0.55726249912E+02  0.55726249912E+02  0.00000000000E+00 0.  1.
          1   -1    0    0  502    0  0.00000000000E+00 -0.00000000000E+00 -0.29064611639E+03  0.29064611639E+03  0.00000000000E+00 0. -1.
         23    2    1    2    0    0 -0.17702072332E+02  0.77340740811E+02 -0.11362981572E+03  0.16547797466E+03  0.90422737859E+02 0.  0.
         23    2    1    2    0    0  0.23573084092E+02 -0.38518188809E+02 -0.87474040399E+02  0.12907565102E+03  0.83483380264E+02 0.  0.
        -11    1    4    4    0    0  0.17988543861E+02  0.17043347921E+02  0.60384441360E+00  0.24787659161E+02  0.00000000000E+00 0.  1.
         11    1    4    4    0    0  0.55845402303E+01 -0.55561536730E+02 -0.88077884813E+02  0.10428799186E+03  0.00000000000E+00 0. -1.
        -13    1    3    3    0    0 -0.52156685568E+02  0.62161283942E+02 -0.64946975601E+02  0.10393485801E+03  0.00000000000E+00 0. -1.
         13    1    3    3    0    0  0.34454613236E+02  0.15179456869E+02 -0.48682840117E+02  0.61543116642E+02  0.00000000000E+00 0.  1.
         21    1    1    2  502  501 -0.58710117591E+01 -0.38822552003E+02 -0.33816010358E+02  0.51818740622E+02  0.00000000000E+00 0. -1.
<scales pt_clust_5="13000.00000" pt_clust_6="13000.00000" pt_clust_7="13000.00000" pt_clust_8="13000.00000" pt_clust_9="39.26397"></scales>
<clustering>
<clus scale="   39.264">  1  9  2 -1</clus>
<clus scale="   83.483">  5  6 -1 -1</clus>
<clus scale="   90.423">  7  8 -1 -1</clus>
<clus scale="  102.579">  2  5  1 -1</clus>
<clus scale="  102.579">  2  5  1 -1</clus>
</clustering>
</event>
<event>
 9    1  0.1266593E-005  0.9731632E+02  0.7546771E-02  0.1288296E+00
          1   -1    0    0  502    0  0.00000000000E+00  0.00000000000E+00  0.52704025882E+03  0.52704025882E+03  0.00000000000E+00 0. -1.
         -1   -1    0    0    0  501 -0.00000000000E+00 -0.00000000000E+00 -0.37800916819E+02  0.37800916819E+02  0.00000000000E+00 0.  1.
         23    2    1    2    0    0 -0.18082630814E+02 -0.76463426902E+01  0.17393684162E+03  0.19904434881E+03  0.94758534329E+02 0.  0.
         23    2    1    2    0    0  0.23134598912E+02 -0.12989489767E+02  0.32781612323E+03  0.34114017012E+03  0.90605013699E+02 0.  0.
        -11    1    3    3    0    0  0.17954802407E+02  0.35249785809E+02  0.57037871672E+02  0.69413551515E+02  0.00000000000E+00 0.  1.
         11    1    3    3    0    0 -0.36037433221E+02 -0.42896128500E+02  0.11689896995E+03  0.12963079730E+03  0.00000000000E+00 0. -1.
        -13    1    4    4    0    0  0.53740443139E+02  0.53511456190E+01  0.14187080666E+03  0.15180248934E+03  0.00000000000E+00 0.  1.
         13    1    4    4    0    0 -0.30605844227E+02 -0.18340635386E+02  0.18594531657E+03  0.18933768078E+03  0.00000000000E+00 0. -1.
         21    1    1    2  502  501 -0.50519680979E+01  0.20635832457E+02 -0.12513622853E+02  0.24656656703E+02  0.00000000000E+00 0. -1.
<scales pt_clust_5="13000.00000" pt_clust_6="13000.00000" pt_clust_7="13000.00000" pt_clust_8="13000.00000" pt_clust_9="21.24523"></scales>
<clustering>
<clus scale="   21.245">  2  9  1 -1</clus>
<clus scale="   90.605">  7  8 -1 -1</clus>
<clus scale="   93.277">  1  7  2 -1</clus>
<clus scale="   94.759">  5  6 -1 -1</clus>
<clus scale="   93.277">  1  5  2 -1</clus>
</clustering>
</event>
<event>
 9    1  0.1266593E-005  0.1240920E+03  0.7546771E-02  0.1237824E+00
          2   -1    0    0  502    0  0.00000000000E+00  0.00000000000E+00  0.28638968602E+03  0.28638968602E+03  0.00000000000E+00 0. -1.
         -2   -1    0    0    0  501 -0.00000000000E+00 -0.00000000000E+00 -0.11798750441E+03  0.11798750441E+03  0.00000000000E+00 0.  1.
         23    2    1    2    0    0 -0.59738205756E+02  0.17246043200E+01 -0.22858573451E+02  0.11174587586E+03  0.91613311831E+02 0.  0.
         23    2    1    2    0    0  0.83378062270E+02  0.52568761468E+01  0.22038893310E+03  0.25447329259E+03  0.95947062461E+02 0.  0.
        -11    1    4    4    0    0  0.60001766762E+02 -0.33767506515E+02  0.18321869885E+03  0.19572825069E+03  0.00000000000E+00 0. -1.
         11    1    4    4    0    0  0.23376295507E+02  0.39024382661E+02  0.37170234256E+02  0.58745041905E+02  0.00000000000E+00 0.  1.
        -13    1    3    3    0    0 -0.66158019139E+02  0.27291547715E+02  0.70098706349E+01  0.71908625070E+02  0.00000000000E+00 0.  1.
         13    1    3    3    0    0  0.64198133832E+01 -0.25566943395E+02 -0.29868444086E+02  0.39837250791E+02  0.00000000000E+00 0. -1.
         21    1    1    2  502  501 -0.23639856514E+02 -0.69814804668E+01 -0.29128178043E+02  0.38158021982E+02  0.00000000000E+00 0.  1.
<scales pt_clust_5="13000.00000" pt_clust_6="13000.00000" pt_clust_7="13000.00000" pt_clust_8="13000.00000" pt_clust_9="24.64922"></scales>
<clustering>
<clus scale="   24.649">  2  9  1 -1</clus>
<clus scale="   91.613">  7  8 -1 -1</clus>
<clus scale="   95.947">  5  6 -1 -1</clus>
<clus scale="  120.772">  2  7  1 -1</clus>
<clus scale="  124.092">  1  5  2 -1</clus>
</clustering>
</event>
<event>
 9    1  0.1266593E-005  0.1025261E+03  0.7546771E-02  0.1275667E+00
         -2   -1    0    0    0  501 -0.00000000000E+00  0.00000000000E+00  0.67208792084E+02  0.67208792084E+02  0.00000000000E+00 0.  1.
          2   -1    0    0  502    0  0.00000000000E+00 -0.00000000000E+00 -0.20671200071E+03  0.20671200071E+03  0.00000000000E+00 0. -1.
         23    2    1    2    0    0 -0.31878178770E+02  0.42751385385E+02 -0.58567385835E+02  0.12008577950E+03  0.90258276742E+02 0.  0.
         23    2    1    2    0    0  0.52155297672E+01 -0.42827205851E+02 -0.76341779303E+02  0.12677936996E+03  0.91561837408E+02 0.  0.
        -11    1    4    4    0    0  0.40129594332E+02 -0.30962895465E+01 -0.91646929534E+01  0.41279086074E+02  0.00000000000E+00 0.  1.
         11    1    4    4    0    0 -0.34914064564E+02 -0.39730916305E+02 -0.67177086350E+02  0.85500283890E+02  0.00000000000E+00 0. -1.
        -11    1    3    3    0    0  0.24199553582E+02  0.16027544641E+02  0.69023117350E+01  0.29835255790E+02  0.00000000000E+00 0.  1.
         11    1    3    3    0    0 -0.56077732352E+02  0.26723840744E+02 -0.65469697570E+02  0.90250523709E+02  0.00000000000E+00 0. -1.
         21    1    1    2  502  501  0.26662649003E+02  0.75820466262E-01 -0.45940434908E+01  0.27055643334E+02  0.00000000000E+00 0. -1.
<scales pt_clust_5="13000.00000" pt_clust_6="13000.00000" pt_clust_7="13000.00000" pt_clust_8="13000.00000" pt_clust_9="26.66276"></scales>
<clustering>
<clus scale="   26.663">  1  9  2 -1</clus>
<clus scale="   90.258">  7  8 -1 -1</clus>
<clus scale="   91.562">  5  6 -1 -1</clus>
<clus scale="  101.364">  1  7  2 -1</clus>
<clus scale="  102.526">  2  5  1 -1</clus>
</clustering>
</event>
<event>
 9    1  0.1266593E-005  0.1169819E+03  0.7546771E-02  0.1250137E+00
         -2   -1    0    0    0  501 -0.00000000000E+00  0.00000000000E+00  0.75232310285E+02  0.75232310285E+02  0.00000000000E+00 0.  1.
          2   -1    0    0  502    0  0.00000000000E+00 -0.00000000000E+00 -0.26972713613E+03  0.26972713613E+03  0.00000000000E+00 0. -1.
         23    2    1    2    0    0  0.26959738055E+02  0.49784979462E+02 -0.60134252581E+02  0.12462698355E+03  0.93329443584E+02 0.  0.
         23    2    1    2    0    0 -0.34844532324E+02 -0.76732573814E+02 -0.50002481095E+02  0.13142447370E+03  0.87579191911E+02 0.  0.
        -11    1    3    3    0    0  0.23388359385E+01  0.74101243096E+02 -0.35844516271E+02  0.82348610970E+02  0.00000000000E+00 0.  1.
         11    1    3    3    0    0  0.24620902117E+02 -0.24316263634E+02 -0.24289736310E+02  0.42278372582E+02  0.00000000000E+00 0. -1.
        -11    1    4    4    0    0 -0.51440232633E+02 -0.50122022455E+02  0.67891800177E+00  0.71824616936E+02  0.00000000000E+00 0.  1.
         11    1    4    4    0    0  0.16595700309E+02 -0.26610551359E+02 -0.50681399097E+02  0.59599856768E+02  0.00000000000E+00 0. -1.
         21    1    1    2  502  501  0.78847942685E+01  0.26947594353E+02 -0.84358092173E+02  0.88907989163E+02  0.00000000000E+00 0.  1.
<scales pt_clust_5="13000.00000" pt_clust_6="13000.00000" pt_clust_7="13000.00000" pt_clust_8="13000.00000" pt_clust_9="28.07744"></scales>
<clustering>
<clus scale="   28.077">  2  9  1 -1</clus>
<clus scale="   87.579">  7  8 -1 -1</clus>
<clus scale="   93.329">  5  6 -1 -1</clus>
<clus scale="  112.448">  2  7  1 -1</clus>
<clus scale="   28.077">  2  5  1 -1</clus>
</clustering>
</event>
<event>
 9    1  0.1266593E-005  0.1225076E+03  0.7546771E-02  0.1239858E+00
         -2   -1    0    0    0  501 -0.00000000000E+00  0.00000000000E+00  0.99410254405E+02  0.99410254405E+02  0.00000000000E+00 0.  1.
          2   -1    0    0  502    0  0.00000000000E+00 -0.00000000000E+00 -0.31478980344E+03  0.31478980344E+03  0.00000000000E+00 0. -1.
         23    2    1    2    0    0 -0.36600409134E+01  0.11130406966E+03 -0.14376029960E+02  0.14399519944E+03  0.90144081349E+02 0.  0.
         23    2    1    2    0    0 -0.27555801113E+02 -0.67526952414E+02 -0.17330177265E+03  0.20972137684E+03  0.92899623373E+02 0.  0.
        -11    1    4    4    0    0  0.68447018957E+01 -0.79214698848E+02 -0.98691408326E+02  0.12673520638E+03  0.00000000000E+00 0.  1.
         11    1    4    4    0    0 -0.34400503008E+02  0.11687746434E+02 -0.74610364320E+02  0.82986170461E+02  0.00000000000E+00 0. -1.
        -13    1    3    3    0    0 -0.36708106305E+02  0.87748866744E+02 -0.31140570221E+02  0.10008538253E+03  0.00000000000E+00 0.  1.
         13    1    3    3    0    0  0.33048065392E+02  0.23555202914E+02  0.16764540261E+02  0.43909816905E+02  0.00000000000E+00 0. -1.
         21    1    1    2  502  501  0.31215842026E+02 -0.43777117244E+02 -0.27701746432E+02  0.60483481571E+02  0.00000000000E+00 0.  1.
<scales pt_clust_5="13000.00000" pt_clust_6="13000.00000" pt_clust_7="13000.00000" pt_clust_8="13000.00000" pt_clust_9="53.76676"></scales>
<clustering>
<clus scale="   53.767">  1  9  2 -1</clus>
<clus scale="   90.144">  7  8 -1 -1</clus>
<clus scale="   92.900">  5  6 -1 -1</clus>
<clus scale="  120.431">  1  7  2 -1</clus>
<clus scale="  122.508">  2  5  1 -1</clus>
</clustering>
</event>
<event>
 9    1  0.1266593E-005  0.1042205E+03  0.7546771E-02  0.1272372E+00
          1   -1    0    0  502    0  0.00000000000E+00  0.00000000000E+00  0.81494950964E+02  0.81494950964E+02  0.00000000000E+00 0. -1.
         -1   -1    0    0    0  501 -0.00000000000E+00 -0.00000000000E+00 -0.22999066659E+03  0.22999066659E+03  0.00000000000E+00 0.  1.
         23    2    1    2    0    0  0.38388842627E+02 -0.49735631881E+02 -0.85870636770E+02  0.14050396644E+03  0.91761985648E+02 0.  0.
         23    2    1    2    0    0 -0.46997751601E+02 -0.62508785800E+01 -0.33086267393E+02  0.10709781865E+03  0.90151980186E+02 0.  0.
        -11    1    4    4    0    0  0.34090754213E+01 -0.31131161589E+02 -0.39624410209E+02  0.50506087767E+02  0.00000000000E+00 0.  1.
         11    1    4    4    0    0 -0.50406827022E+02  0.24880283009E+02  0.65381428159E+01  0.56591730885E+02  0.00000000000E+00 0. -1.
        -13    1    3    3    0    0  0.18210853821E+02 -0.36618518296E+02 -0.10309373741E+03  0.11090928623E+03  0.00000000000E+00 0.  1.
         13    1    3    3    0    0  0.20177988805E+02 -0.13117113585E+02  0.17223100642E+02  0.29594680210E+02  0.00000000000E+00 0. -1.
         21    1    1    2  502  501  0.86089089740E+01  0.55986510461E+02 -0.29538811466E+02  0.63883832463E+02  0.00000000000E+00 0. -1.
<scales pt_clust_5="13000.00000" pt_clust_6="13000.00000" pt_clust_7="13000.00000" pt_clust_8="13000.00000" pt_clust_9="56.64453"></scales>
<clustering>
<clus scale="   56.645">  1  9  2 -1</clus>
<clus scale="   90.152">  5  6 -1 -1</clus>
<clus scale="   91.762">  7  8 -1 -1</clus>
<clus scale="  102.806">  1  5  2 -1</clus>
<clus scale="   56.645">  1  5  2 -1</clus>
</clustering>
</event>
<event>
 9    1  0.1266593E-005  0.1151387E+03  0.7546771E-02  0.1255610E+00
          2   -1    0    0  502    0  0.00000000000E+00  0.00000000000E+00  0.10039617380E+04  0.10039617380E+04  0.00000000000E+00 0. -1.
         -2   -1    0    0    0  501 -0.00000000000E+00 -0.00000000000E+00 -0.22189019499E+02  0.22189019499E+02  0.00000000000E+00 0.  1.
         23    2    1    2    0    0  0.34670870417E+02 -0.17431263016E+02  0.34518868253E+03  0.36220881794E+03  0.10263568121E+03 0.  0.
         23    2    1    2    0    0 -0.18492427145E+02  0.64775789216E+02  0.56631096136E+03  0.57767751351E+03  0.92007238462E+02 0.  0.
        -13    1    4    4    0    0 -0.18548152799E+02 -0.18766154643E+02  0.79887416244E+02  0.84132049818E+02  0.00000000000E+00 0. -1.
         13    1    4    4    0    0  0.55725654235E-01  0.83541943859E+02  0.48642354511E+03  0.49354546369E+03  0.00000000000E+00 0.  1.
        -13    1    3    3    0    0 -0.99133792209E+01  0.34417701782E+02  0.69750016695E+02  0.78408660954E+02  0.00000000000E+00 0.  1.
         13    1    3    3    0    0  0.44584249638E+02 -0.51848964797E+02  0.27543866584E+03  0.28380015699E+03  0.00000000000E+00 0. -1.
         21    1    1    2  502  501 -0.16178443272E+02 -0.47344526200E+02  0.70273074641E+02  0.86264426082E+02  0.00000000000E+00 0.  1.
<scales pt_clust_5="13000.00000" pt_clust_6="13000.00000" pt_clust_7="13000.00000" pt_clust_8="13000.00000" pt_clust_9="50.03245"></scales>
<clustering>
<clus scale="   50.032">  2  9  1 -1</clus>
<clus scale="   92.007">  5  6 -1 -1</clus>
<clus scale="  102.636">  7  8 -1 -1</clus>
<clus scale="  105.774">  1  5  2 -1</clus>
<clus scale="  105.774">  1  5  2 -1</clus>
</clustering>
</event>
<event>
 9    1  0.1266593E-005  0.1816793E+03  0.7546771E-02  0.1166269E+00
          1   -1    0    0  502    0  0.00000000000E+00  0.00000000000E+00  0.34507993488E+03  0.34507993488E+03  0.00000000000E+00 0. -1.
         -1   -1    0    0    0  501 -0.00000000000E+00 -0.00000000000E+00 -0.18048565329E+03  0.18048565329E+03  0.00000000000E+00 0.  1.
         23    2    1    2    0    0 -0.13178134561E+03 -0.11530824377E+03 -0.49296248063E+02  0.20307661456E+03  0.90264484574E+02 0.  0.
         23    2    1    2    0    0  0.12434619142E+03  0.90209344637E+02  0.23077150686E+03  0.29134088142E+03  0.89578566767E+02 0.  0.
        -11    1    4    4    0    0  0.22110480921E+02  0.44315707196E+01 -0.24020186652E+01  0.22677783826E+02  0.00000000000E+00 0.  1.
         11    1    4    4    0    0  0.10223571050E+03  0.85777773917E+02  0.23317352553E+03  0.26866309759E+03  0.00000000000E+00 0. -1.
        -11    1    3    3    0    0 -0.32775414859E+02  0.10500839814E+02 -0.21520419028E+02  0.40590933607E+02  0.00000000000E+00 0. -1.
         11    1    3    3    0    0 -0.99005930755E+02 -0.12580908358E+03 -0.27775829035E+02  0.16248568095E+03  0.00000000000E+00 0.  1.
         21    1    1    2  502  501  0.74351541930E+01  0.25098899129E+02 -0.16880977207E+02  0.31148092186E+02  0.00000000000E+00 0.  1.
<scales pt_clust_5="13000.00000" pt_clust_6="13000.00000" pt_clust_7="13000.00000" pt_clust_8="13000.00000" pt_clust_9="26.17702"></scales>
<clustering>
<clus scale="   26.177">  2  9  1 -1</clus>
<clus scale="   89.579">  5  6 -1 -1</clus>
<clus scale="   90.264">  7  8 -1 -1</clus>
<clus scale="  181.340">  1  5  2 -1</clus>
<clus scale="  181.340">  1  5  2 -1</clus>
</clustering>
</event>
<event>
 9    1  0.1266593E-005  0.1316042E+03  0.7546771E-02  0.1225372E+00
          1   -1    0    0  502    0  0.00000000000E+00  0.00000000000E+00  0.27344581617E+03  0.27344581617E+03  0.00000000000E+00 0. -1.
         -1   -1    0    0    0  501 -0.00000000000E+00 -0.00000000000E+00 -0.20744576509E+03  0.20744576509E+03  0.00000000000E+00 0.  1.
         23    2    1    2    0    0 -0.42457539461E+02  0.31607784740E+02 -0.92368258436E+02  0.14020334722E+03  0.91232607612E+02 0.  0.
         23    2    1    2    0    0  0.10108939704E+03  0.28655552911E+02  0.20220706319E+03  0.24586629084E+03  0.92316464718E+02 0.  0.
        -13    1    4    4    0    0  0.26737126908E+02  0.46178085130E+02  0.13093876561E+03  0.14139395263E+03  0.00000000000E+00 0. -1.
         13    1    4    4    0    0  0.74352270135E+02 -0.17522532219E+02  0.71268297582E+02  0.10447233820E+03  0.00000000000E+00 0.  1.
        -13    1    3    3    0    0 -0.28858102967E+02  0.59362613323E+02 -0.34213732457E+02  0.74345742689E+02  0.00000000000E+00 0. -1.
         13    1    3    3    0    0 -0.13599436494E+02 -0.27754828583E+02 -0.58154525979E+02  0.65857604530E+02  0.00000000000E+00 0.  1.
         21    1    1    2  502  501 -0.58631857582E+02 -0.60263337651E+02 -0.43838753676E+02  0.94821943200E+02  0.00000000000E+00 0.  1.
<scales pt_clust_5="13000.00000" pt_clust_6="13000.00000" pt_clust_7="13000.00000" pt_clust_8="13000.00000" pt_clust_9="84.07951"></scales>
<clustering>
<clus scale="   84.080">  2  9  1 -1</clus>
<clus scale="   91.233">  7  8 -1 -1</clus>
<clus scale="   92.316">  5  6 -1 -1</clus>
<clus scale="  130.846">  2  7  1 -1</clus>
<clus scale="  131.604">  1  5  2 -1</clus>
</clustering>
</event>
<event>
 9    1  0.1266593E-005  0.3488861E+03  0.7546771E-02  0.1109824E+00
          2   -1    0    0  502    0  0.00000000000E+00  0.00000000000E+00  0.18032200386E+04  0.18032200386E+04  0.00000000000E+00 0. -1.
         -2   -1    0    0    0  501 -0.00000000000E+00 -0.00000000000E+00 -0.17467188425E+03  0.17467188425E+03  0.00000000000E+00 0.  1.
         23    2    1    2    0    0  0.33150323287E+03  0.24688131593E+01  0.13449025155E+04  0.13880408687E+04  0.89410226867E+02 0.  0.
         23    2    1    2    0    0  0.27052040138E+01 -0.57430698749E+02  0.22458755439E+03  0.24604304741E+03  0.82413641492E+02 0.  0.
        -11    1    4    4    0    0 -0.26227963777E+02 -0.63435294571E+02  0.17905921392E+03  0.19176585924E+03  0.00000000000E+00 0.  1.
         11    1    4    4    0    0  0.28933167791E+02  0.60045958215E+01  0.45528340471E+02  0.54277188168E+02  0.00000000000E+00 0. -1.
        -13    1    3    3    0    0  0.24582896337E+03 -0.25494725377E+02  0.10902351417E+04  0.11178973676E+04  0.00000000000E+00 0. -1.
         13    1    3    3    0    0  0.85674269496E+02  0.27963538536E+02  0.25466737379E+03  0.27014350115E+03  0.00000000000E+00 0.  1.
         21    1    1    2  502  501 -0.33420843688E+03  0.54961885590E+02  0.59058084500E+02  0.34380800674E+03  0.00000000000E+00 0.  1.
<scales pt_clust_5="13000.00000" pt_clust_6="13000.00000" pt_clust_7="13000.00000" pt_clust_8="13000.00000" pt_clust_9="337.23478"></scales>
<clustering>
<clus scale="   82.414">  5  6 -1 -1</clus>
<clus scale="   89.410">  7  8 -1 -1</clus>
<clus scale="  100.487">  1  5  2 -1</clus>
<clus scale="  337.235">  2  9  1 -1</clus>
<clus scale="  100.487">  1  5  2 -1</clus>
</clustering>
</event>
<event>
 9    1  0.1266593E-005  0.1300849E+03  0.7546771E-02  0.1227452E+00
          1   -1    0    0  502    0  0.00000000000E+00  0.00000000000E+00  0.17450278101E+03  0.17450278101E+03  0.00000000000E+00 0. -1.
         -1   -1    0    0    0  501 -0.00000000000E+00 -0.00000000000E+00 -0.13241467969E+03  0.13241467969E+03  0.00000000000E+00 0.  1.
         23    2    1    2    0    0  0.71790446184E+02 -0.23084350573E+02  0.17571126242E+02  0.12014262977E+03  0.91862677979E+02 0.  0.
         23    2    1    2    0    0 -0.99575401507E+02  0.52012150271E+02  0.15388912871E+02  0.14563916687E+03  0.91397067386E+02 0.  0.
        -11    1    4    4    0    0 -0.55901150778E+02 -0.10531282754E+01  0.44046617358E+02  0.71176908040E+02  0.00000000000E+00 0.  1.
         11    1    4    4    0    0 -0.43674250729E+02  0.53065278546E+02 -0.28657704487E+02  0.74462258832E+02  0.00000000000E+00 0. -1.
        -13    1    3    3    0    0  0.39220208131E+02 -0.31758282649E+02 -0.32323575732E+02  0.59930182636E+02  0.00000000000E+00 0.  1.
         13    1    3    3    0    0  0.32570238054E+02  0.86739320768E+01  0.49894701974E+02  0.60212447132E+02  0.00000000000E+00 0. -1.
         21    1    1    2  502  501  0.27784955323E+02 -0.28927799698E+02  0.91280622044E+01  0.41135664055E+02  0.00000000000E+00 0. -1.
<scales pt_clust_5="13000.00000" pt_clust_6="13000.00000" pt_clust_7="13000.00000" pt_clust_8="13000.00000" pt_clust_9="40.11012"></scales>
<clustering>
<clus scale="   40.110">  1  9  2 -1</clus>
<clus scale="   91.397">  5  6 -1 -1</clus>
<clus scale="   91.863">  7  8 -1 -1</clus>
<clus scale="  129.756">  1  5  2 -1</clus>
<clus scale="   40.110">  1  5  2 -1</clus>
</clustering>
</event>
<event>
 9    1  0.1266593E-005  0.1128850E+03  0.7546771E-02  0.1257505E+00
          1   -1    0    0  502    0  0.00000000000E+00  0.00000000000E+00  0.47359000613E+02  0.47359000613E+02  0.00000000000E+00 0. -1.
         -1   -1    0    0    0  501 -0.00000000000E+00 -0.00000000000E+00 -0.42355866863E+03  0.42355866863E+03  0.00000000000E+00 0.  1.
         23    2    1    2    0    0 -0.54036732722E+02 -0.29169894974E+02 -0.22057246498E+03  0.24674836400E+03  0.91987453337E+02 0.  0.
         23    2    1    2    0    0  0.38241730769E+02  0.57851672644E+02 -0.65958659995E+02  0.12870950183E+03  0.86060124524E+02 0.  0.
        -11    1    3    3    0    0  0.22183319722E+02 -0.18934549920E+01 -0.18103913197E+02  0.28695583610E+02  0.00000000000E+00 0. -1.
         11    1    3    3    0    0 -0.76220052445E+02 -0.27276439982E+02 -0.20246855179E+03  0.21805278039E+03  0.00000000000E+00 0.  1.
        -13    1    4    4    0    0  0.57788572516E+02  0.44991158579E+02 -0.73858790528E+02  0.10401367411E+03  0.00000000000E+00 0. -1.
         13    1    4    4    0    0 -0.19546841747E+02  0.12860514065E+02  0.79001305331E+01  0.24695827719E+02  0.00000000000E+00 0.  1.
         21    1    1    2  502  501  0.15795001953E+02 -0.28681777670E+02 -0.89668543036E+02  0.95459803411E+02  0.00000000000E+00 0.  1.
<scales pt_clust_5="13000.00000" pt_clust_6="13000.00000" pt_clust_7="13000.00000" pt_clust_8="13000.00000" pt_clust_9="32.74334"></scales>
<clustering>
<clus scale="   32.743">  2  9  1 -1</clus>
<clus scale="   86.060">  7  8 -1 -1</clus>
<clus scale="   91.987">  5  6 -1 -1</clus>
<clus scale="  108.110">  1  7  2 -1</clus>
<clus scale="  108.110">  1  5  2 -1</clus>
</clustering>
</event>
<event>
 9    1  0.1266593E-005  0.1026580E+03  0.7546771E-02  0.1275101E+00
          1   -1    0    0  502    0  0.00000000000E+00  0.00000000000E+00  0.13720163370E+03  0.13720163370E+03  0.00000000000E+00 0. -1.
         -1   -1    0    0    0  501 -0.00000000000E+00 -0.00000000000E+00 -0.11786383199E+03  0.11786383199E+03  0.00000000000E+00 0.  1.
         23    2    1    2    0    0  0.72039913703E+00  0.41649772653E+02  0.15754681482E+02  0.99295207121E+02  0.88747426057E+02 0.  0.
         23    2    1    2    0    0  0.22398224758E+02 -0.58626920045E+02  0.34579168000E+02  0.11353935423E+03  0.88071958494E+02 0.  0.
        -13    1    4    4    0    0  0.26939966152E+02  0.15497834458E+01 -0.18867716103E+02  0.32926498690E+02  0.00000000000E+00 0.  1.
         13    1    4    4    0    0 -0.45417413945E+01 -0.60176703491E+02  0.53446884103E+02  0.80612855539E+02  0.00000000000E+00 0. -1.
        -13    1    3    3    0    0  0.59645233931E+01  0.61010903446E+02  0.35756692791E+02  0.70967929080E+02  0.00000000000E+00 0.  1.
         13    1    3    3    0    0 -0.52441242561E+01 -0.19361130793E+02 -0.20002011310E+02  0.28327278041E+02  0.00000000000E+00 0. -1.
         21    1    1    2  502  501 -0.23118623895E+02  0.16977147392E+02 -0.30996047771E+02  0.42230904344E+02  0.00000000000E+00 0.  1.
<scales pt_clust_5="13000.00000" pt_clust_6="13000.00000" pt_clust_7="13000.00000" pt_clust_8="13000.00000" pt_clust_9="28.68265"></scales>
<clustering>
<clus scale="   28.683">  2  9  1 -1</clus>
<clus scale="   88.072">  5  6 -1 -1</clus>
<clus scale="   88.747">  7  8 -1 -1</clus>
<clus scale="  102.075">  1  5  2 -1</clus>
<clus scale="  102.075">  1  5  2 -1</clus>
</clustering>
</event>
<event>
 9    1  0.1266593E-005  0.1063047E+03  0.7546771E-02  0.1270057E+00
         -1   -1    0    0    0  501 -0.00000000000E+00  0.00000000000E+00  0.63727307919E+02  0.63727307919E+02  0.00000000000E+00 0.  1.
          1   -1    0    0  502    0  0.00000000000E+00 -0.00000000000E+00 -0.34960393299E+03  0.34960393299E+03  0.00000000000E+00 0. -1.
         23    2    1    2    0    0  0.75974282392E+02  0.20961182698E+02 -0.48958974527E+02  0.12707651993E+03  0.86833161665E+02 0.  0.
         23    2    1    2    0    0 -0.43896362301E+02  0.15640407948E+02 -0.19961320918E+03  0.22493351143E+03  0.92618239584E+02 0.  0.
        -11    1    4    4    0    0 -0.10124844257E+01 -0.27904817633E+02 -0.17778237403E+02  0.33102412253E+02  0.00000000000E+00 0.  1.
         11    1    4    4    0    0 -0.42883877875E+02  0.43545225580E+02 -0.18183497177E+03  0.19183109918E+03  0.00000000000E+00 0. -1.
        -11    1    3    3    0    0  0.86460816622E+02  0.74984814311E+00 -0.56269984685E+02  0.10316174804E+03  0.00000000000E+00 0.  1.
         11    1    3    3    0    0 -0.10486534230E+02  0.20211334555E+02  0.73110101580E+01  0.23914771882E+02  0.00000000000E+00 0. -1.
         21    1    1    2  502  501 -0.32077920091E+02 -0.36601590646E+02 -0.37304441369E+02  0.61321209553E+02  0.00000000000E+00 0.  1.
<scales pt_clust_5="13000.00000" pt_clust_6="13000.00000" pt_clust_7="13000.00000" pt_clust_8="13000.00000" pt_clust_9="48.66898"></scales>
<clustering>
<clus scale="   48.669">  1  9  2 -1</clus>
<clus scale="   86.833">  7  8 -1 -1</clus>
<clus scale="   92.618">  5  6 -1 -1</clus>
<clus scale="  101.304">  1  7  2 -1</clus>
<clus scale="  106.305">  2  5  1 -1</clus>
</clustering>
</event>
<event>
 9    1  0.1266593E-005  0.1310794E+03  0.7546771E-02  0.1226415E+00
         -1   -1    0    0    0  501 -0.00000000000E+00  0.00000000000E+00  0.11455918220E+03  0.11455918220E+03  0.00000000000E+00 0.  1.
          1   -1    0    0  502    0  0.00000000000E+00 -0.00000000000E+00 -0.34867852955E+03  0.34867852955E+03  0.00000000000E+00 0. -1.
         23    2    1    2    0    0  0.61432188323E+02 -0.72687196505E+02  0.53175803810E+02  0.14337526997E+03  0.93120672415E+02 0.  0.
         23    2    1    2    0    0 -0.47711483368E+02  0.57196676489E+02 -0.26199152363E+03  0.28717471439E+03  0.91005014628E+02 0.  0.
        -13    1    3    3    0    0  0.42528978406E+02  0.10770790691E+02  0.34443260039E+02  0.55776895741E+02  0.00000000000E+00 0.  1.
         13    1    3    3    0    0  0.18903209917E+02 -0.83457987196E+02  0.18732543771E+02  0.87598374232E+02  0.00000000000E+00 0. -1.
        -13    1    4    4    0    0 -0.43469403200E+02 -0.14404357604E+02 -0.96977137673E+02  0.10724569811E+03  0.00000000000E+00 0. -1.
         13    1    4    4    0    0 -0.42420801683E+01  0.71601034093E+02 -0.16501438596E+03  0.17992901628E+03  0.00000000000E+00 0.  1.
         21    1    1    2  502  501 -0.13720704955E+02  0.15490520016E+02 -0.25303627535E+02  0.32687727380E+02  0.00000000000E+00 0. -1.
<scales pt_clust_5="13000.00000" pt_clust_6="13000.00000" pt_clust_7="13000.00000" pt_clust_8="13000.00000" pt_clust_9="20.69333"></scales>
<clustering>
<clus scale="   20.693">  2  9  1 -1</clus>
<clus scale="   91.005">  7  8 -1 -1</clus>
<clus scale="   93.121">  5  6 -1 -1</clus>
<clus scale="  129.585">  2  7  1 -1</clus>
<clus scale="   20.693">  2  5  1 -1</clus>
</clustering>
</event>
<event>
 9    1  0.1266593E-005  0.1320446E+03  0.7546771E-02  0.1227984E+00
          1   -1    0    0  502    0  0.00000000000E+00  0.00000000000E+00  0.46951126901E+03  0.46951126901E+03  0.00000000000E+00 0. -1.
         -1   -1    0    0    0  501 -0.00000000000E+00 -0.00000000000E+00 -0.92081672253E+02  0.92081672253E+02  0.00000000000E+00 0.  1.
         23    2    1    2    0    0 -0.33605026884E+02 -0.23319951760E+02  0.48096510991E+01  0.10050338836E+03  0.91677043723E+02 0.  0.
         23    2    1    2    0    0  0.11158626196E+03 -0.12791529596E+02  0.34466342346E+03  0.37071987191E+03  0.77622360617E+02 0.  0.
        -11    1    4    4    0    0  0.63518288142E+02 -0.59388035131E+00  0.29016087239E+03  0.29703241824E+03  0.00000000000E+00 0. -1.
         11    1    4    4    0    0  0.48067973820E+02 -0.12197649244E+02  0.54502551074E+02  0.73687453666E+02  0.00000000000E+00 0.  1.
        -11    1    3    3    0    0  0.32402072221E+00  0.33408728991E+02 -0.46383253396E+01  0.33730731154E+02  0.00000000000E+00 0.  1.
         11    1    3    3    0    0 -0.33929047606E+02 -0.56728680751E+02  0.94479764387E+01  0.66772657204E+02  0.00000000000E+00 0. -1.
         21    1    1    2  502  501 -0.77981235078E+02  0.36111481356E+02  0.27956522196E+02  0.90369680996E+02  0.00000000000E+00 0.  1.
<scales pt_clust_5="13000.00000" pt_clust_6="13000.00000" pt_clust_7="13000.00000" pt_clust_8="13000.00000" pt_clust_9="85.93667"></scales>
<clustering>
<clus scale="   77.622">  5  6 -1 -1</clus>
<clus scale="   85.937">  2  9  1 -1</clus>
<clus scale="   91.677">  7  8 -1 -1</clus>
<clus scale="  122.704">  1  5  2 -1</clus>
<clus scale="  122.704">  1  5  2 -1</clus>
</clustering>
</event>
<event>
 9    1  0.1266593E-005  0.1268935E+03  0.7546771E-02  0.1232620E+00
          1   -1    0    0  502    0  0.00000000000E+00  0.00000000000E+00  0.10118488396E+03  0.10118488396E+03  0.00000000000E+00 0. -1.
         -1   -1    0    0    0  501 -0.00000000000E+00 -0.00000000000E+00 -0.23281178655E+03  0.23281178655E+03  0.00000000000E+00 0.  1.
         23    2    1    2    0    0  0.64080199832E+02  0.54212420652E+02 -0.66437668653E+02  0.13992282211E+03  0.90106457970E+02 0.  0.
         23    2    1    2    0    0 -0.99798185604E+02 -0.22766858831E+02 -0.48207081791E+02  0.14354671354E+03  0.88338714735E+02 0.  0.
        -11    1    3    3    0    0  0.10802439575E+02  0.67209820396E+02 -0.32520414093E+02  0.75441566733E+02  0.00000000000E+00 0.  1.
         11    1    3    3    0    0  0.53277760257E+02 -0.12997399744E+02 -0.33917254560E+02  0.64481255377E+02  0.00000000000E+00 0. -1.
        -13    1    4    4    0    0  0.98002625470E+01 -0.20205089607E+02 -0.20650687209E+02  0.30508059168E+02  0.00000000000E+00 0. -1.
         13    1    4    4    0    0 -0.10959844815E+03 -0.25617692242E+01 -0.27556394582E+02  0.11303865437E+03  0.00000000000E+00 0.  1.
         21    1    1    2  502  501  0.35717985772E+02 -0.31445561820E+02 -0.16982152153E+02  0.50527134864E+02  0.00000000000E+00 0. -1.
<scales pt_clust_5="13000.00000" pt_clust_6="13000.00000" pt_clust_7="13000.00000" pt_clust_8="13000.00000" pt_clust_9="47.58779"></scales>
<clustering>
<clus scale="   47.588">  1  9  2 -1</clus>
<clus scale="   88.339">  7  8 -1 -1</clus>
<clus scale="   90.106">  5  6 -1 -1</clus>
<clus scale="  125.644">  1  7  2 -1</clus>
<clus scale="   47.588">  1  5  2 -1</clus>
</clustering>
</event>
<event>
 9    1  0.1266593E-005  0.1156285E+03  0.7546771E-02  0.1252418E+00
         -2   -1    0    0    0  501 -0.00000000000E+00  0.00000000000E+00  0.22512939031E+03  0.22512939031E+03  0.00000000000E+00 0.  1.
          2   -1    0    0  502    0  0.00000000000E+00 -0.00000000000E+00 -0.12058482465E+03  0.12058482465E+03  0.00000000000E+00 0. -1.
         23    2    1    2    0    0  0.18067155310E+01 -0.44600462679E+02  0.10342177854E+03  0.14361017765E+03  0.89080600332E+02 0.  0.
         23    2    1    2    0    0 -0.65229668448E+02  0.47239892478E+02 -0.35109071270E+02  0.12901378414E+03  0.94474295583E+02 0.  0.
        -11    1    3    3    0    0  0.14019485438E+02 -0.62332954435E+02  0.10401600597E+03  0.12207076914E+03  0.00000000000E+00 0.  1.
         11    1    3    3    0    0 -0.12212769907E+02  0.17732491755E+02 -0.59422743067E+00  0.21539408508E+02  0.00000000000E+00 0. -1.
        -11    1    4    4    0    0  0.16084949049E+02  0.38141095641E+02 -0.44349589176E+01  0.41630969520E+02  0.00000000000E+00 0.  1.
         11    1    4    4    0    0 -0.81314617497E+02  0.90987968366E+01 -0.30674112352E+02  0.87382814621E+02  0.00000000000E+00 0. -1.
         21    1    1    2  502  501  0.63422952917E+02 -0.26394297981E+01  0.36231858388E+02  0.73090253171E+02  0.00000000000E+00 0.  1.
<scales pt_clust_5="13000.00000" pt_clust_6="13000.00000" pt_clust_7="13000.00000" pt_clust_8="13000.00000" pt_clust_9="63.47785"></scales>
<clustering>
<clus scale="   63.478">  1  9  2 -1</clus>
<clus scale="   89.081">  5  6 -1 -1</clus>
<clus scale="   94.474">  7  8 -1 -1</clus>
<clus scale="  111.265">  1  5  2 -1</clus>
<clus scale="  115.629">  2  5  1 -1</clus>
</clustering>
</event>
<event>
 9    1  0.1266593E-005  0.1200114E+03  0.7546771E-02  0.1244166E+00
         -1   -1    0    0    0  501 -0.00000000000E+00  0.00000000000E+00  0.28055120563E+03  0.28055120563E+03  0.00000000000E+00 0.  1.
          1   -1    0    0  502    0  0.00000000000E+00 -0.00000000000E+00 -0.11317619716E+03  0.11317619716E+03  0.00000000000E+00 0. -1.
         23    2    1    2    0    0  0.26229196436E+02  0.99884710735E+02  0.11988845811E+03  0.18383295531E+03  0.93575567788E+02 0.  0.
         23    2    1    2    0    0  0.73877681177E+01 -0.68168051745E+02 -0.32181666016E+02  0.11779085653E+03  0.90208446713E+02 0.  0.
        -11    1    3    3    0    0 -0.20716044659E+02 -0.65792991461E+01  0.10526590413E+02  0.24150585693E+02  0.00000000000E+00 0. -1.
         11    1    3    3    0    0  0.46945241095E+02  0.10646400988E+03  0.10936186770E+03  0.15968236962E+03  0.00000000000E+00 0.  1.
        -11    1    4    4    0    0  0.15569106155E+02 -0.17887703634E+02 -0.56549850767E+02  0.61320898799E+02  0.00000000000E+00 0. -1.
         11    1    4    4    0    0 -0.81813380372E+01 -0.50280348111E+02  0.24368184751E+02  0.56469957732E+02  0.00000000000E+00 0.  1.
         21    1    1    2  502  501 -0.33616964554E+02 -0.31716658990E+02  0.79668216385E+02  0.92103590946E+02  0.00000000000E+00 0.  1.
<scales pt_clust_5="13000.00000" pt_clust_6="13000.00000" pt_clust_7="13000.00000" pt_clust_8="13000.00000" pt_clust_9="46.21739"></scales>
<clustering>
<clus scale="   46.217">  1  9  2 -1</clus>
<clus scale="   90.208">  7  8 -1 -1</clus>
<clus scale="   93.576">  5  6 -1 -1</clus>
<clus scale="  117.405">  2  7  1 -1</clus>
<clus scale="  117.405">  2  5  1 -1</clus>
</clustering>
</event>
<event>
 9    1  0.1266593E-005  0.1039979E+03  0.7546771E-02  0.1277746E+00
         -1   -1    0    0    0  501 -0.00000000000E+00  0.00000000000E+00  0.24179496980E+02  0.24179496980E+02  0.00000000000E+00 0.  1.
          1   -1    0    0  502    0  0.00000000000E+00 -0.00000000000E+00 -0.51590720184E+03  0.51590720184E+03  0.00000000000E+00 0. -1.
         23    2    1    2    0    0  0.16391496163E+02  0.60390390725E+02 -0.25213086093E+03  0.27458846179E+03  0.88956010897E+02 0.  0.
         23    2    1    2    0    0 -0.26646802430E+02 -0.39798751805E+02 -0.20569236572E+03  0.22452628879E+03  0.76214908763E+02 0.  0.
        -11    1    3    3    0    0 -0.19879548156E+02  0.60985574088E+02 -0.10492231878E+03  0.12297613451E+03  0.00000000000E+00 0.  1.
         11    1    3    3    0    0  0.36271044319E+02 -0.59518336298E+00 -0.14720854215E+03  0.15161232728E+03  0.00000000000E+00 0. -1.
        -11    1    4    4    0    0 -0.49014273107E+02 -0.11742766068E+02 -0.87173918439E+02  0.10069549930E+03  0.00000000000E+00 0.  1.
         11    1    4    4    0    0  0.22367470677E+02 -0.28055985737E+02 -0.11851844728E+03  0.12383078949E+03  0.00000000000E+00 0. -1.
         21    1    1    2  502  501  0.10255306267E+02 -0.20591638921E+02 -0.33904478212E+02  0.40971948244E+02  0.00000000000E+00 0. -1.
<scales pt_clust_5="13000.00000" pt_clust_6="13000.00000" pt_clust_7="13000.00000" pt_clust_8="13000.00000" pt_clust_9="23.00406"></scales>
<clustering>
<clus scale="   23.004">  1  9  2 -1</clus>
<clus scale="   76.215">  7  8 -1 -1</clus>
<clus scale="   88.956">  5  6 -1 -1</clus>
<clus scale="   93.333">  2  7  1 -1</clus>
<clus scale="   93.333">  2  5  1 -1</clus>
</clustering>
</event>
<event>
 9    1  0.1266593E-005  0.1571569E+03  0.7546771E-02  0.1212246E+00
         -2   -1    0    0    0  501 -0.00000000000E+00  0.00000000000E+00  0.25643008548E+02  0.25643008548E+02  0.00000000000E+00 0.  1.
          2   -1    0    0  502    0  0.00000000000E+00 -0.00000000000E+00 -0.16238959219E+04  0.16238959219E+04  0.00000000000E+00 0. -1.
         23    2    1    2    0    0  0.26985716494E+02 -0.31033579273E+02 -0.31827156619E+03  0.33399628032E+03  0.92549519088E+02 0.  0.
         23    2    1    2    0    0 -0.83566761130E+02 -0.87085868143E+02 -0.44486462457E+03  0.47021812143E+03  0.92914990889E+02 0.  0.
        -13    1    3    3    0    0 -0.32635846515E+02 -0.99745854446E+01 -0.71111341873E+02  0.78875939142E+02  0.00000000000E+00 0. -1.
         13    1    3    3    0    0  0.59621563010E+02 -0.21058993828E+02 -0.24716022432E+03  0.25512034118E+03  0.00000000000E+00 0.  1.
        -13    1    4    4    0    0 -0.90272940914E+02 -0.57304640767E+02 -0.41075062223E+03  0.42443974764E+03  0.00000000000E+00 0. -1.
         13    1    4    4    0    0  0.67061797846E+01 -0.29781227376E+02 -0.34114002346E+02  0.45778373796E+02  0.00000000000E+00 0.  1.
         21    1    1    2  502  501  0.56581044635E+02  0.11811944742E+03 -0.83511672256E+03  0.84532452867E+03  0.00000000000E+00 0.  1.
<scales pt_clust_5="13000.00000" pt_clust_6="13000.00000" pt_clust_7="13000.00000" pt_clust_8="13000.00000" pt_clust_9="126.74820"></scales>
<clustering>
<clus scale="   92.550">  5  6 -1 -1</clus>
<clus scale="   92.915">  7  8 -1 -1</clus>
<clus scale="  101.275">  1  5  2 -1</clus>
<clus scale="  126.748">  2  9  1 -1</clus>
<clus scale="  126.748">  2  5  1 -1</clus>
</clustering>
</event>
<event>
 9    1  0.1266593E-005  0.1294359E+03  0.7546771E-02  0.1228410E+00
          1   -1    0    0  502    0  0.00000000000E+00  0.00000000000E+00  0.68046254464E+03  0.68046254464E+03  0.00000000000E+00 0. -1.
         -1   -1    0    0    0  501 -0.00000000000E+00 -0.00000000000E+00 -0.24455946107E+03  0.24455946107E+03  0.00000000000E+00 0.  1.
         23    2    1    2    0    0 -0.59203473232E+02  0.14659892410E+02  0.14084259381E+03  0.17860800516E+03  0.91346699935E+02 0.  0.
         23    2    1    2    0    0  0.43967596958E+02 -0.11511008732E+03  0.49716307286E+03  0.52021093319E+03  0.90911012609E+02 0.  0.
        -11    1    3    3    0    0 -0.36891729160E+02  0.44743933893E+02  0.38450853905E+02  0.69580798118E+02  0.00000000000E+00 0.  1.
         11    1    3    3    0    0 -0.22311744072E+02 -0.30084041483E+02  0.10239173990E+03  0.10902720704E+03  0.00000000000E+00 0. -1.
        -11    1    4    4    0    0  0.57862577151E+02 -0.63912772947E+02  0.40312934624E+03  0.41224530341E+03  0.00000000000E+00 0. -1.
         11    1    4    4    0    0 -0.13894980192E+02 -0.51197314370E+02  0.94033726617E+02  0.10796562978E+03  0.00000000000E+00 0.  1.
         21    1    1    2  502  501  0.15235876274E+02  0.10045019491E+03 -0.20210258310E+03  0.22620306735E+03  0.00000000000E+00 0.  1.
<scales pt_clust_5="13000.00000" pt_clust_6="13000.00000" pt_clust_7="13000.00000" pt_clust_8="13000.00000" pt_clust_9="101.59908"></scales>
<clustering>
<clus scale="   90.911">  7  8 -1 -1</clus>
<clus scale="   91.347">  5  6 -1 -1</clus>
<clus scale="  101.599">  2  9  1 -1</clus>
<clus scale="  129.129">  1  7  2 -1</clus>
<clus scale="  129.129">  1  5  2 -1</clus>
</clustering>
</event>
<event>
 9    1  0.1266593E-005  0.1047146E+03  0.7546771E-02  0.1271732E+00
         -1   -1    0    0    0  501 -0.00000000000E+00  0.00000000000E+00  0.84481239368E+02  0.84481239368E+02  0.00000000000E+00 0.  1.
          1   -1    0    0  502    0  0.00000000000E+00 -0.00000000000E+00 -0.49430476535E+03  0.49430476535E+03  0.00000000000E+00 0. -1.
         23    2    1    2    0    0  0.24396352561E+02 -0.17803291509E+02 -0.85078296360E+02  0.12951949915E+03  0.92870043300E+02 0.  0.
         23    2    1    2    0    0 -0.43798190435E+02  0.32100836658E+02 -0.37712172536E+03  0.39161107724E+03  0.90496932987E+02 0.  0.
        -11    1    3    3    0    0  0.58642067089E+02 -0.23050653657E+02 -0.54462992152E+02  0.83285305911E+02  0.00000000000E+00 0.  1.
         11    1    3    3    0    0 -0.34245714528E+02  0.52473621483E+01 -0.30615304208E+02  0.46234193242E+02  0.00000000000E+00 0. -1.
        -13    1    4    4    0    0  0.33294475317E+01 -0.24804321397E+02 -0.46220151888E+02  0.52560841140E+02  0.00000000000E+00 0.  1.
         13    1    4    4    0    0 -0.47127637966E+02  0.56905158056E+02 -0.33090157347E+03  0.33905023610E+03  0.00000000000E+00 0. -1.
         21    1    1    2  502  501  0.19401837874E+02 -0.14297545149E+02  0.52376495735E+02  0.57655428328E+02  0.00000000000E+00 0.  1.
<scales pt_clust_5="13000.00000" pt_clust_6="13000.00000" pt_clust_7="13000.00000" pt_clust_8="13000.00000" pt_clust_9="24.10085"></scales>
<clustering>
<clus scale="   24.101">  1  9  2 -1</clus>
<clus scale="   90.497">  7  8 -1 -1</clus>
<clus scale="   92.870">  5  6 -1 -1</clus>
<clus scale="  102.616">  2  7  1 -1</clus>
<clus scale="  102.616">  2  5  1 -1</clus>
</clustering>
</event>
<event>
 9    1  0.1266593E-005  0.1103637E+03  0.7546771E-02  0.1260316E+00
         -1   -1    0    0    0  501 -0.00000000000E+00  0.00000000000E+00  0.19013767687E+03  0.19013767687E+03  0.00000000000E+00 0.  1.
          1   -1    0    0  502    0  0.00000000000E+00 -0.00000000000E+00 -0.61204099605E+03  0.61204099605E+03  0.00000000000E+00 0. -1.
         23    2    1    2    0    0 -0.32188523570E+02  0.34309513468E+01  0.15710614329E+03  0.18427521036E+03  0.90703585465E+02 0.  0.
         23    2    1    2    0    0  0.60840699971E+02 -0.12804871584E+02 -0.57714777722E+03  0.58769943195E+03  0.91790577166E+02 0.  0.
        -11    1    4    4    0    0  0.26522152895E+02 -0.51919159823E+02 -0.33341646778E+03  0.33847535322E+03  0.00000000000E+00 0.  1.
         11    1    4    4    0    0  0.34318547075E+02  0.39114288239E+02 -0.24373130944E+03  0.24922407873E+03  0.00000000000E+00 0. -1.
        -11    1    3    3    0    0  0.24494999704E+02 -0.21418459115E+02  0.37836434390E+02  0.49903418407E+02  0.00000000000E+00 0. -1.
         11    1    3    3    0    0 -0.56683523274E+02  0.24849410462E+02  0.11926970890E+03  0.13437179195E+03  0.00000000000E+00 0.  1.
         21    1    1    2  502  501 -0.28652176401E+02  0.93739202371E+01 -0.18616852539E+01  0.30204030610E+02  0.00000000000E+00 0.  1.
<scales pt_clust_5="13000.00000" pt_clust_6="13000.00000" pt_clust_7="13000.00000" pt_clust_8="13000.00000" pt_clust_9="30.14660"></scales>
<clustering>
<clus scale="   30.147">  1  9  2 -1</clus>
<clus scale="   90.704">  7  8 -1 -1</clus>
<clus scale="   91.791">  5  6 -1 -1</clus>
<clus scale="  109.461">  1  7  2 -1</clus>
<clus scale="  110.364">  2  5  1 -1</clus>
</clustering>
</event>
<event>
 9    1  0.1266593E-005  0.1848583E+03  0.7546771E-02  0.1178579E+00
          2   -1    0    0  502    0  0.00000000000E+00  0.00000000000E+00  0.81155548749E+03  0.81155548749E+03  0.00000000000E+00 0. -1.
         -2   -1    0    0    0  501 -0.00000000000E+00 -0.00000000000E+00 -0.93149475845E+02  0.93149475845E+02  0.00000000000E+00 0.  1.
         23    2    1    2    0    0  0.88553992804E+02 -0.29974257004E+02  0.95896373665E+02  0.16158606973E+03  0.90408394098E+02 0.  0.
         23    2    1    2    0    0 -0.10948459116E+03  0.17583959519E+03  0.23121350635E+03  0.32499516855E+03  0.96206731154E+02 0.  0.
        -11    1    4    4    0    0 -0.94331722085E+02  0.11432208532E+03  0.21221859077E+03  0.25885274434E+03  0.00000000000E+00 0.  1.
         11    1    4    4    0    0 -0.15152869075E+02  0.61517509871E+02  0.18994915583E+02  0.66142424206E+02  0.00000000000E+00 0. -1.
        -13    1    3    3    0    0  0.40869254707E+02 -0.49956173614E+02  0.16129265694E+02  0.66528704138E+02  0.00000000000E+00 0. -1.
         13    1    3    3    0    0  0.47684738097E+02  0.19981916610E+02  0.79767107970E+02  0.95057365589E+02  0.00000000000E+00 0.  1.
         21    1    1    2  502  501  0.20930598355E+02 -0.14586533819E+03  0.39129613163E+03  0.41812372506E+03  0.00000000000E+00 0. -1.
<scales pt_clust_5="13000.00000" pt_clust_6="13000.00000" pt_clust_7="13000.00000" pt_clust_8="13000.00000" pt_clust_9="157.85069"></scales>
<clustering>
<clus scale="   90.408">  7  8 -1 -1</clus>
<clus scale="   96.207">  5  6 -1 -1</clus>
<clus scale="  130.054">  2  7  1 -1</clus>
<clus scale="  157.851">  1  9  2 -1</clus>
<clus scale="  157.851">  1  5  2 -1</clus>
</clustering>
</event>
<event>
 9    1  0.1266593E-005  0.9485247E+02  0.7546771E-02  0.1292041E+00
         -1   -1    0    0    0  501 -0.00000000000E+00  0.00000000000E+00  0.25367502144E+03  0.25367502144E+03  0.00000000000E+00 0.  1.
          1   -1    0    0  502    0  0.00000000000E+00 -0.00000000000E+00 -0.56139649737E+02  0.56139649737E+02  0.00000000000E+00 0. -1.
         23    2    1    2    0    0  0.81078557859E+01  0.21898343123E+02  0.11791488774E+03  0.15053788452E+03  0.90622619509E+02 0.  0.
         23    2    1    2    0    0  0.21402328964E+02 -0.21527048883E+02  0.29132619632E+02  0.10079590681E+03  0.91594933183E+02 0.  0.
        -11    1    4    4    0    0  0.31558564808E+02  0.27207655035E+02 -0.26195456229E+01  0.41749988317E+02  0.00000000000E+00 0.  1.
         11    1    4    4    0    0 -0.10156235844E+02 -0.48734703918E+02  0.31752165255E+02  0.59045918495E+02  0.00000000000E+00 0. -1.
        -13    1    3    3    0    0 -0.21797875613E+02  0.39075831969E+02  0.10424058478E+03  0.11343794577E+03  0.00000000000E+00 0.  1.
         13    1    3    3    0    0  0.29905731399E+02 -0.17177488846E+02  0.13674302963E+02  0.37099938748E+02  0.00000000000E+00 0. -1.
         21    1    1    2  502  501 -0.29510184750E+02 -0.37129423990E+00  0.50487864334E+02  0.58480879853E+02  0.00000000000E+00 0.  1.
<scales pt_clust_5="13000.00000" pt_clust_6="13000.00000" pt_clust_7="13000.00000" pt_clust_8="13000.00000" pt_clust_9="29.51252"></scales>
<clustering>
<clus scale="   29.513">  1  9  2 -1</clus>
<clus scale="   90.623">  7  8 -1 -1</clus>
<clus scale="   91.595">  5  6 -1 -1</clus>
<clus scale="   93.914">  1  7  2 -1</clus>
<clus scale="   94.852">  2  5  1 -1</clus>
</clustering>
</event>
<event>
 9    1  0.1266593E-005  0.2869614E+03  0.7546771E-02  0.1110481E+00
          2   -1    0    0  502    0  0.00000000000E+00  0.00000000000E+00  0.68024589510E+03  0.68024589510E+03  0.00000000000E+00 0. -1.
         -2   -1    0    0    0  501 -0.00000000000E+00 -0.00000000000E+00 -0.23300026714E+03  0.23300026714E+03  0.00000000000E+00 0.  1.
         23    2    1    2    0    0 -0.15052191364E+03  0.19907666584E+02  0.86343225204E+02  0.19746566479E+03  0.92110664744E+02 0.  0.
         23    2    1    2    0    0  0.48049782930E+02 -0.27869525652E+03  0.31615389811E+03  0.43386919411E+03  0.91155705544E+02 0.  0.
        -11    1    3    3    0    0 -0.13361038654E+03 -0.91106570260E+01  0.39121584915E+02  0.13951787652E+03  0.00000000000E+00 0.  1.
         11    1    3    3    0    0 -0.16911527098E+02  0.29018323610E+02  0.47221640290E+02  0.57947788272E+02  0.00000000000E+00 0. -1.
        -13    1    4    4    0    0  0.47589668431E+02 -0.16660689650E+03  0.13016598281E+03  0.21671598369E+03  0.00000000000E+00 0.  1.
         13    1    4    4    0    0  0.46011449836E+00 -0.11208836002E+03  0.18598791530E+03  0.21715321042E+03  0.00000000000E+00 0. -1.
         21    1    1    2  502  501  0.10247213071E+03  0.25878758994E+03  0.44748504645E+02  0.28191130333E+03  0.00000000000E+00 0.  1.
<scales pt_clust_5="13000.00000" pt_clust_6="13000.00000" pt_clust_7="13000.00000" pt_clust_8="13000.00000" pt_clust_9="272.09825"></scales>
<clustering>
<clus scale="   91.156">  7  8 -1 -1</clus>
<clus scale="   92.111">  5  6 -1 -1</clus>
<clus scale="  177.588">  2  5  1 -1</clus>
<clus scale="  272.098">  2  9  1 -1</clus>
<clus scale="  286.961">  1  5  2 -1</clus>
</clustering>
</event>
<event>
 9    1  0.1266593E-005  0.1023211E+03  0.7546771E-02  0.1275896E+00
         -3   -1    0    0    0  501 -0.00000000000E+00  0.00000000000E+00  0.14504975948E+03  0.14504975948E+03  0.00000000000E+00 0.  1.
          3   -1    0    0  502    0  0.00000000000E+00 -0.00000000000E+00 -0.10826289947E+03  0.10826289947E+03  0.00000000000E+00 0. -1.
         23    2    1    2    0    0  0.35864913498E+02 -0.10335139985E+02  0.30083306415E+02  0.10213291299E+03  0.90183254836E+02 0.  0.
         23    2    1    2    0    0 -0.55509259141E+02  0.12250541842E+01 -0.29319760983E+02  0.10914912412E+03  0.89281041122E+02 0.  0.
        -11    1    4    4    0    0 -0.46175267673E+02  0.38797790810E+02 -0.35440914512E+02  0.69953429779E+02  0.00000000000E+00 0. -1.
         11    1    4    4    0    0 -0.93339914679E+01 -0.37572736626E+02  0.61211535285E+01  0.39195694340E+02  0.00000000000E+00 0.  1.
        -11    1    3    3    0    0  0.53825092530E+02 -0.28242829265E+02 -0.25071464251E+01  0.60836533218E+02  0.00000000000E+00 0.  1.
         11    1    3    3    0    0 -0.17960179032E+02  0.17907689280E+02  0.32590452841E+02  0.41296379775E+02  0.00000000000E+00 0. -1.
         21    1    1    2  502  501  0.19644345643E+02  0.91100858009E+01  0.36023314579E+02  0.42030621841E+02  0.00000000000E+00 0.  1.
<scales pt_clust_5="13000.00000" pt_clust_6="13000.00000" pt_clust_7="13000.00000" pt_clust_8="13000.00000" pt_clust_9="21.65396"></scales>
<clustering>
<clus scale="   21.654">  1  9  2 -1</clus>
<clus scale="   89.281">  5  6 -1 -1</clus>
<clus scale="   90.183">  7  8 -1 -1</clus>
<clus scale="  101.527">  2  5  1 -1</clus>
<clus scale="  101.527">  2  5  1 -1</clus>
</clustering>
</event>
<event>
 9    1  0.1266593E-005  0.9314764E+02  0.7546771E-02  0.1295605E+00
         -1   -1    0    0    0  501 -0.00000000000E+00  0.00000000000E+00  0.60878858922E+02  0.60878858922E+02  0.00000000000E+00 0.  1.
          1   -1    0    0  502    0  0.00000000000E+00 -0.00000000000E+00 -0.31572100588E+03  0.31572100588E+03  0.00000000000E+00 0. -1.
         23    2    1    2    0    0  0.22109926692E+02  0.18008954809E+02 -0.67539441708E+01  0.96681994077E+02  0.92133712100E+02 0.  0.
         23    2    1    2    0    0 -0.86428935786E+01  0.60175670227E+01 -0.22663530840E+03  0.24500567501E+03  0.92484090790E+02 0.  0.
        -13    1    4    4    0    0 -0.45382563890E+02  0.13503834947E+02 -0.17435599126E+03  0.18067081212E+03  0.00000000000E+00 0. -1.
         13    1    4    4    0    0  0.36739670312E+02 -0.74862679240E+01 -0.52279317142E+02  0.64334862889E+02  0.00000000000E+00 0.  1.
        -13    1    3    3    0    0  0.10978018614E+02  0.55146030091E+02  0.42284759393E+01  0.56386891528E+02  0.00000000000E+00 0.  1.
         13    1    3    3    0    0  0.11131908079E+02 -0.37137075282E+02 -0.10982420110E+02  0.40295102549E+02  0.00000000000E+00 0. -1.
         21    1    1    2  502  501 -0.13467033114E+02 -0.24026521832E+02 -0.21452894385E+02  0.34912195716E+02  0.00000000000E+00 0. -1.
<scales pt_clust_5="13000.00000" pt_clust_6="13000.00000" pt_clust_7="13000.00000" pt_clust_8="13000.00000" pt_clust_9="27.54332"></scales>
<clustering>
<clus scale="   27.543">  1  9  2 -1</clus>
<clus scale="   92.134">  7  8 -1 -1</clus>
<clus scale="   92.484">  5  6 -1 -1</clus>
<clus scale="   92.800">  1  7  2 -1</clus>
<clus scale="   93.148">  2  5  1 -1</clus>
</clustering>
</event>
<event>
 9    1  0.1266593E-005  0.9605423E+02  0.7546771E-02  0.1290092E+00
          1   -1    0    0  502    0  0.00000000000E+00  0.00000000000E+00  0.60791158736E+02  0.60791158736E+02  0.00000000000E+00 0. -1.
         -1   -1    0    0    0  501 -0.00000000000E+00 -0.00000000000E+00 -0.21993913832E+03  0.21993913832E+03  0.00000000000E+00 0.  1.
         23    2    1    2    0    0 -0.33436189891E+02  0.25282183702E+02 -0.88809705802E+02  0.13280257794E+03  0.89399067425E+02 0.  0.
         23    2    1    2    0    0  0.20748106684E+02 -0.58811856786E+01 -0.25834757011E+02  0.97748548287E+02  0.91772935806E+02 0.  0.
        -11    1    3    3    0    0 -0.55956757487E+02  0.76256265242E+00 -0.81258492996E+02  0.98664496625E+02  0.00000000000E+00 0.  1.
         11    1    3    3    0    0  0.22520567596E+02  0.24519621050E+02 -0.75512128060E+01  0.34138081318E+02  0.00000000000E+00 0. -1.
        -13    1    4    4    0    0  0.18428653506E+02 -0.42316350049E+02 -0.37449128752E+02  0.59436739445E+02  0.00000000000E+00 0.  1.
         13    1    4    4    0    0  0.23194531774E+01  0.36435164371E+02  0.11614371741E+02  0.38311808842E+02  0.00000000000E+00 0. -1.
         21    1    1    2  502  501  0.12688083207E+02 -0.19400998024E+02 -0.44503516767E+02  0.50179170823E+02  0.00000000000E+00 0. -1.
<scales pt_clust_5="13000.00000" pt_clust_6="13000.00000" pt_clust_7="13000.00000" pt_clust_8="13000.00000" pt_clust_9="23.18159"></scales>
<clustering>
<clus scale="   23.182">  2  9  1 -1</clus>
<clus scale="   89.399">  5  6 -1 -1</clus>
<clus scale="   91.773">  7  8 -1 -1</clus>
<clus scale="   93.789">  2  5  1 -1</clus>
<clus scale="   96.054">  1  5  2 -1</clus>
</clustering>
</event>
<event>
 9    1  0.1266593E-005  0.1336669E+03  0.7546771E-02  0.1224243E+00
          1   -1    0    0  502    0  0.00000000000E+00  0.00000000000E+00  0.99926073214E+02  0.99926073214E+02  0.00000000000E+00 0. -1.
         -1   -1    0    0    0  501 -0.00000000000E+00 -0.00000000000E+00 -0.42944680534E+03  0.42944680534E+03  0.00000000000E+00 0.  1.
         23    2    1    2    0    0  0.87943904781E+02  0.84055089088E+02 -0.26988211882E+03  0.31238517626E+03  0.99743430369E+02 0.  0.
         23    2    1    2    0    0 -0.70822090241E+02 -0.44135646371E+02  0.20582643067E+02  0.12576178265E+03  0.91807717720E+02 0.  0.
        -11    1    3    3    0    0  0.59603371950E+02  0.68758890228E+02 -0.26452352211E+03  0.27973744955E+03  0.00000000000E+00 0.  1.
         11    1    3    3    0    0  0.28340532830E+02  0.15296198860E+02 -0.53585967083E+01  0.32647726710E+02  0.00000000000E+00 0. -1.
        -13    1    4    4    0    0 -0.56211681101E+02  0.17377265659E+02  0.21186395265E+02  0.62534676767E+02  0.00000000000E+00 0. -1.
         13    1    4    4    0    0 -0.14610409139E+02 -0.61512912030E+02 -0.60375219797E+00  0.63227105883E+02  0.00000000000E+00 0.  1.
         21    1    1    2  502  501 -0.17121814540E+02 -0.39919442718E+02 -0.80221256380E+02  0.91225919646E+02  0.00000000000E+00 0. -1.
<scales pt_clust_5="13000.00000" pt_clust_6="13000.00000" pt_clust_7="13000.00000" pt_clust_8="13000.00000" pt_clust_9="43.43637"></scales>
<clustering>
<clus scale="   43.436">  2  9  1 -1</clus>
<clus scale="   91.808">  7  8 -1 -1</clus>
<clus scale="   99.743">  5  6 -1 -1</clus>
<clus scale="  127.854">  1  7  2 -1</clus>
<clus scale="  127.854">  1  5  2 -1</clus>
</clustering>
</event>
<event>
 9    1  0.1266593E-005  0.1065187E+03  0.7546771E-02  0.1272110E+00
          1   -1    0    0  502    0  0.00000000000E+00  0.00000000000E+00  0.14207710514E+03  0.14207710514E+03  0.00000000000E+00 0. -1.
         -1   -1    0    0    0  501 -0.00000000000E+00 -0.00000000000E+00 -0.92070142210E+02  0.92070142210E+02  0.00000000000E+00 0.  1.
         23    2    1    2    0    0  0.20234988988E+01 -0.65512705657E+02  0.22308849512E+02  0.11496815938E+03  0.91782262739E+02 0.  0.
         23    2    1    2    0    0 -0.72538310854E+01  0.45515472821E+02  0.32230536254E+02  0.98018073055E+02  0.80277386894E+02 0.  0.
        -11    1    3    3    0    0  0.55182969061E+01 -0.19772026979E+02  0.54954947340E+02  0.58663710152E+02  0.00000000000E+00 0. -1.
         11    1    3    3    0    0 -0.34947980074E+01 -0.45740678678E+02 -0.32646097828E+02  0.56304449224E+02  0.00000000000E+00 0.  1.
        -13    1    4    4    0    0  0.29583059783E+02  0.53354026659E+01 -0.69922726001E+01  0.30862855082E+02  0.00000000000E+00 0. -1.
         13    1    4    4    0    0 -0.36836890868E+02  0.40180070155E+02  0.39222808854E+02  0.67155217972E+02  0.00000000000E+00 0.  1.
         21    1    1    2  502  501  0.52303321866E+01  0.19997232837E+02 -0.45324228316E+01  0.21161014924E+02  0.00000000000E+00 0.  1.
<scales pt_clust_5="13000.00000" pt_clust_6="13000.00000" pt_clust_7="13000.00000" pt_clust_8="13000.00000" pt_clust_9="20.66992"></scales>
<clustering>
<clus scale="   20.670">  2  9  1 -1</clus>
<clus scale="   80.277">  7  8 -1 -1</clus>
<clus scale="   91.782">  5  6 -1 -1</clus>
<clus scale="   96.782">  1  7  2 -1</clus>
<clus scale="   96.782">  1  5  2 -1</clus>
</clustering>
</event>
<event>
 9    1  0.1266593E-005  0.1333198E+03  0.7546771E-02  0.1223543E+00
         -1   -1    0    0    0  501 -0.00000000000E+00  0.00000000000E+00  0.20134965795E+03  0.20134965795E+03  0.00000000000E+00 0.  1.
          1   -1    0    0  502    0  0.00000000000E+00 -0.00000000000E+00 -0.15002558354E+03  0.15002558354E+03  0.00000000000E+00 0. -1.
         23    2    1    2    0    0 -0.45424045194E+02 -0.90523834865E+02  0.56910569938E+02  0.15097596382E+03  0.96421056415E+02 0.  0.
         23    2    1    2    0    0  0.55908807681E+02  0.62577385578E+02 -0.55880543267E+02  0.14191487367E+03  0.99877286166E+02 0.  0.
        -11    1    3    3    0    0 -0.66423286374E+02 -0.44521485240E+02  0.75653473302E+01  0.80320919447E+02  0.00000000000E+00 0. -1.
         11    1    3    3    0    0  0.20999241179E+02 -0.46002349625E+02  0.49345222607E+02  0.70655044373E+02  0.00000000000E+00 0.  1.
        -11    1    4    4    0    0  0.31234249581E+02  0.86010401215E+02 -0.57107998867E+02  0.10786422483E+03  0.00000000000E+00 0. -1.
         11    1    4    4    0    0  0.24674558099E+02 -0.23433015637E+02  0.12274555997E+01  0.34050648841E+02  0.00000000000E+00 0.  1.
         21    1    1    2  502  501 -0.10484762486E+02  0.27946449287E+02  0.50294047738E+02  0.58484403989E+02  0.00000000000E+00 0. -1.
<scales pt_clust_5="13000.00000" pt_clust_6="13000.00000" pt_clust_7="13000.00000" pt_clust_8="13000.00000" pt_clust_9="29.84852"></scales>
<clustering>
<clus scale="   29.849">  1  9  2 -1</clus>
<clus scale="   96.421">  5  6 -1 -1</clus>
<clus scale="   99.877">  7  8 -1 -1</clus>
<clus scale="  130.751">  1  5  2 -1</clus>
<clus scale="  133.320">  2  5  1 -1</clus>
</clustering>
</event>
<event>
 9    1  0.1266593E-005  0.1006620E+03  0.7546771E-02  0.1281859E+00
         -3   -1    0    0    0  501 -0.00000000000E+00  0.00000000000E+00  0.10930579664E+03  0.10930579664E+03  0.00000000000E+00 0.  1.
          3   -1    0    0  502    0  0.00000000000E+00 -0.00000000000E+00 -0.14812073799E+03  0.14812073799E+03  0.00000000000E+00 0. -1.
         23    2    1    2    0    0  0.38627666385E+02 -0.32345302434E+02  0.57041320625E+01  0.10801506198E+03  0.95375055918E+02 0.  0.
         23    2    1    2    0    0 -0.17475340782E+02 -0.12730479223E+02 -0.35888413951E+02  0.98876976976E+02  0.89561295676E+02 0.  0.
        -11    1    4    4    0    0 -0.35707612139E+02  0.13083074597E+01  0.18198201861E+02  0.40098875097E+02  0.00000000000E+00 0. -1.
         11    1    4    4    0    0  0.18232271357E+02 -0.14038786683E+02 -0.54086615813E+02  0.58778101878E+02  0.00000000000E+00 0.  1.
        -13    1    3    3    0    0  0.36761929405E+02 -0.72509765943E+01  0.46723463642E+02  0.59892388246E+02  0.00000000000E+00 0.  1.
         13    1    3    3    0    0  0.18657369799E+01 -0.25094325839E+02 -0.41019331579E+02  0.48122673731E+02  0.00000000000E+00 0. -1.
         21    1    1    2  502  501 -0.21152325603E+02  0.45075781657E+02 -0.86306594672E+01  0.50534495676E+02  0.00000000000E+00 0. -1.
<scales pt_clust_5="13000.00000" pt_clust_6="13000.00000" pt_clust_7="13000.00000" pt_clust_8="13000.00000" pt_clust_9="49.79204"></scales>
<clustering>
<clus scale="   49.792">  2  9  1 -1</clus>
<clus scale="   89.561">  5  6 -1 -1</clus>
<clus scale="   95.172">  2  5  1 -1</clus>
<clus scale="   95.375">  7  8 -1 -1</clus>
<clus scale="   49.792">  2  5  1 -1</clus>
</clustering>
</event>
<event>
 9    1  0.1266593E-005  0.1938970E+03  0.7546771E-02  0.1155351E+00
         -2   -1    0    0    0  501 -0.00000000000E+00  0.00000000000E+00  0.56530348076E+02  0.56530348076E+02  0.00000000000E+00 0.  1.
          2   -1    0    0  502    0  0.00000000000E+00 -0.00000000000E+00 -0.11423552935E+04  0.11423552935E+04  0.00000000000E+00 0. -1.
         23    2    1    2    0    0 -0.32227808675E+02 -0.16440423877E+03 -0.21414891018E+03  0.28636080802E+03  0.89863069499E+02 0.  0.
         23    2    1    2    0    0 -0.27905696283E+02  0.18257520456E+03 -0.68428567301E+03  0.71488533782E+03  0.93283067830E+02 0.  0.
        -11    1    4    4    0    0  0.22047221511E+02  0.66281787303E+02 -0.36120895936E+03  0.36790116557E+03  0.00000000000E+00 0.  1.
         11    1    4    4    0    0 -0.49952917793E+02  0.11629341725E+03 -0.32307671365E+03  0.34698417225E+03  0.00000000000E+00 0. -1.
        -13    1    3    3    0    0  0.10703451555E+02 -0.29552389622E+02 -0.99132908352E+02  0.10399635150E+03  0.00000000000E+00 0. -1.
         13    1    3    3    0    0 -0.42931260230E+02 -0.13485184915E+03 -0.11501600183E+03  0.18236445651E+03  0.00000000000E+00 0.  1.
         21    1    1    2  502  501  0.60133504958E+02 -0.18170965788E+02 -0.18739036223E+03  0.19763949573E+03  0.00000000000E+00 0.  1.
<scales pt_clust_5="13000.00000" pt_clust_6="13000.00000" pt_clust_7="13000.00000" pt_clust_8="13000.00000" pt_clust_9="62.81897"></scales>
<clustering>
<clus scale="   62.819">  2  9  1 -1</clus>
<clus scale="   89.863">  7  8 -1 -1</clus>
<clus scale="   93.283">  5  6 -1 -1</clus>
<clus scale="  192.275">  1  7  2 -1</clus>
<clus scale="   62.819">  2  5  1 -1</clus>
</clustering>
</event>
<event>
 9    1  0.1266593E-005  0.1188157E+03  0.7546771E-02  0.1247512E+00
          2   -1    0    0  502    0  0.00000000000E+00  0.00000000000E+00  0.39064545405E+03  0.39064545405E+03  0.00000000000E+00 0. -1.
         -2   -1    0    0    0  501 -0.00000000000E+00 -0.00000000000E+00 -0.46789452401E+03  0.46789452401E+03  0.00000000000E+00 0.  1.
         23    2    1    2    0    0  0.60967124632E+02  0.82491031788E+02 -0.40168212392E+03  0.42510878900E+03  0.94059519448E+02 0.  0.
         23    2    1    2    0    0 -0.41217386045E+02 -0.59009595767E+02  0.36531919090E+03  0.38231263855E+03  0.86740054470E+02 0.  0.
        -13    1    4    4    0    0 -0.63898252783E+02 -0.56599230178E+02  0.32464648026E+03  0.33568109376E+03  0.00000000000E+00 0. -1.
         13    1    4    4    0    0  0.22680866738E+02 -0.24103655891E+01  0.40672710645E+02  0.46631544789E+02  0.00000000000E+00 0.  1.
        -13    1    3    3    0    0  0.42735997072E+02  0.63544446653E+02 -0.38796848219E+03  0.39545392313E+03  0.00000000000E+00 0.  1.
         13    1    3    3    0    0  0.18231127560E+02  0.18946585135E+02 -0.13713641730E+02  0.29654865872E+02  0.00000000000E+00 0. -1.
         21    1    1    2  502  501 -0.19749738587E+02 -0.23481436021E+02 -0.40886136950E+02  0.51118550513E+02  0.00000000000E+00 0. -1.
<scales pt_clust_5="13000.00000" pt_clust_6="13000.00000" pt_clust_7="13000.00000" pt_clust_8="13000.00000" pt_clust_9="30.68273"></scales>
<clustering>
<clus scale="   30.683">  2  9  1 -1</clus>
<clus scale="   86.740">  5  6 -1 -1</clus>
<clus scale="   94.060">  7  8 -1 -1</clus>
<clus scale="  113.110">  1  5  2 -1</clus>
<clus scale="  113.110">  1  5  2 -1</clus>
</clustering>
</event>
<event>
 9    1  0.1266593E-005  0.9879164E+02  0.7546771E-02  0.1283770E+00
         -3   -1    0    0    0  501 -0.00000000000E+00  0.00000000000E+00  0.17550195617E+03  0.17550195617E+03  0.00000000000E+00 0.  1.
          3   -1    0    0  502    0  0.00000000000E+00 -0.00000000000E+00 -0.10271957171E+03  0.10271957171E+03  0.00000000000E+00 0. -1.
         23    2    1    2    0    0  0.56223090015E+01  0.12095968871E+02  0.27290037120E+02  0.96242632187E+02  0.91323465237E+02 0.  0.
         23    2    1    2    0    0 -0.13129557258E+02 -0.54000096596E+02 -0.16653726138E+02  0.10664995607E+03  0.89490059943E+02 0.  0.
        -11    1    4    4    0    0  0.19488539122E+02 -0.53376561878E+02 -0.37364556651E+02  0.68007136455E+02  0.00000000000E+00 0.  1.
         11    1    4    4    0    0 -0.32618096381E+02 -0.62353471711E+00  0.20710830513E+02  0.38642819612E+02  0.00000000000E+00 0. -1.
        -13    1    3    3    0    0  0.36175306421E+02 -0.13325326508E+02  0.38969426276E+02  0.54816359834E+02  0.00000000000E+00 0.  1.
         13    1    3    3    0    0 -0.30552997419E+02  0.25421295378E+02 -0.11679389156E+02  0.41426272353E+02  0.00000000000E+00 0. -1.
         21    1    1    2  502  501  0.75072482570E+01  0.41904127725E+02  0.62146073473E+02  0.75328939624E+02  0.00000000000E+00 0. -1.
<scales pt_clust_5="13000.00000" pt_clust_6="13000.00000" pt_clust_7="13000.00000" pt_clust_8="13000.00000" pt_clust_9="42.57129"></scales>
<clustering>
<clus scale="   42.571">  1  9  2 -1</clus>
<clus scale="   89.490">  5  6 -1 -1</clus>
<clus scale="   91.323">  7  8 -1 -1</clus>
<clus scale="   97.099">  2  5  1 -1</clus>
<clus scale="   97.099">  2  5  1 -1</clus>
</clustering>
</event>
<event>
 9    1  0.1266593E-005  0.1112961E+03  0.7546771E-02  0.1258891E+00
          2   -1    0    0  502    0  0.00000000000E+00  0.00000000000E+00  0.66342320848E+02  0.66342320848E+02  0.00000000000E+00 0. -1.
         -2   -1    0    0    0  501 -0.00000000000E+00 -0.00000000000E+00 -0.59165995134E+03  0.59165995134E+03  0.00000000000E+00 0.  1.
         23    2    1    2    0    0  0.21422195588E+02 -0.10361203381E+03 -0.89252254462E+02  0.16429271735E+03  0.88497276973E+02 0.  0.
         23    2    1    2    0    0 -0.22988632077E+02  0.28972316887E+02 -0.70125368450E+02  0.12023180422E+03  0.90389419149E+02 0.  0.
        -11    1    4    4    0    0 -0.27399375745E+02  0.58799425088E+02 -0.34208942679E+02  0.73337234343E+02  0.00000000000E+00 0.  1.
         11    1    4    4    0    0  0.44107436686E+01 -0.29827108201E+02 -0.35916425772E+02  0.46894569873E+02  0.00000000000E+00 0. -1.
        -11    1    3    3    0    0  0.43084699298E+01 -0.34136925029E+02 -0.86044444705E+02  0.92668975543E+02  0.00000000000E+00 0.  1.
         11    1    3    3    0    0  0.17113725658E+02 -0.69475108784E+02 -0.32078097573E+01  0.71623741803E+02  0.00000000000E+00 0. -1.
         21    1    1    2  502  501  0.15664364888E+01  0.74639716926E+02 -0.36594000758E+03  0.37347775063E+03  0.00000000000E+00 0.  1.
<scales pt_clust_5="13000.00000" pt_clust_6="13000.00000" pt_clust_7="13000.00000" pt_clust_8="13000.00000" pt_clust_9="74.65615"></scales>
<clustering>
<clus scale="   74.656">  2  9  1 -1</clus>
<clus scale="   88.497">  7  8 -1 -1</clus>
<clus scale="   90.389">  5  6 -1 -1</clus>
<clus scale="  109.765">  2  7  1 -1</clus>
<clus scale="  111.296">  1  5  2 -1</clus>
</clustering>
</event>
<event>
 9    1  0.1266593E-005  0.1470127E+03  0.7546771E-02  0.1204727E+00
         -2   -1    0    0    0  501 -0.00000000000E+00  0.00000000000E+00  0.10708160576E+03  0.10708160576E+03  0.00000000000E+00 0.  1.
          2   -1    0    0  502    0  0.00000000000E+00 -0.00000000000E+00 -0.42584488775E+03  0.42584488775E+03  0.00000000000E+00 0. -1.
         23    2    1    2    0    0  0.80073040647E+02 -0.53680914277E+02  0.17070240216E+02  0.13257732469E+03  0.89398106948E+02 0.  0.
         23    2    1    2    0    0 -0.98438944769E+02  0.65726166126E+02 -0.34527437959E+03  0.37644259410E+03  0.92111208278E+02 0.  0.
        -11    1    4    4    0    0 -0.14950455587E+01  0.44078718213E+02 -0.60704794952E+02  0.75034929804E+02  0.00000000000E+00 0.  1.
         11    1    4    4    0    0 -0.96943899211E+02  0.21647447914E+02 -0.28456958464E+03  0.30140766430E+03  0.00000000000E+00 0. -1.
        -11    1    3    3    0    0  0.87031782343E+02 -0.24287665638E+02 -0.11394444550E+02  0.91072801684E+02  0.00000000000E+00 0.  1.
         11    1    3    3    0    0 -0.69587416954E+01 -0.29393248639E+02  0.28464684766E+02  0.41504523011E+02  0.00000000000E+00 0. -1.
         21    1    1    2  502  501  0.18365904122E+02 -0.12045251849E+02  0.94408573841E+01  0.23906574712E+02  0.00000000000E+00 0.  1.
<scales pt_clust_5="13000.00000" pt_clust_6="13000.00000" pt_clust_7="13000.00000" pt_clust_8="13000.00000" pt_clust_9="21.96348"></scales>
<clustering>
<clus scale="   21.963">  1  9  2 -1</clus>
<clus scale="   89.398">  7  8 -1 -1</clus>
<clus scale="   92.111">  5  6 -1 -1</clus>
<clus scale="  145.328">  1  7  2 -1</clus>
<clus scale="  147.013">  2  5  1 -1</clus>
</clustering>
</event>
<event>
 9    1  0.1266593E-005  0.9509536E+02  0.7546771E-02  0.1291914E+00
          1   -1    0    0  502    0  0.00000000000E+00  0.00000000000E+00  0.18412529714E+03  0.18412529714E+03  0.00000000000E+00 0. -1.
         -1   -1    0    0    0  501 -0.00000000000E+00 -0.00000000000E+00 -0.96454094868E+02  0.96454094868E+02  0.00000000000E+00 0.  1.
         23    2    1    2    0    0 -0.46408503938E+01 -0.40778972919E+02  0.36575886513E+02  0.10543862437E+03  0.89972473064E+02 0.  0.
         23    2    1    2    0    0 -0.20093518756E+02  0.11575635244E+02  0.82588724891E+02  0.12557809250E+03  0.91712676389E+02 0.  0.
        -11    1    3    3    0    0  0.18344360733E+02  0.92078999327E+01 -0.18469402060E+02  0.27611950390E+02  0.00000000000E+00 0.  1.
         11    1    3    3    0    0 -0.22985211127E+02 -0.49986872852E+02  0.55045288574E+02  0.77826673976E+02  0.00000000000E+00 0. -1.
        -13    1    4    4    0    0 -0.44209137313E+02 -0.87233303792E+01  0.82559539307E+02  0.94056482209E+02  0.00000000000E+00 0. -1.
         13    1    4    4    0    0  0.24115618557E+02  0.20298965623E+02  0.29185584085E-01  0.31521610295E+02  0.00000000000E+00 0.  1.
         21    1    1    2  502  501  0.24734369150E+02  0.29203337675E+02 -0.31493409129E+02  0.49562675141E+02  0.00000000000E+00 0.  1.
<scales pt_clust_5="13000.00000" pt_clust_6="13000.00000" pt_clust_7="13000.00000" pt_clust_8="13000.00000" pt_clust_9="38.27041"></scales>
<clustering>
<clus scale="   38.270">  2  9  1 -1</clus>
<clus scale="   89.972">  5  6 -1 -1</clus>
<clus scale="   91.713">  7  8 -1 -1</clus>
<clus scale="   93.418">  2  5  1 -1</clus>
<clus scale="   95.095">  1  5  2 -1</clus>
</clustering>
</event>
<event>
 9    1  0.1266593E-005  0.9983568E+02  0.7546771E-02  0.1281976E+00
          4   -1    0    0  502    0  0.00000000000E+00  0.00000000000E+00  0.57967196926E+02  0.57967196926E+02  0.00000000000E+00 0.  1.
         -4   -1    0    0    0  501 -0.00000000000E+00 -0.00000000000E+00 -0.21531162219E+03  0.21531162219E+03  0.00000000000E+00 0. -1.
         23    2    1    2    0    0 -0.22845342187E+02 -0.13412639053E+02 -0.75590714042E+02  0.12141892001E+03  0.91251244054E+02 0.  0.
         23    2    1    2    0    0  0.41112021552E+02  0.43236393165E+01 -0.50061974390E+02  0.11416841897E+03  0.93911311553E+02 0.  0.
        -11    1    3    3    0    0 -0.57586596340E+02 -0.16830084225E+02 -0.44889012569E+02  0.74929908998E+02  0.00000000000E+00 0.  1.
         11    1    3    3    0    0  0.34741254153E+02  0.34174451719E+01 -0.30701701473E+02  0.46489011013E+02  0.00000000000E+00 0. -1.
        -13    1    4    4    0    0  0.23185865470E+02 -0.41996952765E+02 -0.70946264094E+01  0.48493939034E+02  0.00000000000E+00 0.  1.
         13    1    4    4    0    0  0.17926156082E+02  0.46320592081E+02 -0.42967347980E+02  0.65674479938E+02  0.00000000000E+00 0. -1.
         21    1    1    2  502  501 -0.18266679365E+02  0.90889997369E+01 -0.31691736837E+02  0.37691480138E+02  0.00000000000E+00 0. -1.
<scales pt_clust_5="13000.00000" pt_clust_6="13000.00000" pt_clust_7="13000.00000" pt_clust_8="13000.00000" pt_clust_9="20.40298"></scales>
<clustering>
<clus scale="   20.403">  2  9  1 -1</clus>
<clus scale="   91.251">  5  6 -1 -1</clus>
<clus scale="   93.911">  7  8 -1 -1</clus>
<clus scale="   97.338">  2  5  1 -1</clus>
<clus scale="   99.836">  1  5  2 -1</clus>
</clustering>
</event>
<event>
 9    1  0.1266593E-005  0.9206058E+02  0.7546771E-02  0.1297942E+00
         -2   -1    0    0    0  501 -0.00000000000E+00  0.00000000000E+00  0.71836676733E+02  0.71836676733E+02  0.00000000000E+00 0.  1.
          2   -1    0    0  502    0  0.00000000000E+00 -0.00000000000E+00 -0.21343234798E+03  0.21343234798E+03  0.00000000000E+00 0. -1.
         23    2    1    2    0    0 -0.22390196921E+02 -0.74828489613E+01 -0.71481157791E+02  0.11782301362E+03  0.90638803348E+02 0.  0.
         23    2    1    2    0    0  0.10585798201E+02 -0.11509064018E+02 -0.96198741295E+02  0.13308871886E+03  0.90630522360E+02 0.  0.
        -11    1    4    4    0    0 -0.37207932774E+02  0.95823901847E+00 -0.64284851725E+02  0.74282505643E+02  0.00000000000E+00 0. -1.
         11    1    4    4    0    0  0.47793730975E+02 -0.12467303037E+02 -0.31913889571E+02  0.58806213218E+02  0.00000000000E+00 0.  1.
        -13    1    3    3    0    0  0.19840612551E+02  0.17047437799E+02  0.54298295820E+01  0.26716064290E+02  0.00000000000E+00 0.  1.
         13    1    3    3    0    0 -0.42230809472E+02 -0.24530286760E+02 -0.76910987373E+02  0.91106949329E+02  0.00000000000E+00 0. -1.
         21    1    1    2  502  501  0.11804398721E+02  0.18991912980E+02  0.26084227838E+02  0.34357292234E+02  0.00000000000E+00 0. -1.
<scales pt_clust_5="13000.00000" pt_clust_6="13000.00000" pt_clust_7="13000.00000" pt_clust_8="13000.00000" pt_clust_9="22.36150"></scales>
<clustering>
<clus scale="   22.361">  1  9  2 -1</clus>
<clus scale="   90.631">  5  6 -1 -1</clus>
<clus scale="   90.639">  7  8 -1 -1</clus>
<clus scale="   92.052">  2  5  1 -1</clus>
<clus scale="   92.052">  2  5  1 -1</clus>
</clustering>
</event>
<event>
 9    1  0.1266593E-005  0.3392571E+03  0.7546771E-02  0.1067124E+00
          1   -1    0    0  502    0  0.00000000000E+00  0.00000000000E+00  0.18754219108E+03  0.18754219108E+03  0.00000000000E+00 0. -1.
         -1   -1    0    0    0  501 -0.00000000000E+00 -0.00000000000E+00 -0.15748785943E+04  0.15748785943E+04  0.00000000000E+00 0.  1.
         23    2    1    2    0    0 -0.21698872306E+03  0.10280358433E+03 -0.89469490417E+03  0.93075707727E+03  0.90427221833E+02 0.  0.
         23    2    1    2    0    0  0.35285714451E+03  0.72592934108E+01 -0.65439731697E+02  0.37006278195E+03  0.90018011129E+02 0.  0.
        -11    1    4    4    0    0  0.14792946801E+03  0.64516459531E+01 -0.72805488979E+02  0.16500118323E+03  0.00000000000E+00 0.  1.
         11    1    4    4    0    0  0.20492767650E+03  0.80764745767E+00  0.73657572816E+01  0.20506159873E+03  0.00000000000E+00 0. -1.
        -13    1    3    3    0    0 -0.20148346043E+03  0.11820002657E+03 -0.83951569195E+03  0.87140887540E+03  0.00000000000E+00 0.  1.
         13    1    3    3    0    0 -0.15505262633E+02 -0.15396442238E+02 -0.55179212225E+02  0.59348201866E+02  0.00000000000E+00 0. -1.
         21    1    1    2  502  501 -0.13586842145E+03 -0.11006287774E+03 -0.42720176731E+03  0.46160092612E+03  0.00000000000E+00 0.  1.
<scales pt_clust_5="13000.00000" pt_clust_6="13000.00000" pt_clust_7="13000.00000" pt_clust_8="13000.00000" pt_clust_9="174.85441"></scales>
<clustering>
<clus scale="   90.018">  5  6 -1 -1</clus>
<clus scale="   90.427">  7  8 -1 -1</clus>
<clus scale="  174.854">  2  9  1 -1</clus>
<clus scale="  339.148">  1  5  2 -1</clus>
<clus scale="  339.148">  1  5  2 -1</clus>
</clustering>
</event>
<event>
 9    1  0.1266593E-005  0.1425002E+03  0.7546771E-02  0.1210311E+00
          2   -1    0    0  502    0  0.00000000000E+00  0.00000000000E+00  0.38151889651E+03  0.38151889651E+03  0.00000000000E+00 0. -1.
         -2   -1    0    0    0  501 -0.00000000000E+00 -0.00000000000E+00 -0.90525538981E+02  0.90525538981E+02  0.00000000000E+00 0.  1.
         23    2    1    2    0    0  0.31302109443E+01 -0.10220046765E+03  0.52760398072E+02  0.14572774848E+03  0.89432562650E+02 0.  0.
         23    2    1    2    0    0  0.55406064073E+02  0.12098241468E+03  0.16386130155E+03  0.22982627025E+03  0.90901109758E+02 0.  0.
        -11    1    3    3    0    0  0.45683707696E+02 -0.47502503763E+02  0.18688463251E+02  0.68503632541E+02  0.00000000000E+00 0. -1.
         11    1    3    3    0    0 -0.42553496752E+02 -0.54697963889E+02  0.34071934821E+02  0.77224115934E+02  0.00000000000E+00 0.  1.
        -13    1    4    4    0    0 -0.16764777263E+01  0.73518708808E+02  0.35767636217E+02  0.81774903992E+02  0.00000000000E+00 0.  1.
         13    1    4    4    0    0  0.57082541800E+02  0.47463705872E+02  0.12809366533E+03  0.14805136626E+03  0.00000000000E+00 0. -1.
         21    1    1    2  502  501 -0.58536275018E+02 -0.18781947027E+02  0.74371657906E+02  0.96490416762E+02  0.00000000000E+00 0.  1.
<scales pt_clust_5="13000.00000" pt_clust_6="13000.00000" pt_clust_7="13000.00000" pt_clust_8="13000.00000" pt_clust_9="61.47566"></scales>
<clustering>
<clus scale="   61.476">  1  9  2 -1</clus>
<clus scale="   89.433">  5  6 -1 -1</clus>
<clus scale="   90.901">  7  8 -1 -1</clus>
<clus scale="  141.568">  2  5  1 -1</clus>
<clus scale="   61.476">  1  5  2 -1</clus>
</clustering>
</event>
<event>
 9    1  0.1266593E-005  0.1245528E+03  0.7546771E-02  0.1240583E+00
         -2   -1    0    0    0  501 -0.00000000000E+00  0.00000000000E+00  0.37779717613E+03  0.37779717613E+03  0.00000000000E+00 0.  1.
          2   -1    0    0  502    0  0.00000000000E+00 -0.00000000000E+00 -0.84495804425E+02  0.84495804425E+02  0.00000000000E+00 0. -1.
         23    2    1    2    0    0  0.31167659256E+02 -0.11967482310E+02  0.13385505018E+03  0.16803219765E+03  0.95932274916E+02 0.  0.
         23    2    1    2    0    0 -0.96125007511E+02  0.47350596940E+02  0.15835788740E+03  0.22028371496E+03  0.10938737804E+03 0.  0.
        -11    1    4    4    0    0 -0.11538292642E+03  0.57649301473E+02  0.14734782492E+03  0.19582656403E+03  0.00000000000E+00 0.  1.
         11    1    4    4    0    0  0.19257918910E+02 -0.10298704533E+02  0.11010062477E+02  0.24457150929E+02  0.00000000000E+00 0. -1.
        -11    1    3    3    0    0  0.30179989077E+02 -0.46551268950E+02  0.41127112657E+02  0.69060059203E+02  0.00000000000E+00 0. -1.
         11    1    3    3    0    0  0.98767017977E+00  0.34583786640E+02  0.92727937523E+02  0.98972138443E+02  0.00000000000E+00 0.  1.
         21    1    1    2  502  501  0.64957348255E+02 -0.35383114630E+02  0.10884341191E+01  0.73977067947E+02  0.00000000000E+00 0. -1.
<scales pt_clust_5="13000.00000" pt_clust_6="13000.00000" pt_clust_7="13000.00000" pt_clust_8="13000.00000" pt_clust_9="73.96906"></scales>
<clustering>
<clus scale="   73.969">  2  9  1 -1</clus>
<clus scale="   95.932">  7  8 -1 -1</clus>
<clus scale="  109.387">  5  6 -1 -1</clus>
<clus scale="  112.919">  1  7  2 -1</clus>
<clus scale="   73.969">  2  5  1 -1</clus>
</clustering>
</event>
<event>
 9    1  0.1266593E-005  0.1081909E+03  0.7546771E-02  0.1265453E+00
         -2   -1    0    0    0  501 -0.00000000000E+00  0.00000000000E+00  0.19376208894E+03  0.19376208894E+03  0.00000000000E+00 0.  1.
          2   -1    0    0  502    0  0.00000000000E+00 -0.00000000000E+00 -0.85523571031E+02  0.85523571031E+02  0.00000000000E+00 0. -1.
         23    2    1    2    0    0  0.33475232915E+02 -0.17974286135E+02  0.95660345811E+02  0.13754506011E+03  0.91236372233E+02 0.  0.
         23    2    1    2    0    0 -0.48827017104E+02  0.32046478861E+02 -0.90491598328E+01  0.11171651999E+03  0.94803159957E+02 0.  0.
        -13    1    3    3    0    0  0.32958005101E+02 -0.51294666341E+02  0.40819154081E+02  0.73372857619E+02  0.00000000000E+00 0. -1.
         13    1    3    3    0    0  0.51722781398E+00  0.33320380207E+02  0.54841191730E+02  0.64172202487E+02  0.00000000000E+00 0.  1.
        -13    1    4    4    0    0  0.26807944178E+02  0.22554959016E+02 -0.49039788599E+01  0.35375712797E+02  0.00000000000E+00 0. -1.
         13    1    4    4    0    0 -0.75634961282E+02  0.94915198449E+01 -0.41451809729E+01  0.76340807190E+02  0.00000000000E+00 0.  1.
         21    1    1    2  502  501  0.15351784189E+02 -0.14072192726E+02  0.21627331928E+02  0.30024079873E+02  0.00000000000E+00 0. -1.
<scales pt_clust_5="13000.00000" pt_clust_6="13000.00000" pt_clust_7="13000.00000" pt_clust_8="13000.00000" pt_clust_9="20.82556"></scales>
<clustering>
<clus scale="   20.826">  1  9  2 -1</clus>
<clus scale="   91.236">  5  6 -1 -1</clus>
<clus scale="   94.803">  7  8 -1 -1</clus>
<clus scale="  105.080">  1  5  2 -1</clus>
<clus scale="  108.191">  2  5  1 -1</clus>
</clustering>
</event>
<event>
 9    1  0.1266593E-005  0.9779724E+02  0.7546771E-02  0.1285349E+00
         -2   -1    0    0    0  501 -0.00000000000E+00  0.00000000000E+00  0.26784315567E+03  0.26784315567E+03  0.00000000000E+00 0.  1.
          2   -1    0    0  502    0  0.00000000000E+00 -0.00000000000E+00 -0.91709834617E+02  0.91709834617E+02  0.00000000000E+00 0. -1.
         23    2    1    2    0    0  0.29369502331E+01  0.23943161454E+02  0.11655596855E+03  0.15033183811E+03  0.91828465555E+02 0.  0.
         23    2    1    2    0    0 -0.39699583829E+02 -0.66575557338E+01 -0.35547833635E+02  0.10578477351E+03  0.91139397776E+02 0.  0.
        -13    1    4    4    0    0 -0.44337142528E+02  0.34149078731E+02 -0.84918832958E+01  0.56604362620E+02  0.00000000000E+00 0.  1.
         13    1    4    4    0    0  0.46375586984E+01 -0.40806634465E+02 -0.27055950339E+02  0.49180410895E+02  0.00000000000E+00 0. -1.
        -13    1    3    3    0    0 -0.21867896696E+02  0.41195001663E+02  0.22969222645E+02  0.51988635843E+02  0.00000000000E+00 0. -1.
         13    1    3    3    0    0  0.24804846929E+02 -0.17251840210E+02  0.93586745908E+02  0.98343202263E+02  0.00000000000E+00 0.  1.
         21    1    1    2  502  501  0.36762633596E+02 -0.17285605720E+02  0.95125186132E+02  0.10343637866E+03  0.00000000000E+00 0.  1.
<scales pt_clust_5="13000.00000" pt_clust_6="13000.00000" pt_clust_7="13000.00000" pt_clust_8="13000.00000" pt_clust_9="40.62368"></scales>
<clustering>
<clus scale="   40.624">  1  9  2 -1</clus>
<clus scale="   91.139">  5  6 -1 -1</clus>
<clus scale="   91.828">  7  8 -1 -1</clus>
<clus scale="   97.151">  2  5  1 -1</clus>
<clus scale="   97.151">  2  5  1 -1</clus>
</clustering>
</event>
<event>
 9    1  0.1266593E-005  0.1322013E+03  0.7546771E-02  0.1224344E+00
         -1   -1    0    0    0  501 -0.00000000000E+00  0.00000000000E+00  0.17208717189E+03  0.17208717189E+03  0.00000000000E+00 0.  1.
          1   -1    0    0  502    0  0.00000000000E+00 -0.00000000000E+00 -0.13094737953E+03  0.13094737953E+03  0.00000000000E+00 0. -1.
         23    2    1    2    0    0 -0.48715877596E+02 -0.66954626624E+02  0.27496276501E+02  0.12599895624E+03  0.90903976789E+02 0.  0.
         23    2    1    2    0    0  0.71647072101E+02  0.85495901559E+02  0.23167249424E+02  0.14604656392E+03  0.91378472640E+02 0.  0.
        -13    1    3    3    0    0 -0.68497845776E+02 -0.51005333419E+02 -0.40418825386E+01  0.85497577320E+02  0.00000000000E+00 0.  1.
         13    1    3    3    0    0  0.19781968180E+02 -0.15949293205E+02  0.31538159040E+02  0.40501378920E+02  0.00000000000E+00 0. -1.
        -13    1    4    4    0    0  0.70376686619E+02  0.28071310685E+02 -0.14790925975E+02  0.77198756430E+02  0.00000000000E+00 0. -1.
         13    1    4    4    0    0  0.12703854822E+01  0.57424590874E+02  0.37958175398E+02  0.68847807487E+02  0.00000000000E+00 0.  1.
         21    1    1    2  502  501 -0.22931194506E+02 -0.18541274935E+02 -0.95237335662E+01  0.30989031265E+02  0.00000000000E+00 0. -1.
<scales pt_clust_5="13000.00000" pt_clust_6="13000.00000" pt_clust_7="13000.00000" pt_clust_8="13000.00000" pt_clust_9="29.48930"></scales>
<clustering>
<clus scale="   29.489">  2  9  1 -1</clus>
<clus scale="   90.904">  5  6 -1 -1</clus>
<clus scale="   91.378">  7  8 -1 -1</clus>
<clus scale="  131.874">  1  5  2 -1</clus>
<clus scale="   29.489">  2  5  1 -1</clus>
</clustering>
</event>
<event>
 9    1  0.1266593E-005  0.1049920E+03  0.7546771E-02  0.1271713E+00
          2   -1    0    0  502    0  0.00000000000E+00  0.00000000000E+00  0.39840490044E+03  0.39840490044E+03  0.00000000000E+00 0. -1.
         -2   -1    0    0    0  501 -0.00000000000E+00 -0.00000000000E+00 -0.48126903194E+02  0.48126903194E+02  0.00000000000E+00 0.  1.
         23    2    1    2    0    0 -0.26213274302E+01 -0.30499771645E+02  0.88863573617E+02  0.13053476581E+03  0.90584120793E+02 0.  0.
         23    2    1    2    0    0  0.14430755551E+02  0.63333595186E+02  0.25924546241E+03  0.28103667522E+03  0.86913819703E+02 0.  0.
        -11    1    3    3    0    0 -0.27828955354E+02  0.73076992203E+01  0.78944554196E+02  0.84024376589E+02  0.00000000000E+00 0. -1.
         11    1    3    3    0    0  0.25207627923E+02 -0.37807470866E+02  0.99190194216E+01  0.46510389217E+02  0.00000000000E+00 0.  1.
        -13    1    4    4    0    0  0.36487113122E+02 -0.39717560891E+01  0.71377602152E+02  0.80261113619E+02  0.00000000000E+00 0.  1.
         13    1    4    4    0    0 -0.22056357571E+02  0.67305351275E+02  0.18786786026E+03  0.20077556160E+03  0.00000000000E+00 0. -1.
         21    1    1    2  502  501 -0.11809428121E+02 -0.32833823541E+02  0.21689612205E+01  0.34960362607E+02  0.00000000000E+00 0.  1.
<scales pt_clust_5="13000.00000" pt_clust_6="13000.00000" pt_clust_7="13000.00000" pt_clust_8="13000.00000" pt_clust_9="34.89302"></scales>
<clustering>
<clus scale="   34.893">  2  9  1 -1</clus>
<clus scale="   86.914">  7  8 -1 -1</clus>
<clus scale="   90.584">  5  6 -1 -1</clus>
<clus scale="  101.842">  1  7  2 -1</clus>
<clus scale="  101.842">  1  5  2 -1</clus>
</clustering>
</event>
<event>
 9    1  0.1266593E-005  0.2518177E+03  0.7546771E-02  0.1113274E+00
         -1   -1    0    0    0  501 -0.00000000000E+00  0.00000000000E+00  0.17400058053E+03  0.17400058053E+03  0.00000000000E+00 0.  1.
          1   -1    0    0  502    0  0.00000000000E+00 -0.00000000000E+00 -0.55106287366E+03  0.55106287366E+03  0.00000000000E+00 0. -1.
         23    2    1    2    0    0 -0.21701650201E+03 -0.12374742306E+03 -0.92950896891E+02  0.28253425135E+03  0.93681092514E+02 0.  0.
         23    2    1    2    0    0  0.16890039977E+03  0.13539310102E+03 -0.30392417114E+03  0.38920634509E+03  0.11069345242E+03 0.  0.
        -11    1    4    4    0    0  0.54993550580E+02  0.11499469337E+02 -0.15358218280E+03  0.16353597547E+03  0.00000000000E+00 0.  1.
         11    1    4    4    0    0  0.11390684919E+03  0.12389363169E+03 -0.15034198834E+03  0.22567036962E+03  0.00000000000E+00 0. -1.
        -13    1    3    3    0    0 -0.12740237633E+03 -0.25316199069E+02 -0.22169887186E+02  0.13177169395E+03  0.00000000000E+00 0.  1.
         13    1    3    3    0    0 -0.89614125680E+02 -0.98431223989E+02 -0.70781009705E+02  0.15076255740E+03  0.00000000000E+00 0. -1.
         21    1    1    2  502  501  0.48116102237E+02 -0.11645677964E+02  0.19812774902E+02  0.53322857753E+02  0.00000000000E+00 0. -1.
<scales pt_clust_5="13000.00000" pt_clust_6="13000.00000" pt_clust_7="13000.00000" pt_clust_8="13000.00000" pt_clust_9="49.50536"></scales>
<clustering>
<clus scale="   49.505">  1  9  2 -1</clus>
<clus scale="   93.681">  7  8 -1 -1</clus>
<clus scale="  110.693">  5  6 -1 -1</clus>
<clus scale="  244.817">  1  7  2 -1</clus>
<clus scale="  251.818">  2  5  1 -1</clus>
</clustering>
</event>
<event>
 9    1  0.1266593E-005  0.1133064E+03  0.7546771E-02  0.1254600E+00
          2   -1    0    0  502    0  0.00000000000E+00  0.00000000000E+00  0.58353248805E+02  0.58353248805E+02  0.00000000000E+00 0. -1.
         -2   -1    0    0    0  501 -0.00000000000E+00 -0.00000000000E+00 -0.38698152672E+03  0.38698152672E+03  0.00000000000E+00 0.  1.
         23    2    1    2    0    0 -0.55352522306E+02 -0.85837926797E+00 -0.19595996010E+03  0.22343638100E+03  0.91972125398E+02 0.  0.
         23    2    1    2    0    0  0.64274825178E+02  0.32110523711E+02 -0.39591878213E+02  0.12331072983E+03  0.92063458479E+02 0.  0.
        -11    1    3    3    0    0 -0.17611483489E+02 -0.39678473260E+02 -0.13546679162E+03  0.14225258249E+03  0.00000000000E+00 0.  1.
         11    1    3    3    0    0 -0.37741038817E+02  0.38820093992E+02 -0.60493168477E+02  0.81183798513E+02  0.00000000000E+00 0. -1.
        -13    1    4    4    0    0  0.44529684604E+02  0.13987675231E+02 -0.69139000823E+02  0.83419118337E+02  0.00000000000E+00 0.  1.
         13    1    4    4    0    0  0.19745140574E+02  0.18122848480E+02  0.29547122610E+02  0.39891611497E+02  0.00000000000E+00 0. -1.
         21    1    1    2  502  501 -0.89223028717E+01 -0.31252144443E+02 -0.93076439601E+02  0.98587664693E+02  0.00000000000E+00 0. -1.
<scales pt_clust_5="13000.00000" pt_clust_6="13000.00000" pt_clust_7="13000.00000" pt_clust_8="13000.00000" pt_clust_9="32.50083"></scales>
<clustering>
<clus scale="   32.501">  2  9  1 -1</clus>
<clus scale="   91.972">  5  6 -1 -1</clus>
<clus scale="   92.063">  7  8 -1 -1</clus>
<clus scale="  113.232">  2  5  1 -1</clus>
<clus scale="  113.306">  1  5  2 -1</clus>
</clustering>
</event>
<event>
 9    1  0.1266593E-005  0.1036950E+03  0.7546771E-02  0.1273417E+00
         -1   -1    0    0    0  501 -0.00000000000E+00  0.00000000000E+00  0.11935372353E+03  0.11935372353E+03  0.00000000000E+00 0.  1.
          1   -1    0    0  502    0  0.00000000000E+00 -0.00000000000E+00 -0.27253835384E+03  0.27253835384E+03  0.00000000000E+00 0. -1.
         23    2    1    2    0    0  0.53236026611E+02 -0.37183620972E+02 -0.17962870546E+02  0.11490875313E+03  0.93084158851E+02 0.  0.
         23    2    1    2    0    0 -0.36799476296E+02  0.17925515182E+02 -0.19100627498E+03  0.21572202355E+03  0.91526328530E+02 0.  0.
        -11    1    4    4    0    0 -0.15774918175E+02 -0.35233491924E+02 -0.47238792819E+02  0.61006151687E+02  0.00000000000E+00 0.  1.
         11    1    4    4    0    0 -0.21024558121E+02  0.53159007106E+02 -0.14376748216E+03  0.15471587187E+03  0.00000000000E+00 0. -1.
        -13    1    3    3    0    0  0.43892568702E+02 -0.13001150080E+02 -0.53823859353E+02  0.70658299769E+02  0.00000000000E+00 0. -1.
         13    1    3    3    0    0  0.93434579094E+01 -0.24182470892E+02  0.35860988807E+02  0.44250453358E+02  0.00000000000E+00 0.  1.
         21    1    1    2  502  501 -0.16436550315E+02  0.19258105790E+02  0.55784515216E+02  0.61261300695E+02  0.00000000000E+00 0.  1.
<scales pt_clust_5="13000.00000" pt_clust_6="13000.00000" pt_clust_7="13000.00000" pt_clust_8="13000.00000" pt_clust_9="25.31867"></scales>
<clustering>
<clus scale="   25.319">  1  9  2 -1</clus>
<clus scale="   91.526">  5  6 -1 -1</clus>
<clus scale="   93.084">  7  8 -1 -1</clus>
<clus scale="  102.299">  2  5  1 -1</clus>
<clus scale="  102.299">  2  5  1 -1</clus>
</clustering>
</event>
<event>
 9    1  0.1266593E-005  0.9606975E+02  0.7546771E-02  0.1288785E+00
         -1   -1    0    0    0  501 -0.00000000000E+00  0.00000000000E+00  0.20963254151E+03  0.20963254151E+03  0.00000000000E+00 0.  1.
          1   -1    0    0  502    0  0.00000000000E+00 -0.00000000000E+00 -0.91548803018E+02  0.91548803018E+02  0.00000000000E+00 0. -1.
         23    2    1    2    0    0 -0.10243511268E+01  0.10309317499E+02  0.95007672088E+02  0.13312311304E+03  0.92671323217E+02 0.  0.
         23    2    1    2    0    0  0.31468372583E+02 -0.61041887538E+01 -0.33542575527E+02  0.10363624639E+03  0.92670640439E+02 0.  0.
        -11    1    4    4    0    0  0.34958913126E+02 -0.41042778305E+02  0.16290615180E+01  0.53937826239E+02  0.00000000000E+00 0.  1.
         11    1    4    4    0    0 -0.34905405423E+01  0.34938589551E+02 -0.35171637045E+02  0.49698420151E+02  0.00000000000E+00 0. -1.
        -13    1    3    3    0    0  0.22983830848E+02 -0.34540906474E+02  0.51886692676E+02  0.66434626343E+02  0.00000000000E+00 0.  1.
         13    1    3    3    0    0 -0.24008181974E+02  0.44850223973E+02  0.43120979412E+02  0.66688486695E+02  0.00000000000E+00 0. -1.
         21    1    1    2  502  501 -0.30444021457E+02 -0.42051287455E+01  0.56618641932E+02  0.64421985102E+02  0.00000000000E+00 0.  1.
<scales pt_clust_5="13000.00000" pt_clust_6="13000.00000" pt_clust_7="13000.00000" pt_clust_8="13000.00000" pt_clust_9="30.73307"></scales>
<clustering>
<clus scale="   30.733">  1  9  2 -1</clus>
<clus scale="   92.671">  5  6 -1 -1</clus>
<clus scale="   92.671">  7  8 -1 -1</clus>
<clus scale="   96.069">  2  5  1 -1</clus>
<clus scale="   96.069">  2  5  1 -1</clus>
</clustering>
</event>
<event>
 9    1  0.1266593E-005  0.1039182E+03  0.7546771E-02  0.1272463E+00
          1   -1    0    0  502    0  0.00000000000E+00  0.00000000000E+00  0.12292760093E+03  0.12292760093E+03  0.00000000000E+00 0. -1.
         -1   -1    0    0    0  501 -0.00000000000E+00 -0.00000000000E+00 -0.19972447858E+03  0.19972447858E+03  0.00000000000E+00 0.  1.
         23    2    1    2    0    0 -0.41766760747E+01 -0.19451811513E+02 -0.10858337924E+03  0.14609365754E+03  0.95693202117E+02 0.  0.
         23    2    1    2    0    0  0.42202090620E+01  0.44817410055E+02  0.72986727971E+02  0.12817584103E+03  0.95265803704E+02 0.  0.
        -13    1    3    3    0    0  0.23164037019E+02 -0.44532690688E+02 -0.93341382656E+02  0.10598276684E+03  0.00000000000E+00 0.  1.
         13    1    3    3    0    0 -0.27340713093E+02  0.25080879175E+02 -0.15241996583E+02  0.40110890697E+02  0.00000000000E+00 0. -1.
        -13    1    4    4    0    0 -0.44976904435E+02  0.14867978246E+02  0.38511482703E+02  0.61050086074E+02  0.00000000000E+00 0.  1.
         13    1    4    4    0    0  0.49197113497E+02  0.29949431808E+02  0.34475245268E+02  0.67125754956E+02  0.00000000000E+00 0. -1.
         21    1    1    2  502  501 -0.43532987333E-01 -0.25365598542E+02 -0.41200226378E+02  0.48382580937E+02  0.00000000000E+00 0. -1.
<scales pt_clust_5="13000.00000" pt_clust_6="13000.00000" pt_clust_7="13000.00000" pt_clust_8="13000.00000" pt_clust_9="25.36564"></scales>
<clustering>
<clus scale="   25.366">  2  9  1 -1</clus>
<clus scale="   95.266">  7  8 -1 -1</clus>
<clus scale="   95.693">  5  6 -1 -1</clus>
<clus scale="  103.525">  1  7  2 -1</clus>
<clus scale="  103.525">  1  5  2 -1</clus>
</clustering>
</event>
<event>
 9    1  0.1266593E-005  0.3932362E+03  0.7546771E-02  0.1046190E+00
         -1   -1    0    0    0  501 -0.00000000000E+00  0.00000000000E+00  0.27726858419E+03  0.27726858419E+03  0.00000000000E+00 0.  1.
          1   -1    0    0  502    0  0.00000000000E+00 -0.00000000000E+00 -0.77304066503E+03  0.77304066503E+03  0.00000000000E+00 0. -1.
         23    2    1    2    0    0 -0.30791603913E+03 -0.23212707721E+03 -0.27050714934E+02  0.39764300871E+03  0.93236012716E+02 0.  0.
         23    2    1    2    0    0  0.26633202000E+03  0.26705354072E+03 -0.35185487089E+03  0.52379861014E+03  0.91174532219E+02 0.  0.
        -11    1    3    3    0    0 -0.25562042808E+03 -0.23081519090E+03 -0.23775152856E+02  0.34522849461E+03  0.00000000000E+00 0.  1.
         11    1    3    3    0    0 -0.52295611048E+02 -0.13118863169E+01 -0.32755620778E+01  0.52414514093E+02  0.00000000000E+00 0. -1.
        -13    1    4    4    0    0  0.73008023367E+02  0.13588876506E+03 -0.14697284471E+03  0.21306558856E+03  0.00000000000E+00 0.  1.
         13    1    4    4    0    0  0.19332399663E+03  0.13116477565E+03 -0.20488202617E+03  0.31073302157E+03  0.00000000000E+00 0. -1.
         21    1    1    2  502  501  0.41584019126E+02 -0.34926463503E+02 -0.11686649503E+03  0.12886763038E+03  0.00000000000E+00 0. -1.
<scales pt_clust_5="13000.00000" pt_clust_6="13000.00000" pt_clust_7="13000.00000" pt_clust_8="13000.00000" pt_clust_9="54.30551"></scales>
<clustering>
<clus scale="   54.306">  2  9  1 -1</clus>
<clus scale="   91.175">  7  8 -1 -1</clus>
<clus scale="   93.236">  5  6 -1 -1</clus>
<clus scale="  392.753">  2  7  1 -1</clus>
<clus scale="   54.306">  2  5  1 -1</clus>
</clustering>
</event>
<event>
 9    1  0.1266593E-005  0.1210289E+03  0.7546771E-02  0.1241582E+00
          2   -1    0    0  502    0  0.00000000000E+00  0.00000000000E+00  0.47663325643E+03  0.47663325643E+03  0.00000000000E+00 0. -1.
         -2   -1    0    0    0  501 -0.00000000000E+00 -0.00000000000E+00 -0.71171520629E+02  0.71171520629E+02  0.00000000000E+00 0.  1.
         23    2    1    2    0    0 -0.86926998641E+02 -0.20194504514E+02  0.22772233323E+03  0.26118337747E+03  0.91625184896E+02 0.  0.
         23    2    1    2    0    0  0.66679932091E+02  0.22861127674E+02  0.21513221623E+03  0.24401533081E+03  0.91064629294E+02 0.  0.
        -11    1    3    3    0    0 -0.38031018482E+02 -0.53770407289E+02  0.14636115569E+03  0.16049673816E+03  0.00000000000E+00 0. -1.
         11    1    3    3    0    0 -0.48895980159E+02  0.33575902775E+02  0.81361177544E+02  0.10068663930E+03  0.00000000000E+00 0.  1.
        -11    1    4    4    0    0  0.67156057471E+02 -0.21325719308E+02  0.14315188627E+03  0.15955307863E+03  0.00000000000E+00 0.  1.
         11    1    4    4    0    0 -0.47612537945E+00  0.44186846982E+02  0.71980329959E+02  0.84462252176E+02  0.00000000000E+00 0. -1.
         21    1    1    2  502  501  0.20247066550E+02 -0.26666231606E+01 -0.37392813664E+02  0.42606068777E+02  0.00000000000E+00 0. -1.
<scales pt_clust_5="13000.00000" pt_clust_6="13000.00000" pt_clust_7="13000.00000" pt_clust_8="13000.00000" pt_clust_9="20.42191"></scales>
<clustering>
<clus scale="   20.422">  2  9  1 -1</clus>
<clus scale="   91.065">  7  8 -1 -1</clus>
<clus scale="   91.625">  5  6 -1 -1</clus>
<clus scale="  120.605">  1  7  2 -1</clus>
<clus scale="  120.605">  1  5  2 -1</clus>
</clustering>
</event>
<event>
 9    1  0.1266593E-005  0.9911980E+02  0.7546771E-02  0.1284875E+00
          3   -1    0    0  502    0  0.00000000000E+00  0.00000000000E+00  0.94564397892E+02  0.94564397892E+02  0.00000000000E+00 0. -1.
         -3   -1    0    0    0  501 -0.00000000000E+00 -0.00000000000E+00 -0.58411205337E+03  0.58411205337E+03  0.00000000000E+00 0.  1.
         23    2    1    2    0    0 -0.48008726413E+02 -0.87196836239E+02 -0.22633221432E+03  0.26376562275E+03  0.91858077743E+02 0.  0.
         23    2    1    2    0    0 -0.14586388354E+02  0.30097251418E+02  0.39339285292E+02  0.10071682239E+03  0.86473647302E+02 0.  0.
        -11    1    4    4    0    0  0.15812600822E+00 -0.21832648981E+02  0.41281236589E+02  0.46699358236E+02  0.00000000000E+00 0. -1.
         11    1    4    4    0    0 -0.14744514362E+02  0.51929900399E+02 -0.19419512966E+01  0.54017464158E+02  0.00000000000E+00 0.  1.
        -13    1    3    3    0    0  0.20193602584E+02 -0.27985914063E+02 -0.11683343682E+03  0.12182382743E+03  0.00000000000E+00 0.  1.
         13    1    3    3    0    0 -0.68202328996E+02 -0.59210922176E+02 -0.10949877750E+03  0.14194179532E+03  0.00000000000E+00 0. -1.
         21    1    1    2  502  501  0.62595114766E+02  0.57099584821E+02 -0.30255472645E+03  0.31419400611E+03  0.00000000000E+00 0.  1.
<scales pt_clust_5="13000.00000" pt_clust_6="13000.00000" pt_clust_7="13000.00000" pt_clust_8="13000.00000" pt_clust_9="84.72609"></scales>
<clustering>
<clus scale="   84.726">  2  9  1 -1</clus>
<clus scale="   86.474">  5  6 -1 -1</clus>
<clus scale="   91.858">  7  8 -1 -1</clus>
<clus scale="   94.152">  1  5  2 -1</clus>
<clus scale="   94.152">  1  5  2 -1</clus>
</clustering>
</event>
<event>
 9    1  0.1266593E-005  0.9180447E+02  0.7546771E-02  0.1300742E+00
          1   -1    0    0  502    0  0.00000000000E+00  0.00000000000E+00  0.45484654012E+02  0.45484654012E+02  0.00000000000E+00 0. -1.
         -1   -1    0    0    0  501 -0.00000000000E+00 -0.00000000000E+00 -0.39046587063E+03  0.39046587063E+03  0.00000000000E+00 0.  1.
         23    2    1    2    0    0  0.12646656843E+02  0.23092419947E+02 -0.12636230187E+03  0.15607500029E+03  0.87742672584E+02 0.  0.
         23    2    1    2    0    0 -0.57255574705E+01  0.15939321504E+02 -0.47839926852E+02  0.10455626938E+03  0.91413953464E+02 0.  0.
        -11    1    4    4    0    0 -0.62629142165E+01 -0.32436675913E+02  0.44324361579E+01  0.33331794567E+02  0.00000000000E+00 0. -1.
         11    1    4    4    0    0  0.53735674596E+00  0.48375997417E+02 -0.52272363010E+02  0.71224474817E+02  0.00000000000E+00 0.  1.
        -13    1    3    3    0    0  0.45914396570E+02  0.18977668469E+02 -0.41164081706E+02  0.64519495780E+02  0.00000000000E+00 0. -1.
         13    1    3    3    0    0 -0.33267739727E+02  0.41147514774E+01 -0.85198220168E+02  0.91555504510E+02  0.00000000000E+00 0.  1.
         21    1    1    2  502  501 -0.69210993729E+01 -0.39031741451E+02 -0.17077898790E+03  0.17531925497E+03  0.00000000000E+00 0. -1.
<scales pt_clust_5="13000.00000" pt_clust_6="13000.00000" pt_clust_7="13000.00000" pt_clust_8="13000.00000" pt_clust_9="39.64062"></scales>
<clustering>
<clus scale="   39.641">  2  9  1 -1</clus>
<clus scale="   87.743">  7  8 -1 -1</clus>
<clus scale="   88.149">  2  7  1 -1</clus>
<clus scale="   91.414">  5  6 -1 -1</clus>
<clus scale="   91.804">  1  5  2 -1</clus>
</clustering>
</event>
<event>
 9    1  0.1266593E-005  0.1383195E+03  0.7546771E-02  0.1220067E+00
          1   -1    0    0  502    0  0.00000000000E+00  0.00000000000E+00  0.32527002204E+03  0.32527002204E+03  0.00000000000E+00 0. -1.
         -1   -1    0    0    0  501 -0.00000000000E+00 -0.00000000000E+00 -0.97194332705E+02  0.97194332705E+02  0.00000000000E+00 0.  1.
         23    2    1    2    0    0 -0.15738503257E+02  0.12446273380E+03  0.11231178380E+03  0.19223253187E+03  0.92740158179E+02 0.  0.
         23    2    1    2    0    0  0.22046992894E+02 -0.46207435723E+02  0.66745134783E+02  0.13767627953E+03  0.10898921009E+03 0.  0.
        -11    1    4    4    0    0  0.44212132764E+01 -0.68713503943E+02  0.42892040108E+01  0.68989057263E+02  0.00000000000E+00 0.  1.
         11    1    4    4    0    0  0.17625779617E+02  0.22506068220E+02  0.62455930772E+02  0.68687222265E+02  0.00000000000E+00 0. -1.
        -13    1    3    3    0    0 -0.47671246880E+02  0.11194945618E+03  0.89339787385E+02  0.15095305935E+03  0.00000000000E+00 0. -1.
         13    1    3    3    0    0  0.31932743623E+02  0.12513277622E+02  0.22971996420E+02  0.41279472522E+02  0.00000000000E+00 0.  1.
         21    1    1    2  502  501 -0.63084896366E+01 -0.78255298075E+02  0.49018770744E+02  0.92555543343E+02  0.00000000000E+00 0.  1.
<scales pt_clust_5="13000.00000" pt_clust_6="13000.00000" pt_clust_7="13000.00000" pt_clust_8="13000.00000" pt_clust_9="78.50916"></scales>
<clustering>
<clus scale="   78.509">  2  9  1 -1</clus>
<clus scale="   92.740">  7  8 -1 -1</clus>
<clus scale="  108.989">  5  6 -1 -1</clus>
<clus scale="  125.914">  2  7  1 -1</clus>
<clus scale="  138.319">  1  5  2 -1</clus>
</clustering>
</event>
<event>
 9    1  0.1266593E-005  0.1733314E+03  0.7546771E-02  0.1203476E+00
          2   -1    0    0  502    0  0.00000000000E+00  0.00000000000E+00  0.41652777838E+03  0.41652777838E+03  0.00000000000E+00 0.  1.
         -2   -1    0    0    0  501 -0.00000000000E+00 -0.00000000000E+00 -0.11304120975E+03  0.11304120975E+03  0.00000000000E+00 0. -1.
         23    2    1    2    0    0 -0.73629310678E+02  0.11608395669E+03  0.17718932602E+03  0.24188711253E+03  0.90645229106E+02 0.  0.
         23    2    1    2    0    0 -0.86382492578E+00  0.16818848770E+02  0.95999912777E+02  0.13234253368E+03  0.89526214597E+02 0.  0.
        -13    1    3    3    0    0 -0.70195730387E+02  0.37663660774E+02  0.55542221091E+02  0.97112976637E+02  0.00000000000E+00 0. -1.
         13    1    3    3    0    0 -0.34335802912E+01  0.78420295920E+02  0.12164710493E+03  0.14477413589E+03  0.00000000000E+00 0.  1.
        -13    1    4    4    0    0 -0.21104996870E+02  0.24475968930E+02  0.10427862541E+03  0.10917200037E+03  0.00000000000E+00 0.  1.
         13    1    4    4    0    0  0.20241171944E+02 -0.76571201602E+01 -0.82787126341E+01  0.23170533306E+02  0.00000000000E+00 0. -1.
         21    1    1    2  502  501  0.74493135604E+02 -0.13290280546E+03  0.30297329828E+02  0.15533934192E+03  0.00000000000E+00 0. -1.
<scales pt_clust_5="13000.00000" pt_clust_6="13000.00000" pt_clust_7="13000.00000" pt_clust_8="13000.00000" pt_clust_9="147.74039"></scales>
<clustering>
<clus scale="   89.526">  7  8 -1 -1</clus>
<clus scale="   90.645">  5  6 -1 -1</clus>
<clus scale="   91.096">  1  7  2 -1</clus>
<clus scale="  147.740">  2  9  1 -1</clus>
<clus scale="   91.096">  1  5  2 -1</clus>
</clustering>
</event>
<event>
 9    1  0.1266593E-005  0.1031152E+03  0.7546771E-02  0.1277122E+00
         -2   -1    0    0    0  501 -0.00000000000E+00  0.00000000000E+00  0.45895773077E+02  0.45895773077E+02  0.00000000000E+00 0.  1.
          2   -1    0    0  502    0  0.00000000000E+00 -0.00000000000E+00 -0.43706189079E+03  0.43706189079E+03  0.00000000000E+00 0. -1.
         23    2    1    2    0    0 -0.23134271418E+02  0.47367108817E+02 -0.58014298439E+02  0.11908714685E+03  0.89650723414E+02 0.  0.
         23    2    1    2    0    0  0.20065465733E+02 -0.26082879843E+02 -0.32549599943E+03  0.34104405105E+03  0.96335141954E+02 0.  0.
        -11    1    3    3    0    0 -0.29730142123E+02  0.72095859086E+02 -0.38932193932E+02  0.87163122778E+02  0.00000000000E+00 0.  1.
         11    1    3    3    0    0  0.65958707051E+01 -0.24728750269E+02 -0.19082104506E+02  0.31924024067E+02  0.00000000000E+00 0. -1.
        -13    1    4    4    0    0 -0.11874706285E+02 -0.52053730679E+02 -0.24361648497E+03  0.24939845885E+03  0.00000000000E+00 0.  1.
         13    1    4    4    0    0  0.31940172018E+02  0.25970850836E+02 -0.81879514462E+02  0.91645592203E+02  0.00000000000E+00 0. -1.
         21    1    1    2  502  501  0.30688056854E+01 -0.21284228974E+02 -0.76558198471E+01  0.22826465975E+02  0.00000000000E+00 0.  1.
<scales pt_clust_5="13000.00000" pt_clust_6="13000.00000" pt_clust_7="13000.00000" pt_clust_8="13000.00000" pt_clust_9="21.50432"></scales>
<clustering>
<clus scale="   21.504">  1  9  2 -1</clus>
<clus scale="   89.651">  5  6 -1 -1</clus>
<clus scale="   96.335">  7  8 -1 -1</clus>
<clus scale="   96.900">  1  5  2 -1</clus>
<clus scale="  103.115">  2  5  1 -1</clus>
</clustering>
</event>
<event>
 9    1  0.1266593E-005  0.1153467E+03  0.7546771E-02  0.1251475E+00
          1   -1    0    0  502    0  0.00000000000E+00  0.00000000000E+00  0.17370666727E+03  0.17370666727E+03  0.00000000000E+00 0. -1.
         -1   -1    0    0    0  501 -0.00000000000E+00 -0.00000000000E+00 -0.98670859479E+02  0.98670859479E+02  0.00000000000E+00 0.  1.
         23    2    1    2    0    0 -0.53383578210E+02  0.66218159577E+02  0.40960007647E+02  0.13004700640E+03  0.89441883735E+02 0.  0.
         23    2    1    2    0    0  0.40280049248E+02 -0.43285370633E+02  0.39432590488E+02  0.11538037225E+03  0.90893318949E+02 0.  0.
        -11    1    4    4    0    0 -0.11444081333E+02 -0.24139862526E+02 -0.20691353132E+02  0.33791005531E+02  0.00000000000E+00 0.  1.
         11    1    4    4    0    0  0.51724130581E+02 -0.19145508106E+02  0.60123943620E+02  0.81589366718E+02  0.00000000000E+00 0. -1.
        -13    1    3    3    0    0 -0.47079285292E+02  0.44109299114E+02 -0.17820697666E+02  0.66930311797E+02  0.00000000000E+00 0.  1.
         13    1    3    3    0    0 -0.63042929180E+01  0.22108860463E+02  0.58780705313E+02  0.63116694600E+02  0.00000000000E+00 0. -1.
         21    1    1    2  502  501  0.13103528962E+02 -0.22932788944E+02 -0.53567903450E+01  0.26950148104E+02  0.00000000000E+00 0. -1.
<scales pt_clust_5="13000.00000" pt_clust_6="13000.00000" pt_clust_7="13000.00000" pt_clust_8="13000.00000" pt_clust_9="26.41241"></scales>
<clustering>
<clus scale="   26.412">  2  9  1 -1</clus>
<clus scale="   89.442">  7  8 -1 -1</clus>
<clus scale="   90.893">  5  6 -1 -1</clus>
<clus scale="  114.206">  2  7  1 -1</clus>
<clus scale="  115.347">  1  5  2 -1</clus>
</clustering>
</event>
<event>
 9    1  0.1266593E-005  0.1008316E+03  0.7546771E-02  0.1279009E+00
          2   -1    0    0  502    0  0.00000000000E+00  0.00000000000E+00  0.19955585507E+03  0.19955585507E+03  0.00000000000E+00 0. -1.
         -2   -1    0    0    0  501 -0.00000000000E+00 -0.00000000000E+00 -0.72895305451E+02  0.72895305451E+02  0.00000000000E+00 0.  1.
         23    2    1    2    0    0  0.23445918484E+02 -0.35689144139E+02  0.22764193256E+02  0.10334984768E+03  0.91321171796E+02 0.  0.
         23    2    1    2    0    0  0.63966761704E+00  0.42158625127E+02  0.10236124880E+03  0.14411479253E+03  0.92268571690E+02 0.  0.
        -11    1    3    3    0    0  0.48187966793E+02  0.33574354223E+01 -0.63491530081E+01  0.48720265395E+02  0.00000000000E+00 0. -1.
         11    1    3    3    0    0 -0.24742048310E+02 -0.39046579561E+02  0.29113346264E+02  0.54629582285E+02  0.00000000000E+00 0.  1.
        -11    1    4    4    0    0 -0.25162058305E+01  0.68432264452E+02  0.47911483730E+02  0.83575213928E+02  0.00000000000E+00 0.  1.
         11    1    4    4    0    0  0.31558734476E+01 -0.26273639326E+02  0.54449765072E+02  0.60539578600E+02  0.00000000000E+00 0. -1.
         21    1    1    2  502  501 -0.24085586101E+02 -0.64694809879E+01  0.15351075600E+01  0.24986520312E+02  0.00000000000E+00 0. -1.
<scales pt_clust_5="13000.00000" pt_clust_6="13000.00000" pt_clust_7="13000.00000" pt_clust_8="13000.00000" pt_clust_9="24.93932"></scales>
<clustering>
<clus scale="   24.939">  2  9  1 -1</clus>
<clus scale="   91.321">  5  6 -1 -1</clus>
<clus scale="   92.269">  7  8 -1 -1</clus>
<clus scale="   99.965">  2  5  1 -1</clus>
<clus scale="  100.832">  1  5  2 -1</clus>
</clustering>
</event>
<event>
 9    1  0.1266593E-005  0.9358176E+02  0.7546771E-02  0.1294943E+00
          2   -1    0    0  502    0  0.00000000000E+00  0.00000000000E+00  0.15081838046E+03  0.15081838046E+03  0.00000000000E+00 0. -1.
         -2   -1    0    0    0  501 -0.00000000000E+00 -0.00000000000E+00 -0.93494832333E+02  0.93494832333E+02  0.00000000000E+00 0.  1.
         23    2    1    2    0    0 -0.27958003759E+02 -0.13887484428E+02  0.18924093889E+02  0.99186443744E+02  0.92224276062E+02 0.  0.
         23    2    1    2    0    0  0.37163832449E+01 -0.22807485007E+02  0.36884276623E+02  0.10112139767E+03  0.91274828556E+02 0.  0.
        -11    1    3    3    0    0  0.54237467742E+01 -0.28238532756E+02  0.45739510590E+02  0.54027165300E+02  0.00000000000E+00 0. -1.
         11    1    3    3    0    0 -0.33381750533E+02  0.14351048328E+02 -0.26815416701E+02  0.45159278444E+02  0.00000000000E+00 0.  1.
        -11    1    4    4    0    0 -0.24783394587E+01  0.34101094846E+02  0.23616102593E+01  0.34272496833E+02  0.00000000000E+00 0.  1.
         11    1    4    4    0    0  0.61947227036E+01 -0.56908579853E+02  0.34522666364E+02  0.66848900837E+02  0.00000000000E+00 0. -1.
         21    1    1    2  502  501  0.24241620514E+02  0.36694969435E+02  0.15151776146E+01  0.44005371379E+02  0.00000000000E+00 0.  1.
<scales pt_clust_5="13000.00000" pt_clust_6="13000.00000" pt_clust_7="13000.00000" pt_clust_8="13000.00000" pt_clust_9="43.97928"></scales>
<clustering>
<clus scale="   43.979">  2  9  1 -1</clus>
<clus scale="   91.275">  7  8 -1 -1</clus>
<clus scale="   92.224">  5  6 -1 -1</clus>
<clus scale="   92.646">  1  7  2 -1</clus>
<clus scale="   92.646">  1  5  2 -1</clus>
</clustering>
</event>
<event>
 9    1  0.1266593E-005  0.1037223E+03  0.7546771E-02  0.1272989E+00
         -1   -1    0    0    0  501 -0.00000000000E+00  0.00000000000E+00  0.33276954152E+03  0.33276954152E+03  0.00000000000E+00 0.  1.
          1   -1    0    0  502    0  0.00000000000E+00 -0.00000000000E+00 -0.48521018066E+02  0.48521018066E+02  0.00000000000E+00 0. -1.
         23    2    1    2    0    0 -0.52483734436E+02 -0.34111330253E+02  0.15401300375E+03  0.18982866929E+03  0.91634017302E+02 0.  0.
         23    2    1    2    0    0  0.32029993708E+02  0.22814227796E+02  0.58904711319E+02  0.11640148623E+03  0.92374950582E+02 0.  0.
        -11    1    3    3    0    0 -0.15423186953E+02  0.25462813892E+02  0.90210287400E+02  0.94995397467E+02  0.00000000000E+00 0.  1.
         11    1    3    3    0    0 -0.37060547483E+02 -0.59574144144E+02  0.63802716349E+02  0.94833271819E+02  0.00000000000E+00 0. -1.
        -13    1    4    4    0    0  0.43146055276E+02  0.39556005629E+01  0.76765555463E+02  0.88148620903E+02  0.00000000000E+00 0.  1.
         13    1    4    4    0    0 -0.11116061568E+02  0.18858627233E+02 -0.17860844143E+02  0.28252865331E+02  0.00000000000E+00 0. -1.
         21    1    1    2  502  501  0.20453740728E+02  0.11297102457E+02  0.71330808380E+02  0.75060404062E+02  0.00000000000E+00 0. -1.
<scales pt_clust_5="13000.00000" pt_clust_6="13000.00000" pt_clust_7="13000.00000" pt_clust_8="13000.00000" pt_clust_9="23.36622"></scales>
<clustering>
<clus scale="   23.366">  1  9  2 -1</clus>
<clus scale="   91.634">  5  6 -1 -1</clus>
<clus scale="   92.375">  7  8 -1 -1</clus>
<clus scale="  103.063">  1  5  2 -1</clus>
<clus scale="  103.722">  2  5  1 -1</clus>
</clustering>
</event>
<event>
 9    1  0.1266593E-005  0.9625995E+02  0.7546771E-02  0.1288857E+00
         -1   -1    0    0    0  501 -0.00000000000E+00  0.00000000000E+00  0.39115233234E+02  0.39115233234E+02  0.00000000000E+00 0.  1.
          1   -1    0    0  502    0  0.00000000000E+00 -0.00000000000E+00 -0.35753207783E+03  0.35753207783E+03  0.00000000000E+00 0. -1.
         23    2    1    2    0    0  0.11955528509E+02 -0.14713952644E+02 -0.11932038543E+03  0.15203231841E+03  0.92287791159E+02 0.  0.
         23    2    1    2    0    0 -0.31999384338E+02 -0.25601146120E+01 -0.19408426605E+03  0.21768412494E+03  0.93204941589E+02 0.  0.
        -11    1    4    4    0    0 -0.78220450629E+01  0.44534434841E+02 -0.79419630177E+02  0.91389156540E+02  0.00000000000E+00 0. -1.
         11    1    4    4    0    0 -0.24177339275E+02 -0.47094549453E+02 -0.11466463588E+03  0.12629496840E+03  0.00000000000E+00 0.  1.
        -13    1    3    3    0    0  0.36162496337E+02 -0.42649626914E+02 -0.83975034782E+02  0.10088866777E+03  0.00000000000E+00 0.  1.
         13    1    3    3    0    0 -0.24206967828E+02  0.27935674271E+02 -0.35345350645E+02  0.51143650639E+02  0.00000000000E+00 0. -1.
         21    1    1    2  502  501  0.20043855829E+02  0.17274067256E+02 -0.50121931106E+01  0.26930867714E+02  0.00000000000E+00 0. -1.
<scales pt_clust_5="13000.00000" pt_clust_6="13000.00000" pt_clust_7="13000.00000" pt_clust_8="13000.00000" pt_clust_9="26.46034"></scales>
<clustering>
<clus scale="   26.460">  1  9  2 -1</clus>
<clus scale="   92.288">  7  8 -1 -1</clus>
<clus scale="   93.205">  5  6 -1 -1</clus>
<clus scale="   95.372">  1  7  2 -1</clus>
<clus scale="   96.260">  2  5  1 -1</clus>
</clustering>
</event>
<event>
 9    1  0.1266593E-005  0.1697632E+03  0.7546771E-02  0.1178112E+00
          2   -1    0    0  502    0  0.00000000000E+00  0.00000000000E+00  0.71513559618E+03  0.71513559618E+03  0.00000000000E+00 0. -1.
         -2   -1    0    0    0  501 -0.00000000000E+00 -0.00000000000E+00 -0.54165499265E+02  0.54165499265E+02  0.00000000000E+00 0.  1.
         23    2    1    2    0    0  0.15835250058E+03  0.16115586468E+02  0.36319236122E+03  0.40682357654E+03  0.90892819386E+02 0.  0.
         23    2    1    2    0    0 -0.12891928970E+03  0.27299509475E+01  0.28399947175E+03  0.32491012958E+03  0.91012397292E+02 0.  0.
        -11    1    4    4    0    0 -0.21342692779E+02  0.32391049787E+02  0.12335794164E+03  0.12931307903E+03  0.00000000000E+00 0. -1.
         11    1    4    4    0    0 -0.10757659693E+03 -0.29661098840E+02  0.16064153011E+03  0.19559705055E+03  0.00000000000E+00 0.  1.
        -11    1    3    3    0    0  0.63144519324E+02  0.44705823273E+02  0.21390862172E+03  0.22747030444E+03  0.00000000000E+00 0. -1.
         11    1    3    3    0    0  0.95207981258E+02 -0.28590236805E+02  0.14928373950E+03  0.17935327210E+03  0.00000000000E+00 0.  1.
         21    1    1    2  502  501 -0.29433210878E+02 -0.18845537416E+02  0.13778263949E+02  0.37567389323E+02  0.00000000000E+00 0.  1.
<scales pt_clust_5="13000.00000" pt_clust_6="13000.00000" pt_clust_7="13000.00000" pt_clust_8="13000.00000" pt_clust_9="34.94951"></scales>
<clustering>
<clus scale="   34.950">  2  9  1 -1</clus>
<clus scale="   90.893">  7  8 -1 -1</clus>
<clus scale="   91.012">  5  6 -1 -1</clus>
<clus scale="  169.699">  2  7  1 -1</clus>
<clus scale="  169.763">  1  5  2 -1</clus>
</clustering>
</event>
<event>
 9    1  0.1266593E-005  0.1388928E+03  0.7546771E-02  0.1214838E+00
         -1   -1    0    0    0  501 -0.00000000000E+00  0.00000000000E+00  0.13446193151E+03  0.13446193151E+03  0.00000000000E+00 0.  1.
          1   -1    0    0  502    0  0.00000000000E+00 -0.00000000000E+00 -0.24830102243E+03  0.24830102243E+03  0.00000000000E+00 0. -1.
         23    2    1    2    0    0  0.51240339023E+02  0.54271867117E+02  0.25108708312E+02  0.12035904487E+03  0.91021121419E+02 0.  0.
         23    2    1    2    0    0 -0.95607880523E+02 -0.68962674764E+02 -0.15305955006E+03  0.21358342076E+03  0.91071040580E+02 0.  0.
        -13    1    4    4    0    0 -0.63762414586E+02 -0.83546000784E+02 -0.78408716387E+02  0.13112401217E+03  0.00000000000E+00 0. -1.
         13    1    4    4    0    0 -0.31845465936E+02  0.14583326020E+02 -0.74650833672E+02  0.82459408598E+02  0.00000000000E+00 0.  1.
        -13    1    3    3    0    0  0.58116335970E+02  0.81669462367E+01 -0.13046258464E+02  0.60119983178E+02  0.00000000000E+00 0.  1.
         13    1    3    3    0    0 -0.68759969467E+01  0.46104920880E+02  0.38154966776E+02  0.60239061688E+02  0.00000000000E+00 0. -1.
         21    1    1    2  502  501  0.44367541500E+02  0.14690807647E+02  0.14111750829E+02  0.48820488317E+02  0.00000000000E+00 0.  1.
<scales pt_clust_5="13000.00000" pt_clust_6="13000.00000" pt_clust_7="13000.00000" pt_clust_8="13000.00000" pt_clust_9="46.73648"></scales>
<clustering>
<clus scale="   46.736">  1  9  2 -1</clus>
<clus scale="   91.021">  7  8 -1 -1</clus>
<clus scale="   91.071">  5  6 -1 -1</clus>
<clus scale="  138.860">  1  7  2 -1</clus>
<clus scale="  138.893">  2  5  1 -1</clus>
</clustering>
</event>
<event>
 9    1  0.1266593E-005  0.3618963E+03  0.7546771E-02  0.1057865E+00
         -1   -1    0    0    0  501 -0.00000000000E+00  0.00000000000E+00  0.21049832885E+03  0.21049832885E+03  0.00000000000E+00 0.  1.
          1   -1    0    0  502    0  0.00000000000E+00 -0.00000000000E+00 -0.12492479455E+04  0.12492479455E+04  0.00000000000E+00 0. -1.
         23    2    1    2    0    0  0.69849017377E+02  0.34589073691E+03 -0.22780934634E+03  0.42991650821E+03  0.91715967230E+02 0.  0.
         23    2    1    2    0    0 -0.91105378181E+02 -0.33720294417E+03 -0.88317001319E+03  0.95403763998E+03  0.90512600281E+02 0.  0.
        -11    1    4    4    0    0 -0.65375254270E+02 -0.86780931466E+02 -0.28829915532E+03  0.30809293548E+03  0.00000000000E+00 0.  1.
         11    1    4    4    0    0 -0.25730123911E+02 -0.25042201270E+03 -0.59487085787E+03  0.64594470450E+03  0.00000000000E+00 0. -1.
        -13    1    3    3    0    0  0.56307264824E+02  0.18384378113E+03 -0.73803833593E+02  0.20595157146E+03  0.00000000000E+00 0.  1.
         13    1    3    3    0    0  0.13541752553E+02  0.16204695578E+03 -0.15400551275E+03  0.22396493676E+03  0.00000000000E+00 0. -1.
         21    1    1    2  502  501  0.21256360804E+02 -0.86877927454E+01  0.72229742926E+02  0.75792126113E+02  0.00000000000E+00 0.  1.
<scales pt_clust_5="13000.00000" pt_clust_6="13000.00000" pt_clust_7="13000.00000" pt_clust_8="13000.00000" pt_clust_9="22.96324"></scales>
<clustering>
<clus scale="   22.963">  1  9  2 -1</clus>
<clus scale="   90.513">  5  6 -1 -1</clus>
<clus scale="   91.716">  7  8 -1 -1</clus>
<clus scale="  361.593">  2  5  1 -1</clus>
<clus scale="  361.593">  2  5  1 -1</clus>
</clustering>
</event>
<event>
 9    1  0.1266593E-005  0.9847429E+02  0.7546771E-02  0.1287081E+00
          1   -1    0    0  502    0  0.00000000000E+00  0.00000000000E+00  0.19007162008E+03  0.19007162008E+03  0.00000000000E+00 0. -1.
         -1   -1    0    0    0  501 -0.00000000000E+00 -0.00000000000E+00 -0.10167334057E+03  0.10167334057E+03  0.00000000000E+00 0.  1.
         23    2    1    2    0    0  0.13788781615E+02 -0.10591336802E+02  0.10310982777E+02  0.99845559436E+02  0.97777873058E+02 0.  0.
         23    2    1    2    0    0 -0.99417268602E+01 -0.93435551445E+01  0.11636406160E+03  0.14857146015E+03  0.91360516551E+02 0.  0.
        -13    1    4    4    0    0  0.19995966549E+02  0.30408410303E+02  0.23820520175E+02  0.43496290379E+02  0.00000000000E+00 0.  1.
         13    1    4    4    0    0 -0.29937693409E+02 -0.39751965448E+02  0.92543541427E+02  0.10507516978E+03  0.00000000000E+00 0. -1.
        -13    1    3    3    0    0  0.20117090752E+02  0.22364511777E+02 -0.33262774841E+02  0.44847306692E+02  0.00000000000E+00 0.  1.
         13    1    3    3    0    0 -0.63283091378E+01 -0.32955848579E+02  0.43573757617E+02  0.54998252745E+02  0.00000000000E+00 0. -1.
         21    1    1    2  502  501 -0.38470547545E+01  0.19934891946E+02 -0.38276764867E+02  0.43327941053E+02  0.00000000000E+00 0.  1.
<scales pt_clust_5="13000.00000" pt_clust_6="13000.00000" pt_clust_7="13000.00000" pt_clust_8="13000.00000" pt_clust_9="20.30270"></scales>
<clustering>
<clus scale="   20.303">  2  9  1 -1</clus>
<clus scale="   91.361">  5  6 -1 -1</clus>
<clus scale="   92.105">  1  5  2 -1</clus>
<clus scale="   97.778">  7  8 -1 -1</clus>
<clus scale="   92.105">  1  5  2 -1</clus>
</clustering>
</event>
<event>
 9    1  0.1266593E-005  0.9422702E+02  0.7546771E-02  0.1292954E+00
         -1   -1    0    0    0  501 -0.00000000000E+00  0.00000000000E+00  0.33008920997E+02  0.33008920997E+02  0.00000000000E+00 0.  1.
          1   -1    0    0  502    0  0.00000000000E+00 -0.00000000000E+00 -0.48776416018E+03  0.48776416018E+03  0.00000000000E+00 0. -1.
         23    2    1    2    0    0  0.25345165445E+02 -0.70597253884E+01 -0.93964778710E+02  0.13360585124E+03  0.91262953677E+02 0.  0.
         23    2    1    2    0    0 -0.74133408940E+01  0.24531792702E+02 -0.34451525044E+03  0.35730578440E+03  0.91213482028E+02 0.  0.
        -11    1    4    4    0    0  0.27971441154E+01 -0.33746069181E+02 -0.15972297607E+03  0.16327293188E+03  0.00000000000E+00 0.  1.
         11    1    4    4    0    0 -0.10210485009E+02  0.58277861883E+02 -0.18479227437E+03  0.19403285251E+03  0.00000000000E+00 0. -1.
        -13    1    3    3    0    0 -0.29710357652E+02  0.96554622952E+01 -0.12006776187E+02  0.33467834981E+02  0.00000000000E+00 0.  1.
         13    1    3    3    0    0  0.55055523097E+02 -0.16715187684E+02 -0.81958002523E+02  0.10013801626E+03  0.00000000000E+00 0. -1.
         21    1    1    2  502  501 -0.17931824551E+02 -0.17472067313E+02 -0.16275210034E+02  0.29861445537E+02  0.00000000000E+00 0.  1.
<scales pt_clust_5="13000.00000" pt_clust_6="13000.00000" pt_clust_7="13000.00000" pt_clust_8="13000.00000" pt_clust_9="25.03644"></scales>
<clustering>
<clus scale="   25.036">  1  9  2 -1</clus>
<clus scale="   91.213">  5  6 -1 -1</clus>
<clus scale="   91.263">  7  8 -1 -1</clus>
<clus scale="   94.179">  2  5  1 -1</clus>
<clus scale="   94.179">  2  5  1 -1</clus>
</clustering>
</event>
<event>
 9    1  0.1266593E-005  0.1345405E+03  0.7546771E-02  0.1235946E+00
         -1   -1    0    0    0  501 -0.00000000000E+00  0.00000000000E+00  0.57165035919E+02  0.57165035919E+02  0.00000000000E+00 0.  1.
          1   -1    0    0  502    0  0.00000000000E+00 -0.00000000000E+00 -0.96482186876E+03  0.96482186876E+03  0.00000000000E+00 0. -1.
         23    2    1    2    0    0 -0.98263988411E+02 -0.55521271775E+02 -0.44547942734E+03  0.46832132285E+03  0.90191563965E+02 0.  0.
         23    2    1    2    0    0  0.31005855198E+02 -0.16738385306E+02 -0.44209283756E+03  0.45292579627E+03  0.91946524170E+02 0.  0.
        -11    1    4    4    0    0 -0.18857116249E+02  0.23035608091E+02 -0.82201717776E+02  0.87426268813E+02  0.00000000000E+00 0. -1.
         11    1    4    4    0    0  0.49862971448E+02 -0.39773993397E+02 -0.35989111979E+03  0.36549952746E+03  0.00000000000E+00 0.  1.
        -11    1    3    3    0    0 -0.13725501458E+02 -0.23568478743E+02 -0.21257618767E+02  0.34579602892E+02  0.00000000000E+00 0.  1.
         11    1    3    3    0    0 -0.84538486953E+02 -0.31952793032E+02 -0.42422180858E+03  0.43374171996E+03  0.00000000000E+00 0. -1.
         21    1    1    2  502  501  0.67258133213E+02  0.72259657082E+02 -0.20084567935E+02  0.10073978556E+03  0.00000000000E+00 0.  1.
<scales pt_clust_5="13000.00000" pt_clust_6="13000.00000" pt_clust_7="13000.00000" pt_clust_8="13000.00000" pt_clust_9="99.83296"></scales>
<clustering>
<clus scale="   90.192">  7  8 -1 -1</clus>
<clus scale="   91.947">  5  6 -1 -1</clus>
<clus scale="   98.467">  2  5  1 -1</clus>
<clus scale="   99.833">  1  9  2 -1</clus>
<clus scale="   98.467">  2  5  1 -1</clus>
</clustering>
</event>
<event>
 9    1  0.1266593E-005  0.1206714E+03  0.7546771E-02  0.1242707E+00
         -1   -1    0    0    0  501 -0.00000000000E+00  0.00000000000E+00  0.12122526915E+03  0.12122526915E+03  0.00000000000E+00 0.  1.
          1   -1    0    0  502    0  0.00000000000E+00 -0.00000000000E+00 -0.24018431646E+03  0.24018431646E+03  0.00000000000E+00 0. -1.
         23    2    1    2    0    0 -0.67878228063E+02  0.77324590617E+02  0.17271979092E+02  0.13905933489E+03  0.91938192273E+02 0.  0.
         23    2    1    2    0    0  0.61784754419E+02 -0.37994517038E+02 -0.14112445930E+03  0.18225123834E+03  0.89657468514E+02 0.  0.
        -11    1    3    3    0    0 -0.53274963090E+02  0.45199777966E+02 -0.33297342387E+02  0.77394797180E+02  0.00000000000E+00 0.  1.
         11    1    3    3    0    0 -0.14603264972E+02  0.32124812652E+02  0.50569321479E+02  0.61664537707E+02  0.00000000000E+00 0. -1.
        -13    1    4    4    0    0 -0.22097042434E+02 -0.19215501861E+02 -0.32926158020E+02  0.44064120076E+02  0.00000000000E+00 0.  1.
         13    1    4    4    0    0  0.83881796853E+02 -0.18779015177E+02 -0.10819830128E+03  0.13818711826E+03  0.00000000000E+00 0. -1.
         21    1    1    2  502  501  0.60934736438E+01 -0.39330073580E+02  0.48934328991E+01  0.40099012386E+02  0.00000000000E+00 0.  1.
<scales pt_clust_5="13000.00000" pt_clust_6="13000.00000" pt_clust_7="13000.00000" pt_clust_8="13000.00000" pt_clust_9="39.79931"></scales>
<clustering>
<clus scale="   39.799">  1  9  2 -1</clus>
<clus scale="   89.657">  7  8 -1 -1</clus>
<clus scale="   91.938">  5  6 -1 -1</clus>
<clus scale="  118.943">  2  7  1 -1</clus>
<clus scale="  118.943">  2  5  1 -1</clus>
</clustering>
</event>
<event>
 9    1  0.1266593E-005  0.1284164E+03  0.7546771E-02  0.1229974E+00
          1   -1    0    0  502    0  0.00000000000E+00  0.00000000000E+00  0.21012179292E+03  0.21012179292E+03  0.00000000000E+00 0. -1.
         -1   -1    0    0    0  501 -0.00000000000E+00 -0.00000000000E+00 -0.15174305552E+03  0.15174305552E+03  0.00000000000E+00 0.  1.
         23    2    1    2    0    0 -0.19156015478E+02 -0.66387370957E+02 -0.72409408087E+02  0.13634773030E+03  0.92592360524E+02 0.  0.
         23    2    1    2    0    0  0.45890860408E+02  0.81610759946E+02  0.14091613045E+03  0.19312762007E+03  0.93137718483E+02 0.  0.
        -13    1    4    4    0    0  0.11424823857E+02 -0.20547140054E+02  0.33583398108E+02  0.40994587363E+02  0.00000000000E+00 0.  1.
         13    1    4    4    0    0  0.34466036551E+02  0.10215790000E+03  0.10733273234E+03  0.15213303271E+03  0.00000000000E+00 0. -1.
        -13    1    3    3    0    0  0.11497779014E+02 -0.79646634660E+02 -0.61263180616E+02  0.10113833415E+03  0.00000000000E+00 0.  1.
         13    1    3    3    0    0 -0.30653794492E+02  0.13259263703E+02 -0.11146227471E+02  0.35209396154E+02  0.00000000000E+00 0. -1.
         21    1    1    2  502  501 -0.26734844931E+02 -0.15223388989E+02 -0.10127984969E+02  0.32389498071E+02  0.00000000000E+00 0. -1.
<scales pt_clust_5="13000.00000" pt_clust_6="13000.00000" pt_clust_7="13000.00000" pt_clust_8="13000.00000" pt_clust_9="30.76530"></scales>
<clustering>
<clus scale="   30.765">  2  9  1 -1</clus>
<clus scale="   92.592">  7  8 -1 -1</clus>
<clus scale="   93.138">  5  6 -1 -1</clus>
<clus scale="  128.021">  2  7  1 -1</clus>
<clus scale="  128.416">  1  5  2 -1</clus>
</clustering>
</event>
<event>
 9    1  0.1266593E-005  0.1088451E+03  0.7546771E-02  0.1263651E+00
         -2   -1    0    0    0  501 -0.00000000000E+00  0.00000000000E+00  0.35615647391E+03  0.35615647391E+03  0.00000000000E+00 0. -1.
          2   -1    0    0  502    0  0.00000000000E+00 -0.00000000000E+00 -0.67897126341E+02  0.67897126341E+02  0.00000000000E+00 0.  1.
         23    2    1    2    0    0  0.25882775618E+02 -0.66441840814E+02  0.19866568835E+03  0.22987431702E+03  0.91047842444E+02 0.  0.
         23    2    1    2    0    0 -0.84708936278E+01  0.51580657915E+02  0.56001609915E+01  0.10712219773E+03  0.93335326287E+02 0.  0.
        -11    1    4    4    0    0  0.29077124829E+02  0.61382043511E+02  0.47885076100E-01  0.67920812325E+02  0.00000000000E+00 0.  1.
         11    1    4    4    0    0 -0.37548018457E+02 -0.98013855961E+01  0.55522759154E+01  0.39201385403E+02  0.00000000000E+00 0. -1.
        -13    1    3    3    0    0 -0.11785780684E+02  0.18780468631E+02  0.31989923997E+02  0.38922562424E+02  0.00000000000E+00 0.  1.
         13    1    3    3    0    0  0.37668556302E+02 -0.85222309445E+02  0.16667576436E+03  0.19095175460E+03  0.00000000000E+00 0. -1.
         21    1    1    2  502  501 -0.17411881991E+02  0.14861182900E+02  0.83993498229E+02  0.87057085503E+02  0.00000000000E+00 0. -1.
<scales pt_clust_5="13000.00000" pt_clust_6="13000.00000" pt_clust_7="13000.00000" pt_clust_8="13000.00000" pt_clust_9="22.89167"></scales>
<clustering>
<clus scale="   22.892">  1  9  2 -1</clus>
<clus scale="   91.048">  7  8 -1 -1</clus>
<clus scale="   93.335">  5  6 -1 -1</clus>
<clus scale="  106.890">  1  7  2 -1</clus>
<clus scale="  108.845">  2  5  1 -1</clus>
</clustering>
</event>
<event>
 9    1  0.1266593E-005  0.1401408E+03  0.7546771E-02  0.1213444E+00
          2   -1    0    0  502    0  0.00000000000E+00  0.00000000000E+00  0.52572340095E+03  0.52572340095E+03  0.00000000000E+00 0. -1.
         -2   -1    0    0    0  501 -0.00000000000E+00 -0.00000000000E+00 -0.62196054223E+02  0.62196054223E+02  0.00000000000E+00 0.  1.
         23    2    1    2    0    0 -0.89410322444E+02  0.24761251276E+02  0.75606847337E+02  0.15070403013E+03  0.91585937831E+02 0.  0.
         23    2    1    2    0    0  0.10935451500E+03 -0.17263079529E+02  0.39046380135E+03  0.41575705183E+03  0.90197129168E+02 0.  0.
        -11    1    4    4    0    0  0.72815918412E+02 -0.77568394260E+01  0.35963445453E+03  0.36701398804E+03  0.00000000000E+00 0. -1.
         11    1    4    4    0    0  0.36538596591E+02 -0.95062401030E+01  0.30829346823E+02  0.48743063786E+02  0.00000000000E+00 0.  1.
        -13    1    3    3    0    0 -0.82000490558E+02  0.43516909337E+02  0.24869150871E+02  0.96105548825E+02  0.00000000000E+00 0.  1.
         13    1    3    3    0    0 -0.74098318860E+01 -0.18755658061E+02  0.50737696466E+02  0.54598481303E+02  0.00000000000E+00 0. -1.
         21    1    1    2  502  501 -0.19944192559E+02 -0.74981717470E+01 -0.25433019603E+01  0.21458373220E+02  0.00000000000E+00 0.  1.
<scales pt_clust_5="13000.00000" pt_clust_6="13000.00000" pt_clust_7="13000.00000" pt_clust_8="13000.00000" pt_clust_9="21.30712"></scales>
<clustering>
<clus scale="   21.307">  2  9  1 -1</clus>
<clus scale="   90.197">  5  6 -1 -1</clus>
<clus scale="   91.586">  7  8 -1 -1</clus>
<clus scale="  139.237">  1  5  2 -1</clus>
<clus scale="  139.237">  1  5  2 -1</clus>
</clustering>
</event>
<event>
 9    1  0.1266593E-005  0.9885977E+02  0.7546771E-02  0.1283883E+00
         -2   -1    0    0    0  501 -0.00000000000E+00  0.00000000000E+00  0.19061771204E+03  0.19061771204E+03  0.00000000000E+00 0.  1.
          2   -1    0    0  502    0  0.00000000000E+00 -0.00000000000E+00 -0.12086029688E+03  0.12086029688E+03  0.00000000000E+00 0. -1.
         23    2    1    2    0    0  0.71401353665E+02 -0.27825512692E+02  0.89010595669E+01  0.11861813374E+03  0.90103386893E+02 0.  0.
         23    2    1    2    0    0 -0.88354978426E+01 -0.38218239073E+00 -0.10997376055E+02  0.93496304739E+02  0.92425129885E+02 0.  0.
        -11    1    4    4    0    0  0.28879877433E+02 -0.19049865261E+02  0.21141394978E+02  0.40545076996E+02  0.00000000000E+00 0. -1.
         11    1    4    4    0    0 -0.37715375276E+02  0.18667682871E+02 -0.32138771033E+02  0.52951227743E+02  0.00000000000E+00 0.  1.
        -11    1    3    3    0    0  0.87535136835E+02 -0.63629159794E+01  0.19232614848E+02  0.89848652490E+02  0.00000000000E+00 0. -1.
         11    1    3    3    0    0 -0.16133783170E+02 -0.21462596713E+02 -0.10331555281E+02  0.28769481253E+02  0.00000000000E+00 0.  1.
         21    1    1    2  502  501 -0.62565855822E+02  0.28207695083E+02  0.71853731649E+02  0.99363570430E+02  0.00000000000E+00 0.  1.
<scales pt_clust_5="13000.00000" pt_clust_6="13000.00000" pt_clust_7="13000.00000" pt_clust_8="13000.00000" pt_clust_9="68.63061"></scales>
<clustering>
<clus scale="   68.631">  1  9  2 -1</clus>
<clus scale="   90.103">  7  8 -1 -1</clus>
<clus scale="   92.425">  5  6 -1 -1</clus>
<clus scale="   96.693">  1  7  2 -1</clus>
<clus scale="   98.860">  2  5  1 -1</clus>
</clustering>
</event>
<event>
 9    1  0.1266593E-005  0.1644927E+03  0.7546771E-02  0.1184792E+00
          1   -1    0    0  502    0  0.00000000000E+00  0.00000000000E+00  0.88293383973E+03  0.88293383973E+03  0.00000000000E+00 0. -1.
         -1   -1    0    0    0  501 -0.00000000000E+00 -0.00000000000E+00 -0.43710510537E+02  0.43710510537E+02  0.00000000000E+00 0.  1.
         23    2    1    2    0    0  0.62759962120E+02  0.11081405768E+03  0.35086824572E+03  0.38416604514E+03  0.90865043667E+02 0.  0.
         23    2    1    2    0    0 -0.57109606830E+02 -0.13405404411E+03  0.49049695955E+03  0.51846557690E+03  0.83590030296E+02 0.  0.
        -11    1    4    4    0    0 -0.59081109104E+02 -0.35893536692E+02  0.22588865323E+03  0.23622998770E+03  0.00000000000E+00 0.  1.
         11    1    4    4    0    0  0.19715022748E+01 -0.98160507414E+02  0.26460830632E+03  0.28223558920E+03  0.00000000000E+00 0. -1.
        -11    1    3    3    0    0  0.24528665086E+02 -0.12253689816E+02  0.55244873969E+02  0.61674990270E+02  0.00000000000E+00 0. -1.
         11    1    3    3    0    0  0.38231297035E+02  0.12306774750E+03  0.29562337175E+03  0.32249105487E+03  0.00000000000E+00 0.  1.
         21    1    1    2  502  501 -0.56503552908E+01  0.23239986426E+02 -0.21418760752E+01  0.24012728231E+02  0.00000000000E+00 0.  1.
<scales pt_clust_5="13000.00000" pt_clust_6="13000.00000" pt_clust_7="13000.00000" pt_clust_8="13000.00000" pt_clust_9="23.91701"></scales>
<clustering>
<clus scale="   23.917">  2  9  1 -1</clus>
<clus scale="   83.590">  5  6 -1 -1</clus>
<clus scale="   90.865">  7  8 -1 -1</clus>
<clus scale="  160.589">  1  5  2 -1</clus>
<clus scale="  160.589">  1  5  2 -1</clus>
</clustering>
</event>
<event>
 9    1  0.1266593E-005  0.9492108E+02  0.7546771E-02  0.1293038E+00
         -3   -1    0    0    0  501 -0.00000000000E+00  0.00000000000E+00  0.95059660007E+02  0.95059660007E+02  0.00000000000E+00 0.  1.
          3   -1    0    0  502    0  0.00000000000E+00 -0.00000000000E+00 -0.24890426745E+03  0.24890426745E+03  0.00000000000E+00 0. -1.
         23    2    1    2    0    0 -0.21284897747E+02 -0.19099451320E+02 -0.10663577191E+02  0.94997461632E+02  0.89960935551E+02 0.  0.
         23    2    1    2    0    0 -0.31883685029E+02 -0.11241994397E+01 -0.16162843904E+03  0.18916511855E+03  0.92961586545E+02 0.  0.
        -13    1    4    4    0    0  0.18359144227E+02 -0.33329991820E+02 -0.53357243558E+02  0.65535806790E+02  0.00000000000E+00 0. -1.
         13    1    4    4    0    0 -0.50242829257E+02  0.32205792380E+02 -0.10827119548E+03  0.12362931176E+03  0.00000000000E+00 0.  1.
        -13    1    3    3    0    0 -0.18291747670E+02 -0.40963853178E+02 -0.38748416271E+02  0.59279550129E+02  0.00000000000E+00 0. -1.
         13    1    3    3    0    0 -0.29931500770E+01  0.21864401858E+02  0.28084839080E+02  0.35717911503E+02  0.00000000000E+00 0.  1.
         21    1    1    2  502  501  0.53168582776E+02  0.20223650760E+02  0.18447408793E+02  0.59801347273E+02  0.00000000000E+00 0.  1.
<scales pt_clust_5="13000.00000" pt_clust_6="13000.00000" pt_clust_7="13000.00000" pt_clust_8="13000.00000" pt_clust_9="56.88492"></scales>
<clustering>
<clus scale="   56.885">  1  9  2 -1</clus>
<clus scale="   89.961">  7  8 -1 -1</clus>
<clus scale="   91.984">  1  7  2 -1</clus>
<clus scale="   92.962">  5  6 -1 -1</clus>
<clus scale="   94.921">  2  5  1 -1</clus>
</clustering>
</event>
<event>
 9    1  0.1266593E-005  0.9961875E+02  0.7546771E-02  0.1281506E+00
         -1   -1    0    0    0  501 -0.00000000000E+00  0.00000000000E+00  0.42373663943E+03  0.42373663943E+03  0.00000000000E+00 0.  1.
          1   -1    0    0  502    0  0.00000000000E+00 -0.00000000000E+00 -0.60465456171E+02  0.60465456171E+02  0.00000000000E+00 0. -1.
         23    2    1    2    0    0 -0.29401772231E+02  0.93516197048E+01  0.19414318253E+03  0.21661874304E+03  0.90995535664E+02 0.  0.
         23    2    1    2    0    0  0.46708920508E+02  0.44334617953E+02  0.17809389276E+03  0.21046823446E+03  0.91826801499E+02 0.  0.
        -13    1    3    3    0    0 -0.42638394409E+02  0.42607855880E+02  0.12345894898E+03  0.13738840615E+03  0.00000000000E+00 0.  1.
         13    1    3    3    0    0  0.13236622178E+02 -0.33256236175E+02  0.70684233556E+02  0.79230336896E+02  0.00000000000E+00 0. -1.
        -13    1    4    4    0    0  0.19054731901E+02  0.58145286435E+02  0.16661430688E+03  0.17749446301E+03  0.00000000000E+00 0.  1.
         13    1    4    4    0    0  0.27654188608E+02 -0.13810668482E+02  0.11479585879E+02  0.32973771447E+02  0.00000000000E+00 0. -1.
         21    1    1    2  502  501 -0.17307148278E+02 -0.53686237658E+02 -0.89658920374E+01  0.57115118099E+02  0.00000000000E+00 0. -1.
<scales pt_clust_5="13000.00000" pt_clust_6="13000.00000" pt_clust_7="13000.00000" pt_clust_8="13000.00000" pt_clust_9="56.40700"></scales>
<clustering>
<clus scale="   56.407">  2  9  1 -1</clus>
<clus scale="   90.996">  5  6 -1 -1</clus>
<clus scale="   91.827">  7  8 -1 -1</clus>
<clus scale="   98.853">  1  5  2 -1</clus>
<clus scale="   56.407">  2  5  1 -1</clus>
</clustering>
</event>
<event>
 9    1  0.1266593E-005  0.9677663E+02  0.7546771E-02  0.1287617E+00
          2   -1    0    0  502    0  0.00000000000E+00  0.00000000000E+00  0.35772944438E+03  0.35772944438E+03  0.00000000000E+00 0. -1.
         -2   -1    0    0    0  501 -0.00000000000E+00 -0.00000000000E+00 -0.43602027055E+02  0.43602027055E+02  0.00000000000E+00 0.  1.
         23    2    1    2    0    0 -0.65240366316E+01 -0.33428373822E+02  0.11151173295E+03  0.14816661334E+03  0.91424610978E+02 0.  0.
         23    2    1    2    0    0  0.27229094195E+02  0.15390852424E+02  0.20361760119E+03  0.22568658624E+03  0.92173780346E+02 0.  0.
        -11    1    3    3    0    0  0.31682766248E+02 -0.44668655032E+02  0.46097860218E+02  0.71582813134E+02  0.00000000000E+00 0.  1.
         11    1    3    3    0    0 -0.38206802880E+02  0.11240281210E+02  0.65413872736E+02  0.76583800208E+02  0.00000000000E+00 0. -1.
        -13    1    4    4    0    0  0.57945930959E+02  0.18176815782E+02  0.16762290675E+03  0.17828507065E+03  0.00000000000E+00 0. -1.
         13    1    4    4    0    0 -0.30716836764E+02 -0.27859633579E+01  0.35994694435E+02  0.47401515589E+02  0.00000000000E+00 0.  1.
         21    1    1    2  502  501 -0.20705057564E+02  0.18037521398E+02 -0.10019168199E+01  0.27478271857E+02  0.00000000000E+00 0.  1.
<scales pt_clust_5="13000.00000" pt_clust_6="13000.00000" pt_clust_7="13000.00000" pt_clust_8="13000.00000" pt_clust_9="27.46000"></scales>
<clustering>
<clus scale="   27.460">  2  9  1 -1</clus>
<clus scale="   91.425">  5  6 -1 -1</clus>
<clus scale="   92.174">  7  8 -1 -1</clus>
<clus scale="   96.063">  2  5  1 -1</clus>
<clus scale="   96.777">  1  5  2 -1</clus>
</clustering>
</event>
<event>
 9    1  0.1266593E-005  0.1000971E+03  0.7546771E-02  0.1282534E+00
         -1   -1    0    0    0  501 -0.00000000000E+00  0.00000000000E+00  0.16805496721E+03  0.16805496721E+03  0.00000000000E+00 0.  1.
          1   -1    0    0  502    0  0.00000000000E+00 -0.00000000000E+00 -0.14380749344E+03  0.14380749344E+03  0.00000000000E+00 0. -1.
         23    2    1    2    0    0  0.13811022031E+02 -0.15909757587E+02  0.22345883617E+01  0.88169889717E+02  0.85586630682E+02 0.  0.
         23    2    1    2    0    0  0.49021758904E+01  0.61002465280E+02 -0.62601797589E+02  0.12600336660E+03  0.90623017134E+02 0.  0.
        -13    1    3    3    0    0  0.38237506529E+02  0.11325043424E+02 -0.20760163883E+02  0.44959403005E+02  0.00000000000E+00 0. -1.
         13    1    3    3    0    0 -0.24426484499E+02 -0.27234801010E+02  0.22994752245E+02  0.43210486712E+02  0.00000000000E+00 0.  1.
        -13    1    4    4    0    0 -0.38814624239E+02  0.10834855406E+02 -0.10930714359E+02  0.41754636424E+02  0.00000000000E+00 0.  1.
         13    1    4    4    0    0  0.43716800130E+02  0.50167609873E+02 -0.51671083230E+02  0.84248730175E+02  0.00000000000E+00 0. -1.
         21    1    1    2  502  501 -0.18713197921E+02 -0.45092707693E+02  0.84614682996E+02  0.97689204327E+02  0.00000000000E+00 0.  1.
<scales pt_clust_5="13000.00000" pt_clust_6="13000.00000" pt_clust_7="13000.00000" pt_clust_8="13000.00000" pt_clust_9="48.82147"></scales>
<clustering>
<clus scale="   48.821">  1  9  2 -1</clus>
<clus scale="   85.587">  5  6 -1 -1</clus>
<clus scale="   90.623">  7  8 -1 -1</clus>
<clus scale="   95.561">  1  5  2 -1</clus>
<clus scale="  100.097">  2  5  1 -1</clus>
</clustering>
</event>
<event>
 9    1  0.1266593E-005  0.9810651E+02  0.7546771E-02  0.1284448E+00
          2   -1    0    0  502    0  0.00000000000E+00  0.00000000000E+00  0.19591342471E+03  0.19591342471E+03  0.00000000000E+00 0. -1.
         -2   -1    0    0    0  501 -0.00000000000E+00 -0.00000000000E+00 -0.18878038834E+03  0.18878038834E+03  0.00000000000E+00 0.  1.
         23    2    1    2    0    0 -0.35802193162E+02 -0.96636756033E+01  0.71694054375E+02  0.12214555252E+03  0.91675050624E+02 0.  0.
         23    2    1    2    0    0  0.32806346435E+02 -0.12132008703E+02  0.73482686005E+02  0.12276238439E+03  0.91910042303E+02 0.  0.
        -13    1    3    3    0    0 -0.14015808282E+02 -0.48037469525E+02  0.56505076922E+02  0.75477579970E+02  0.00000000000E+00 0.  1.
         13    1    3    3    0    0 -0.21786384880E+02  0.38373793921E+02  0.15188977452E+02  0.46667972552E+02  0.00000000000E+00 0. -1.
        -13    1    4    4    0    0 -0.28394021248E+02 -0.79433434201E+01  0.34861130888E+01  0.29689562674E+02  0.00000000000E+00 0.  1.
         13    1    4    4    0    0  0.61200367683E+02 -0.41886652832E+01  0.69996572916E+02  0.93072821712E+02  0.00000000000E+00 0. -1.
         21    1    1    2  502  501  0.29958467267E+01  0.21795684307E+02 -0.13804370401E+03  0.13978587614E+03  0.00000000000E+00 0.  1.
<scales pt_clust_5="13000.00000" pt_clust_6="13000.00000" pt_clust_7="13000.00000" pt_clust_8="13000.00000" pt_clust_9="22.00061"></scales>
<clustering>
<clus scale="   22.001">  2  9  1 -1</clus>
<clus scale="   91.675">  5  6 -1 -1</clus>
<clus scale="   91.910">  7  8 -1 -1</clus>
<clus scale="   97.886">  2  5  1 -1</clus>
<clus scale="   98.107">  1  5  2 -1</clus>
</clustering>
</event>
<event>
 9    1  0.3725799E-005  0.1098290E+03  0.7546771E-02  0.1267873E+00
         -1   -1    0    0    0  501 -0.00000000000E+00  0.00000000000E+00  0.18351096993E+03  0.18351096993E+03  0.00000000000E+00 0.  1.
          1   -1    0    0  502    0  0.00000000000E+00 -0.00000000000E+00 -0.33753488927E+03  0.33753488927E+03  0.00000000000E+00 0. -1.
         23    2    1    2    0    0  0.25808226530E+02 -0.60307281239E+02  0.14812979936E+03  0.17674866675E+03  0.70672632709E+02 0.  0.
         23    2    1    2    0    0  0.64036937891E+01  0.52867376820E+02 -0.29187248209E+03  0.30967546784E+03  0.88732084125E+02 0.  0.
        -11    1    4    4    0    0  0.29914399024E+02 -0.82294939844E+01 -0.15342785560E+03  0.15653339169E+03  0.00000000000E+00 0.  1.
         11    1    4    4    0    0 -0.23510705235E+02  0.61096870804E+02 -0.13844462649E+03  0.15314207615E+03  0.00000000000E+00 0. -1.
        -13    1    3    3    0    0 -0.17700731961E+02 -0.11112042485E+02  0.87237253228E+01  0.22647224634E+02  0.00000000000E+00 0. -1.
         13    1    3    3    0    0  0.43508958491E+02 -0.49195238755E+02  0.13940607404E+03  0.15410144212E+03  0.00000000000E+00 0.  1.
         21    1    1    2  502  501 -0.32211920319E+02  0.74399044194E+01 -0.10281236610E+02  0.34621724605E+02  0.00000000000E+00 0.  1.
<scales pt_clust_5="13000.00000" pt_clust_6="13000.00000" pt_clust_7="13000.00000" pt_clust_8="13000.00000" pt_clust_9="33.05995"></scales>
<clustering>
<clus scale="   33.060">  2  9  1 -1</clus>
<clus scale="   70.673">  7  8 -1 -1</clus>
<clus scale="   88.732">  5  6 -1 -1</clus>
<clus scale="   95.831">  1  7  2 -1</clus>
<clus scale="   33.060">  2  5  1 -1</clus>
</clustering>
</event>
<event>
 9    1  0.1266593E-005  0.2917919E+03  0.7546771E-02  0.1089554E+00
          1   -1    0    0  502    0  0.00000000000E+00  0.00000000000E+00  0.92932260640E+02  0.92932260640E+02  0.00000000000E+00 0. -1.
         -1   -1    0    0    0  501 -0.00000000000E+00 -0.00000000000E+00 -0.10876610499E+04  0.10876610499E+04  0.00000000000E+00 0.  1.
         23    2    1    2    0    0 -0.22896032765E+03  0.17741335330E+03 -0.64289169978E+03  0.71080272021E+03  0.89623879901E+02 0.  0.
         23    2    1    2    0    0  0.21845135566E+03 -0.15815931866E+03 -0.30250438777E+03  0.41580103764E+03  0.92985124686E+02 0.  0.
        -11    1    3    3    0    0 -0.88544374492E+02  0.18740428138E+02 -0.21695459568E+03  0.23507574628E+03  0.00000000000E+00 0. -1.
         11    1    3    3    0    0 -0.14041595316E+03  0.15867292516E+03 -0.42593710410E+03  0.47572697394E+03  0.00000000000E+00 0.  1.
        -13    1    4    4    0    0  0.40313806574E+02 -0.50516754384E+02 -0.13112801482E+03  0.14619063494E+03  0.00000000000E+00 0.  1.
         13    1    4    4    0    0  0.17813754908E+03 -0.10764256428E+03 -0.17137637296E+03  0.26961040270E+03  0.00000000000E+00 0. -1.
         21    1    1    2  502  501  0.10508971992E+02 -0.19254034635E+02 -0.49332701747E+02  0.53989552727E+02  0.00000000000E+00 0.  1.
<scales pt_clust_5="13000.00000" pt_clust_6="13000.00000" pt_clust_7="13000.00000" pt_clust_8="13000.00000" pt_clust_9="21.93528"></scales>
<clustering>
<clus scale="   21.935">  2  9  1 -1</clus>
<clus scale="   89.624">  5  6 -1 -1</clus>
<clus scale="   92.985">  7  8 -1 -1</clus>
<clus scale="  290.738">  2  5  1 -1</clus>
<clus scale="  291.792">  1  5  2 -1</clus>
</clustering>
</event>
<event>
 9    1  0.1266593E-005  0.1745090E+03  0.7546771E-02  0.1173522E+00
         -1   -1    0    0    0  501 -0.00000000000E+00  0.00000000000E+00  0.10131635161E+03  0.10131635161E+03  0.00000000000E+00 0.  1.
          1   -1    0    0  502    0  0.00000000000E+00 -0.00000000000E+00 -0.58058421804E+03  0.58058421804E+03  0.00000000000E+00 0. -1.
         23    2    1    2    0    0  0.13963337996E+03 -0.43917252865E+02 -0.74304545989E+02  0.18805102787E+03  0.91737765564E+02 0.  0.
         23    2    1    2    0    0 -0.13352054975E+03  0.67294211180E+02 -0.42697521166E+03  0.46116357801E+03  0.89486123180E+02 0.  0.
        -11    1    3    3    0    0  0.58830893850E+02  0.13435233288E+02  0.58144306341E+01  0.60624971491E+02  0.00000000000E+00 0.  1.
         11    1    3    3    0    0  0.80802486111E+02 -0.57352486154E+02 -0.80118976623E+02  0.12742605638E+03  0.00000000000E+00 0. -1.
        -13    1    4    4    0    0 -0.12292766688E+03  0.87854668138E+02 -0.36738143559E+03  0.39723893718E+03  0.00000000000E+00 0.  1.
         13    1    4    4    0    0 -0.10592882869E+02 -0.20560456958E+02 -0.59593776071E+02  0.63924640822E+02  0.00000000000E+00 0. -1.
         21    1    1    2  502  501 -0.61128302107E+01 -0.23376958314E+02  0.22011891216E+02  0.32685963778E+02  0.00000000000E+00 0. -1.
<scales pt_clust_5="13000.00000" pt_clust_6="13000.00000" pt_clust_7="13000.00000" pt_clust_8="13000.00000" pt_clust_9="24.16296"></scales>
<clustering>
<clus scale="   24.163">  1  9  2 -1</clus>
<clus scale="   89.486">  7  8 -1 -1</clus>
<clus scale="   91.738">  5  6 -1 -1</clus>
<clus scale="  173.336">  2  7  1 -1</clus>
<clus scale="  173.336">  2  5  1 -1</clus>
</clustering>
</event>
<event>
 9    1  0.1266593E-005  0.1407291E+03  0.7546771E-02  0.1212368E+00
          1   -1    0    0  502    0  0.00000000000E+00  0.00000000000E+00  0.29318193196E+03  0.29318193196E+03  0.00000000000E+00 0. -1.
         -1   -1    0    0    0  501 -0.00000000000E+00 -0.00000000000E+00 -0.23368497387E+03  0.23368497387E+03  0.00000000000E+00 0.  1.
         23    2    1    2    0    0  0.62508866215E+02 -0.49355601657E+02 -0.15732166417E+03  0.19981221415E+03  0.93975960416E+02 0.  0.
         23    2    1    2    0    0 -0.45298124374E+02  0.98559477723E+02  0.23194115525E+03  0.27277834270E+03  0.94050167613E+02 0.  0.
        -11    1    3    3    0    0  0.31611384097E+02  0.21333970862E+02 -0.21954267413E+02  0.44004633562E+02  0.00000000000E+00 0. -1.
         11    1    3    3    0    0  0.30897482119E+02 -0.70689572519E+02 -0.13536739676E+03  0.15580758059E+03  0.00000000000E+00 0.  1.
        -13    1    4    4    0    0 -0.45082148930E+02  0.22634918468E+02  0.34156205512E+02  0.60921146256E+02  0.00000000000E+00 0.  1.
         13    1    4    4    0    0 -0.21597544433E+00  0.75924559255E+02  0.19778494974E+03  0.21185719644E+03  0.00000000000E+00 0. -1.
         21    1    1    2  502  501 -0.17210741841E+02 -0.49203876067E+02 -0.15122532987E+02  0.54276348981E+02  0.00000000000E+00 0. -1.
<scales pt_clust_5="13000.00000" pt_clust_6="13000.00000" pt_clust_7="13000.00000" pt_clust_8="13000.00000" pt_clust_9="52.12707"></scales>
<clustering>
<clus scale="   52.127">  2  9  1 -1</clus>
<clus scale="   93.976">  5  6 -1 -1</clus>
<clus scale="   94.050">  7  8 -1 -1</clus>
<clus scale="  140.680">  2  5  1 -1</clus>
<clus scale="  140.729">  1  5  2 -1</clus>
</clustering>
</event>
<event>
 9    1  0.1266593E-005  0.9137385E+02  0.7546771E-02  0.1300585E+00
          3   -1    0    0  502    0  0.00000000000E+00  0.00000000000E+00  0.28728129478E+02  0.28728129478E+02  0.00000000000E+00 0. -1.
         -3   -1    0    0    0  501 -0.00000000000E+00 -0.00000000000E+00 -0.46006067977E+03  0.46006067977E+03  0.00000000000E+00 0.  1.
         23    2    1    2    0    0 -0.21543278383E+02  0.10487366219E+02 -0.21478145379E+03  0.23395052433E+03  0.89597306017E+02 0.  0.
         23    2    1    2    0    0 -0.68441822365E+01  0.56820738001E+01 -0.10918932632E+03  0.14261596804E+03  0.91311973825E+02 0.  0.
        -11    1    4    4    0    0 -0.24225202219E+02 -0.15933778083E+02 -0.11109204961E+03  0.11481371518E+03  0.00000000000E+00 0.  1.
         11    1    4    4    0    0  0.17381019983E+02  0.21615851883E+02  0.19027232867E+01  0.27802252861E+02  0.00000000000E+00 0. -1.
        -11    1    3    3    0    0 -0.15807286513E+02 -0.38366184214E+02 -0.12312189104E+03  0.12992626544E+03  0.00000000000E+00 0.  1.
         11    1    3    3    0    0 -0.57359918702E+01  0.48853550433E+02 -0.91659562752E+02  0.10402425888E+03  0.00000000000E+00 0. -1.
         21    1    1    2  502  501  0.28387460620E+02 -0.16169440019E+02 -0.10736177018E+03  0.11222231689E+03  0.00000000000E+00 0.  1.
<scales pt_clust_5="13000.00000" pt_clust_6="13000.00000" pt_clust_7="13000.00000" pt_clust_8="13000.00000" pt_clust_9="32.66954"></scales>
<clustering>
<clus scale="   32.670">  2  9  1 -1</clus>
<clus scale="   89.597">  7  8 -1 -1</clus>
<clus scale="   89.660">  2  7  1 -1</clus>
<clus scale="   91.312">  5  6 -1 -1</clus>
<clus scale="   91.374">  1  5  2 -1</clus>
</clustering>
</event>
<event>
 9    1  0.1266593E-005  0.1027051E+03  0.7546771E-02  0.1275269E+00
         -1   -1    0    0    0  501 -0.00000000000E+00  0.00000000000E+00  0.95417357667E+02  0.95417357667E+02  0.00000000000E+00 0.  1.
          1   -1    0    0  502    0  0.00000000000E+00 -0.00000000000E+00 -0.16831716289E+03  0.16831716289E+03  0.00000000000E+00 0. -1.
         23    2    1    2    0    0  0.29762457929E+02 -0.35898337788E+02 -0.31044934945E+02  0.10933545881E+03  0.93893343796E+02 0.  0.
         23    2    1    2    0    0 -0.44533369277E+02  0.19749890223E+01 -0.53070060465E+02  0.11573701441E+03  0.92690364255E+02 0.  0.
        -11    1    4    4    0    0  0.10444731059E+02 -0.25023038032E+02 -0.46904382914E+02  0.54178094981E+02  0.00000000000E+00 0. -1.
         11    1    4    4    0    0 -0.54978100337E+02  0.26998027054E+02 -0.61656775507E+01  0.61558919428E+02  0.00000000000E+00 0.  1.
        -13    1    3    3    0    0 -0.27855849021E+02 -0.18252390067E+02 -0.35791516806E+02  0.48888963408E+02  0.00000000000E+00 0.  1.
         13    1    3    3    0    0  0.57618306950E+02 -0.17645947721E+02  0.47465818617E+01  0.60446495400E+02  0.00000000000E+00 0. -1.
         21    1    1    2  502  501  0.14770911348E+02  0.33923348766E+02  0.11215190187E+02  0.38662047340E+02  0.00000000000E+00 0.  1.
<scales pt_clust_5="13000.00000" pt_clust_6="13000.00000" pt_clust_7="13000.00000" pt_clust_8="13000.00000" pt_clust_9="36.99964"></scales>
<clustering>
<clus scale="   37.000">  1  9  2 -1</clus>
<clus scale="   92.690">  5  6 -1 -1</clus>
<clus scale="   93.893">  7  8 -1 -1</clus>
<clus scale="  101.607">  2  5  1 -1</clus>
<clus scale="  101.607">  2  5  1 -1</clus>
</clustering>
</event>
<event>
 9    1  0.1266593E-005  0.1016617E+03  0.7546771E-02  0.1277310E+00
         -1   -1    0    0    0  501 -0.00000000000E+00  0.00000000000E+00  0.15192794326E+02  0.15192794326E+02  0.00000000000E+00 0.  1.
          1   -1    0    0  502    0  0.00000000000E+00 -0.00000000000E+00 -0.10361105018E+04  0.10361105018E+04  0.00000000000E+00 0. -1.
         23    2    1    2    0    0  0.19777166898E+02  0.20648609364E+02 -0.36036851490E+03  0.37265585683E+03  0.90495412563E+02 0.  0.
         23    2    1    2    0    0 -0.42305650128E+02 -0.49755595247E+02 -0.38395033084E+03  0.39961038173E+03  0.89471857848E+02 0.  0.
        -11    1    3    3    0    0 -0.34599969277E+02  0.71918498232E+01 -0.19165050099E+03  0.19488148990E+03  0.00000000000E+00 0.  1.
         11    1    3    3    0    0  0.54377136175E+02  0.13456759541E+02 -0.16871801392E+03  0.17777436692E+03  0.00000000000E+00 0. -1.
        -13    1    4    4    0    0 -0.69869614440E+02 -0.40319405282E+02 -0.25715273672E+03  0.26950871501E+03  0.00000000000E+00 0.  1.
         13    1    4    4    0    0  0.27563964312E+02 -0.94361899643E+01 -0.12679759411E+03  0.13010166672E+03  0.00000000000E+00 0. -1.
         21    1    1    2  502  501  0.22528483230E+02  0.29106985883E+02 -0.27659886178E+03  0.27903705761E+03  0.00000000000E+00 0. -1.
<scales pt_clust_5="13000.00000" pt_clust_6="13000.00000" pt_clust_7="13000.00000" pt_clust_8="13000.00000" pt_clust_9="36.80692"></scales>
<clustering>
<clus scale="   36.807">  2  9  1 -1</clus>
<clus scale="   89.472">  7  8 -1 -1</clus>
<clus scale="   90.495">  5  6 -1 -1</clus>
<clus scale="  100.752">  2  7  1 -1</clus>
<clus scale="   36.807">  2  5  1 -1</clus>
</clustering>
</event>
<event>
 9    1  0.1266593E-005  0.1467504E+03  0.7546771E-02  0.1205516E+00
          2   -1    0    0  502    0  0.00000000000E+00  0.00000000000E+00  0.23727331001E+03  0.23727331001E+03  0.00000000000E+00 0. -1.
         -2   -1    0    0    0  501 -0.00000000000E+00 -0.00000000000E+00 -0.19681806589E+03  0.19681806589E+03  0.00000000000E+00 0.  1.
         23    2    1    2    0    0  0.35093556437E+02  0.11825922654E+03 -0.10023061714E+03  0.18516018666E+03  0.94980607209E+02 0.  0.
         23    2    1    2    0    0 -0.50416610086E+02 -0.92248341625E+02  0.15783600409E+03  0.21421102929E+03  0.99612096542E+02 0.  0.
        -11    1    4    4    0    0  0.10043455307E+02 -0.82540235600E+02  0.99079511579E+02  0.12934647696E+03  0.00000000000E+00 0.  1.
         11    1    4    4    0    0 -0.60460065393E+02 -0.97081060248E+01  0.58756492512E+02  0.84864552330E+02  0.00000000000E+00 0. -1.
        -13    1    3    3    0    0  0.23607347481E+02  0.80911017016E+02 -0.76014873228E+01  0.84626722371E+02  0.00000000000E+00 0. -1.
         13    1    3    3    0    0  0.11486208956E+02  0.37348209528E+02 -0.92629129822E+02  0.10053346429E+03  0.00000000000E+00 0.  1.
         21    1    1    2  502  501  0.15323053648E+02 -0.26010884920E+02 -0.17150142832E+02  0.34720159945E+02  0.00000000000E+00 0. -1.
<scales pt_clust_5="13000.00000" pt_clust_6="13000.00000" pt_clust_7="13000.00000" pt_clust_8="13000.00000" pt_clust_9="30.18877"></scales>
<clustering>
<clus scale="   30.189">  2  9  1 -1</clus>
<clus scale="   94.981">  7  8 -1 -1</clus>
<clus scale="   99.612">  5  6 -1 -1</clus>
<clus scale="  143.647">  2  7  1 -1</clus>
<clus scale="  146.750">  1  5  2 -1</clus>
</clustering>
</event>
<event>
 9    1  0.1266593E-005  0.1238833E+03  0.7546771E-02  0.1246182E+00
          1   -1    0    0  502    0  0.00000000000E+00  0.00000000000E+00  0.23022780449E+03  0.23022780449E+03  0.00000000000E+00 0. -1.
         -1   -1    0    0    0  501 -0.00000000000E+00 -0.00000000000E+00 -0.76676778021E+02  0.76676778021E+02  0.00000000000E+00 0.  1.
         23    2    1    2    0    0  0.22934286866E+02  0.25488443994E+02  0.21232327266E+02  0.10143969895E+03  0.93078238652E+02 0.  0.
         23    2    1    2    0    0 -0.15561415499E+02 -0.47149564056E+02  0.13176787391E+03  0.18257674771E+03  0.11621642382E+03 0.  0.
        -11    1    3    3    0    0  0.41033691967E+02  0.46970263059E+02 -0.55652839017E+01  0.62617424677E+02  0.00000000000E+00 0.  1.
         11    1    3    3    0    0 -0.18099405101E+02 -0.21481819065E+02  0.26797611168E+02  0.38822274273E+02  0.00000000000E+00 0. -1.
        -11    1    4    4    0    0  0.20518133025E+02 -0.71273285373E+02  0.11328311503E+03  0.13540287716E+03  0.00000000000E+00 0. -1.
         11    1    4    4    0    0 -0.36079548524E+02  0.24123721317E+02  0.18484758879E+02  0.47173870550E+02  0.00000000000E+00 0.  1.
         21    1    1    2  502  501 -0.73728713669E+01  0.21661120062E+02  0.55082529291E+00  0.22888135857E+02  0.00000000000E+00 0.  1.
<scales pt_clust_5="13000.00000" pt_clust_6="13000.00000" pt_clust_7="13000.00000" pt_clust_8="13000.00000" pt_clust_9="22.88151"></scales>
<clustering>
<clus scale="   22.882">  2  9  1 -1</clus>
<clus scale="   93.078">  5  6 -1 -1</clus>
<clus scale="  102.491">  2  5  1 -1</clus>
<clus scale="  116.216">  7  8 -1 -1</clus>
<clus scale="  123.883">  1  5  2 -1</clus>
</clustering>
</event>
<event>
 9    1  0.1266593E-005  0.1002216E+03  0.7546771E-02  0.1282250E+00
         -3   -1    0    0    0  501 -0.00000000000E+00  0.00000000000E+00  0.26450376782E+03  0.26450376782E+03  0.00000000000E+00 0.  1.
          3   -1    0    0  502    0  0.00000000000E+00 -0.00000000000E+00 -0.11807847216E+03  0.11807847216E+03  0.00000000000E+00 0. -1.
         23    2    1    2    0    0  0.38570521273E+01  0.10727236985E+02  0.22897188165E+02  0.99664271423E+02  0.96326192222E+02 0.  0.
         23    2    1    2    0    0 -0.98898298390E+01  0.48903422106E+02 -0.37678668352E+02  0.11093007802E+03  0.91632127188E+02 0.  0.
        -11    1    4    4    0    0  0.20555512131E+02  0.61104812307E+02 -0.43288522745E+02  0.77654512859E+02  0.00000000000E+00 0. -1.
         11    1    4    4    0    0 -0.30445341970E+02 -0.12201390201E+02  0.56098543927E+01  0.33275565161E+02  0.00000000000E+00 0.  1.
        -13    1    3    3    0    0 -0.37714078701E+02  0.14103177463E+02  0.37942834690E+02  0.55325491874E+02  0.00000000000E+00 0.  1.
         13    1    3    3    0    0  0.41571130829E+02 -0.33759404774E+01 -0.15045646525E+02  0.44338779549E+02  0.00000000000E+00 0. -1.
         21    1    1    2  502  501  0.60327777116E+01 -0.59630659091E+02  0.16120677585E+03  0.17198789054E+03  0.00000000000E+00 0.  1.
<scales pt_clust_5="13000.00000" pt_clust_6="13000.00000" pt_clust_7="13000.00000" pt_clust_8="13000.00000" pt_clust_9="59.93505"></scales>
<clustering>
<clus scale="   59.935">  1  9  2 -1</clus>
<clus scale="   91.632">  5  6 -1 -1</clus>
<clus scale="   95.719">  2  5  1 -1</clus>
<clus scale="   96.326">  7  8 -1 -1</clus>
<clus scale="   95.719">  2  5  1 -1</clus>
</clustering>
</event>
<event>
 9    1  0.1266593E-005  0.1016358E+03  0.7546771E-02  0.1281133E+00
         -3   -1    0    0    0  501 -0.00000000000E+00  0.00000000000E+00  0.76291669874E+03  0.76291669874E+03  0.00000000000E+00 0.  1.
          3   -1    0    0  502    0  0.00000000000E+00 -0.00000000000E+00 -0.11112089081E+03  0.11112089081E+03  0.00000000000E+00 0. -1.
         23    2    1    2    0    0 -0.96492748698E+01  0.49947242930E+02  0.27074235452E+02  0.11481662125E+03  0.99307636711E+02 0.  0.
         23    2    1    2    0    0 -0.38410447078E+02  0.20988382570E+02 -0.24721085343E+02  0.10415046396E+03  0.91215746641E+02 0.  0.
        -11    1    4    4    0    0 -0.60444096958E+02 -0.82009060210E+01 -0.28606858661E+02  0.67372814095E+02  0.00000000000E+00 0. -1.
         11    1    4    4    0    0  0.22033649879E+02  0.29189288591E+02  0.38857733186E+01  0.36777649867E+02  0.00000000000E+00 0.  1.
        -13    1    3    3    0    0  0.13792324700E+02  0.72953350127E+02  0.33325872242E+02  0.81382020595E+02  0.00000000000E+00 0.  1.
         13    1    3    3    0    0 -0.23441599570E+02 -0.23006107197E+02 -0.62516367901E+01  0.33434600660E+02  0.00000000000E+00 0. -1.
         21    1    1    2  502  501  0.48059721948E+02 -0.70935625500E+02  0.64944265782E+03  0.65507050433E+03  0.00000000000E+00 0. -1.
<scales pt_clust_5="13000.00000" pt_clust_6="13000.00000" pt_clust_7="13000.00000" pt_clust_8="13000.00000" pt_clust_9="85.68314"></scales>
<clustering>
<clus scale="   85.683">  1  9  2 -1</clus>
<clus scale="   91.216">  5  6 -1 -1</clus>
<clus scale="   93.745">  2  5  1 -1</clus>
<clus scale="   99.308">  7  8 -1 -1</clus>
<clus scale="   93.745">  2  5  1 -1</clus>
</clustering>
</event>
<event>
 9    1  0.1266593E-005  0.9487421E+02  0.7546771E-02  0.1292176E+00
          1   -1    0    0  502    0  0.00000000000E+00  0.00000000000E+00  0.24315493104E+03  0.24315493104E+03  0.00000000000E+00 0. -1.
         -1   -1    0    0    0  501 -0.00000000000E+00 -0.00000000000E+00 -0.57510243785E+02  0.57510243785E+02  0.00000000000E+00 0.  1.
         23    2    1    2    0    0 -0.24679021365E+02  0.15189440244E+01  0.48001037105E+02  0.10519264752E+03  0.90277528996E+02 0.  0.
         23    2    1    2    0    0  0.10428638275E+02  0.31373169750E+02  0.12268953476E+03  0.15663195402E+03  0.91585014075E+02 0.  0.
        -13    1    3    3    0    0 -0.36685343857E+02 -0.22802345744E+02 -0.71033607131E+01  0.43774640590E+02  0.00000000000E+00 0. -1.
         13    1    3    3    0    0  0.12006322491E+02  0.24321289769E+02  0.55104397818E+02  0.61418006925E+02  0.00000000000E+00 0.  1.
        -13    1    4    4    0    0 -0.23471438495E+02  0.35936210456E+02  0.18084848988E+02  0.46576618704E+02  0.00000000000E+00 0.  1.
         13    1    4    4    0    0  0.33900076770E+02 -0.45630407058E+01  0.10460468577E+03  0.11005533531E+03  0.00000000000E+00 0. -1.
         21    1    1    2  502  501  0.14250383091E+02 -0.32892113774E+02  0.14954115395E+02  0.38840573297E+02  0.00000000000E+00 0. -1.
<scales pt_clust_5="13000.00000" pt_clust_6="13000.00000" pt_clust_7="13000.00000" pt_clust_8="13000.00000" pt_clust_9="35.84640"></scales>
<clustering>
<clus scale="   35.846">  2  9  1 -1</clus>
<clus scale="   90.278">  5  6 -1 -1</clus>
<clus scale="   91.585">  7  8 -1 -1</clus>
<clus scale="   93.613">  2  5  1 -1</clus>
<clus scale="   94.874">  1  5  2 -1</clus>
</clustering>
</event>
<event>
 9    1  0.1266593E-005  0.9588440E+02  0.7546771E-02  0.1290158E+00
         -4   -1    0    0    0  501 -0.00000000000E+00  0.00000000000E+00  0.42420829969E+02  0.42420829969E+02  0.00000000000E+00 0.  1.
          4   -1    0    0  502    0  0.00000000000E+00 -0.00000000000E+00 -0.31835714480E+03  0.31835714480E+03  0.00000000000E+00 0. -1.
         23    2    1    2    0    0 -0.19182966135E+01 -0.15269426436E+02 -0.54355163165E+02  0.10601550733E+03  0.89710471994E+02 0.  0.
         23    2    1    2    0    0 -0.15566472582E+02  0.31888860281E+02 -0.19819431210E+03  0.22116385140E+03  0.91505460704E+02 0.  0.
        -13    1    3    3    0    0  0.20136282031E+02 -0.47543450769E+02 -0.26656842597E+02  0.58107115075E+02  0.00000000000E+00 0. -1.
         13    1    3    3    0    0 -0.22054578645E+02  0.32274024333E+02 -0.27698320568E+02  0.47908392252E+02  0.00000000000E+00 0.  1.
        -13    1    4    4    0    0 -0.48152427767E+02  0.19796594790E+02 -0.16531406057E+03  0.17331849321E+03  0.00000000000E+00 0. -1.
         13    1    4    4    0    0  0.32585955185E+02  0.12092265491E+02 -0.32880251529E+02  0.47845358193E+02  0.00000000000E+00 0.  1.
         21    1    1    2  502  501  0.17484769195E+02 -0.16619433845E+02 -0.23386839571E+02  0.33598616047E+02  0.00000000000E+00 0. -1.
<scales pt_clust_5="13000.00000" pt_clust_6="13000.00000" pt_clust_7="13000.00000" pt_clust_8="13000.00000" pt_clust_9="24.12307"></scales>
<clustering>
<clus scale="   24.123">  1  9  2 -1</clus>
<clus scale="   89.710">  5  6 -1 -1</clus>
<clus scale="   91.505">  7  8 -1 -1</clus>
<clus scale="   94.173">  1  5  2 -1</clus>
<clus scale="   95.884">  2  5  1 -1</clus>
</clustering>
</event>
<event>
 9    1  0.1266593E-005  0.1621756E+03  0.7546771E-02  0.1186345E+00
          3   -1    0    0  502    0  0.00000000000E+00  0.00000000000E+00  0.36392938830E+03  0.36392938830E+03  0.00000000000E+00 0. -1.
         -3   -1    0    0    0  501 -0.00000000000E+00 -0.00000000000E+00 -0.18946172976E+03  0.18946172976E+03  0.00000000000E+00 0.  1.
         23    2    1    2    0    0  0.14862908691E+03  0.36001497081E+00 -0.36477727327E+02  0.17788830414E+03  0.90680147077E+02 0.  0.
         23    2    1    2    0    0 -0.12602535141E+03 -0.39910343936E+02  0.26185701868E+03  0.30718625856E+03  0.91208960469E+02 0.  0.
        -11    1    3    3    0    0  0.35304475067E+02  0.32801634349E+02 -0.35759923150E+02  0.60009376596E+02  0.00000000000E+00 0. -1.
         11    1    3    3    0    0  0.11332461184E+03 -0.32441619378E+02 -0.71780417737E+00  0.11787892755E+03  0.00000000000E+00 0.  1.
        -11    1    4    4    0    0 -0.34695566011E+02  0.29650802108E+02  0.68358281525E+02  0.82193716424E+02  0.00000000000E+00 0.  1.
         11    1    4    4    0    0 -0.91329785394E+02 -0.69561146044E+02  0.19349873715E+03  0.22499254214E+03  0.00000000000E+00 0. -1.
         21    1    1    2  502  501 -0.22603735504E+02  0.39550328965E+02 -0.50911632812E+02  0.68316555355E+02  0.00000000000E+00 0. -1.
<scales pt_clust_5="13000.00000" pt_clust_6="13000.00000" pt_clust_7="13000.00000" pt_clust_8="13000.00000" pt_clust_9="45.55390"></scales>
<clustering>
<clus scale="   45.554">  2  9  1 -1</clus>
<clus scale="   90.680">  5  6 -1 -1</clus>
<clus scale="   91.209">  7  8 -1 -1</clus>
<clus scale="  161.879">  2  5  1 -1</clus>
<clus scale="  162.176">  1  5  2 -1</clus>
</clustering>
</event>
<event>
 9    1  0.1266593E-005  0.1126018E+03  0.7546771E-02  0.1258049E+00
         -2   -1    0    0    0  501 -0.00000000000E+00  0.00000000000E+00  0.85001862884E+02  0.85001862884E+02  0.00000000000E+00 0.  1.
          2   -1    0    0  502    0  0.00000000000E+00 -0.00000000000E+00 -0.24910152901E+03  0.24910152901E+03  0.00000000000E+00 0. -1.
         23    2    1    2    0    0  0.40918945962E+02 -0.52874282589E+02 -0.33096233668E+02  0.12186702479E+03  0.96364729804E+02 0.  0.
         23    2    1    2    0    0 -0.53011328522E+02  0.21651684453E+02 -0.14113694794E+03  0.17725402175E+03  0.90666166567E+02 0.  0.
        -11    1    3    3    0    0  0.61360064204E+02 -0.52433070668E+02  0.25744503976E+01  0.80752165133E+02  0.00000000000E+00 0.  1.
         11    1    3    3    0    0 -0.20441118242E+02 -0.44121192144E+00 -0.35670684065E+02  0.41114859657E+02  0.00000000000E+00 0. -1.
        -11    1    4    4    0    0 -0.19416622243E+02  0.47599885406E+02 -0.11844609249E+03  0.12912099417E+03  0.00000000000E+00 0. -1.
         11    1    4    4    0    0 -0.33594706278E+02 -0.25948200953E+02 -0.22690855459E+02  0.48133027581E+02  0.00000000000E+00 0.  1.
         21    1    1    2  502  501  0.12092382559E+02  0.31222598136E+02  0.10133515487E+02  0.34982345354E+02  0.00000000000E+00 0.  1.
<scales pt_clust_5="13000.00000" pt_clust_6="13000.00000" pt_clust_7="13000.00000" pt_clust_8="13000.00000" pt_clust_9="33.48248"></scales>
<clustering>
<clus scale="   33.482">  1  9  2 -1</clus>
<clus scale="   90.666">  7  8 -1 -1</clus>
<clus scale="   96.365">  5  6 -1 -1</clus>
<clus scale="  107.765">  2  7  1 -1</clus>
<clus scale="  107.765">  2  5  1 -1</clus>
</clustering>
</event>
<event>
 9    1  0.1266593E-005  0.1392986E+03  0.7546771E-02  0.1214701E+00
         -2   -1    0    0    0  501 -0.00000000000E+00  0.00000000000E+00  0.47382443964E+03  0.47382443964E+03  0.00000000000E+00 0.  1.
          2   -1    0    0  502    0  0.00000000000E+00 -0.00000000000E+00 -0.70280411888E+02  0.70280411888E+02  0.00000000000E+00 0. -1.
         23    2    1    2    0    0 -0.75126513787E+02 -0.40709603949E+02  0.26402287766E+03  0.29279568390E+03  0.93380767054E+02 0.  0.
         23    2    1    2    0    0  0.10005865049E+03  0.44388402288E+02  0.39327464768E+02  0.14799450470E+03  0.91507705363E+02 0.  0.
        -11    1    4    4    0    0  0.27332100256E+02  0.57073389852E+02 -0.21482599940E+01  0.63316905757E+02  0.00000000000E+00 0.  1.
         11    1    4    4    0    0  0.72726550229E+02 -0.12684987564E+02  0.41475724762E+02  0.84677598940E+02  0.00000000000E+00 0. -1.
        -13    1    3    3    0    0 -0.39070174589E+02  0.27549653808E+02  0.12410765709E+03  0.13299688912E+03  0.00000000000E+00 0. -1.
         13    1    3    3    0    0 -0.36056339198E+02 -0.68259257757E+02  0.13991522056E+03  0.15979879477E+03  0.00000000000E+00 0.  1.
         21    1    1    2  502  501 -0.24932136698E+02 -0.36787983392E+01  0.10019368533E+03  0.10331466294E+03  0.00000000000E+00 0.  1.
<scales pt_clust_5="13000.00000" pt_clust_6="13000.00000" pt_clust_7="13000.00000" pt_clust_8="13000.00000" pt_clust_9="25.20208"></scales>
<clustering>
<clus scale="   25.202">  1  9  2 -1</clus>
<clus scale="   91.508">  5  6 -1 -1</clus>
<clus scale="   93.381">  7  8 -1 -1</clus>
<clus scale="  138.050">  2  5  1 -1</clus>
<clus scale="  138.050">  2  5  1 -1</clus>
</clustering>
</event>
<event>
 9    1  0.1266593E-005  0.4059649E+03  0.7546771E-02  0.1041766E+00
          2   -1    0    0  502    0  0.00000000000E+00  0.00000000000E+00  0.14220607137E+04  0.14220607137E+04  0.00000000000E+00 0. -1.
         -2   -1    0    0    0  501 -0.00000000000E+00 -0.00000000000E+00 -0.29585277659E+03  0.29585277659E+03  0.00000000000E+00 0.  1.
         23    2    1    2    0    0  0.25130259687E+03 -0.30675404205E+03  0.33534552481E+03  0.52739889435E+03  0.91880004613E+02 0.  0.
         23    2    1    2    0    0 -0.27343309382E+03  0.28473044514E+03  0.94755049638E+03  0.10307461590E+04  0.93534046948E+02 0.  0.
        -11    1    3    3    0    0  0.13820356789E+03 -0.19304969887E+03  0.25359994663E+03  0.34739220679E+03  0.00000000000E+00 0. -1.
         11    1    3    3    0    0  0.11309902898E+03 -0.11370434318E+03  0.81745578181E+02  0.18000668756E+03  0.00000000000E+00 0.  1.
        -11    1    4    4    0    0 -0.15345966309E+03  0.10205924842E+03  0.37332921195E+03  0.41634199750E+03  0.00000000000E+00 0.  1.
         11    1    4    4    0    0 -0.11997343072E+03  0.18267119672E+03  0.57422128443E+03  0.61440416151E+03  0.00000000000E+00 0. -1.
         21    1    1    2  502  501  0.22130496949E+02  0.22023596909E+02 -0.15668808413E+03  0.15976843688E+03  0.00000000000E+00 0.  1.
<scales pt_clust_5="13000.00000" pt_clust_6="13000.00000" pt_clust_7="13000.00000" pt_clust_8="13000.00000" pt_clust_9="31.22175"></scales>
<clustering>
<clus scale="   31.222">  2  9  1 -1</clus>
<clus scale="   91.880">  5  6 -1 -1</clus>
<clus scale="   93.534">  7  8 -1 -1</clus>
<clus scale="  405.587">  2  5  1 -1</clus>
<clus scale="  405.965">  1  5  2 -1</clus>
</clustering>
</event>
<event>
 9    1  0.1266593E-005  0.9675215E+02  0.7546771E-02  0.1289108E+00
         -3   -1    0    0    0  501 -0.00000000000E+00  0.00000000000E+00  0.17717962656E+03  0.17717962656E+03  0.00000000000E+00 0.  1.
          3   -1    0    0  502    0  0.00000000000E+00 -0.00000000000E+00 -0.18097607902E+03  0.18097607902E+03  0.00000000000E+00 0. -1.
         23    2    1    2    0    0 -0.13746928235E+02  0.56464667669E+02 -0.75278779569E+02  0.13068085145E+03  0.89628977184E+02 0.  0.
         23    2    1    2    0    0  0.50146170801E+01 -0.15507528506E+02 -0.48673772386E+02  0.10023009490E+03  0.86088942265E+02 0.  0.
        -11    1    3    3    0    0 -0.44140047107E+02  0.60010408870E+02 -0.63520541456E+02  0.97900215107E+02  0.00000000000E+00 0. -1.
         11    1    3    3    0    0  0.30393118872E+02 -0.35457412004E+01 -0.11758238113E+02  0.32780636341E+02  0.00000000000E+00 0.  1.
        -13    1    4    4    0    0  0.27627856372E+02 -0.41832770332E+01 -0.64571440680E+02  0.70358149534E+02  0.00000000000E+00 0. -1.
         13    1    4    4    0    0 -0.22613239292E+02 -0.11324251473E+02  0.15897668294E+02  0.29871945365E+02  0.00000000000E+00 0.  1.
         21    1    1    2  502  501  0.87323111548E+01 -0.40957139163E+02  0.12015609950E+03  0.12724475924E+03  0.00000000000E+00 0.  1.
<scales pt_clust_5="13000.00000" pt_clust_6="13000.00000" pt_clust_7="13000.00000" pt_clust_8="13000.00000" pt_clust_9="41.87769"></scales>
<clustering>
<clus scale="   41.878">  1  9  2 -1</clus>
<clus scale="   86.089">  7  8 -1 -1</clus>
<clus scale="   89.629">  5  6 -1 -1</clus>
<clus scale="   93.482">  2  7  1 -1</clus>
<clus scale="   93.482">  2  5  1 -1</clus>
</clustering>
</event>
<event>
 9    1  0.1266593E-005  0.9820375E+02  0.7546771E-02  0.1284418E+00
         -4   -1    0    0    0  501 -0.00000000000E+00  0.00000000000E+00  0.10629728970E+03  0.10629728970E+03  0.00000000000E+00 0.  1.
          4   -1    0    0  502    0  0.00000000000E+00 -0.00000000000E+00 -0.16740235520E+03  0.16740235520E+03  0.00000000000E+00 0. -1.
         23    2    1    2    0    0  0.12405806719E+02 -0.10832713905E+02  0.43476329420E+01  0.93334286379E+02  0.91766744362E+02 0.  0.
         23    2    1    2    0    0 -0.13884682886E+00  0.43573225962E+02 -0.91223973759E+02  0.13693060209E+03  0.92355460592E+02 0.  0.
        -11    1    3    3    0    0 -0.29301290189E+02 -0.39443832441E+01  0.31414466354E+02  0.43139221854E+02  0.00000000000E+00 0. -1.
         11    1    3    3    0    0  0.41707096907E+02 -0.68883306613E+01 -0.27066833411E+02  0.50195064525E+02  0.00000000000E+00 0.  1.
        -13    1    4    4    0    0 -0.23456139600E+02  0.21829221187E+01  0.96285698528E+01  0.25449263080E+02  0.00000000000E+00 0.  1.
         13    1    4    4    0    0  0.23317292771E+02  0.41390303843E+02 -0.10085254361E+03  0.11148133901E+03  0.00000000000E+00 0. -1.
         21    1    1    2  502  501 -0.12266959890E+02 -0.32740512056E+02  0.25771275318E+02  0.43434756431E+02  0.00000000000E+00 0.  1.
<scales pt_clust_5="13000.00000" pt_clust_6="13000.00000" pt_clust_7="13000.00000" pt_clust_8="13000.00000" pt_clust_9="34.96312"></scales>
<clustering>
<clus scale="   34.963">  1  9  2 -1</clus>
<clus scale="   91.767">  5  6 -1 -1</clus>
<clus scale="   92.355">  7  8 -1 -1</clus>
<clus scale="   97.650">  1  5  2 -1</clus>
<clus scale="   98.204">  2  5  1 -1</clus>
</clustering>
</event>
<event>
 9    1  0.1266593E-005  0.9941885E+02  0.7546771E-02  0.1282967E+00
         -1   -1    0    0    0  501 -0.00000000000E+00  0.00000000000E+00  0.13795515712E+03  0.13795515712E+03  0.00000000000E+00 0.  1.
          1   -1    0    0  502    0  0.00000000000E+00 -0.00000000000E+00 -0.13805789771E+03  0.13805789771E+03  0.00000000000E+00 0. -1.
         23    2    1    2    0    0 -0.61046874843E+02  0.31928463730E+02  0.39152328975E+02  0.11742011069E+03  0.86651196216E+02 0.  0.
         23    2    1    2    0    0  0.10091327386E+02  0.47479760847E+01 -0.16574573151E+02  0.91839412610E+02  0.89640298238E+02 0.  0.
        -11    1    4    4    0    0 -0.29057069880E+02 -0.26691562300E+02 -0.12832992826E+02  0.41490221895E+02  0.00000000000E+00 0.  1.
         11    1    4    4    0    0  0.39148397266E+02  0.31439538384E+02 -0.37415803247E+01  0.50349190715E+02  0.00000000000E+00 0. -1.
        -11    1    3    3    0    0 -0.10506558373E+02 -0.24128046887E+02  0.32256282014E+02  0.41629534526E+02  0.00000000000E+00 0.  1.
         11    1    3    3    0    0 -0.50540316470E+02  0.56056510617E+02  0.68960469609E+01  0.75790576163E+02  0.00000000000E+00 0. -1.
         21    1    1    2  502  501  0.50955547457E+02 -0.36676439815E+02 -0.22680496420E+02  0.66753531532E+02  0.00000000000E+00 0. -1.
<scales pt_clust_5="13000.00000" pt_clust_6="13000.00000" pt_clust_7="13000.00000" pt_clust_8="13000.00000" pt_clust_9="62.78239"></scales>
<clustering>
<clus scale="   62.782">  2  9  1 -1</clus>
<clus scale="   86.651">  7  8 -1 -1</clus>
<clus scale="   89.640">  5  6 -1 -1</clus>
<clus scale="   96.732">  1  7  2 -1</clus>
<clus scale="   62.782">  2  5  1 -1</clus>
</clustering>
</event>
<event>
 9    1  0.1266593E-005  0.9217541E+02  0.7546771E-02  0.1298734E+00
          1   -1    0    0  502    0  0.00000000000E+00  0.00000000000E+00  0.27749826762E+03  0.27749826762E+03  0.00000000000E+00 0. -1.
         -1   -1    0    0    0  501 -0.00000000000E+00 -0.00000000000E+00 -0.50188914200E+02  0.50188914200E+02  0.00000000000E+00 0.  1.
         23    2    1    2    0    0  0.18969692067E+02  0.26261919635E+02  0.92770702296E+02  0.13253937971E+03  0.88942376458E+02 0.  0.
         23    2    1    2    0    0 -0.12899353693E+02  0.20208600270E+02  0.98083907924E+02  0.13577351028E+03  0.90770106587E+02 0.  0.
        -11    1    4    4    0    0  0.97026646267E+01  0.53016028191E+02  0.52620384321E+02  0.75324270936E+02  0.00000000000E+00 0.  1.
         11    1    4    4    0    0 -0.22602018320E+02 -0.32807427921E+02  0.45463523604E+02  0.60449239345E+02  0.00000000000E+00 0. -1.
        -11    1    3    3    0    0 -0.98873533146E+01  0.45734049672E+02  0.84759811833E+02  0.96817295753E+02  0.00000000000E+00 0. -1.
         11    1    3    3    0    0  0.28857045382E+02 -0.19472130038E+02  0.80108904628E+01  0.35722083959E+02  0.00000000000E+00 0.  1.
         21    1    1    2  502  501 -0.60703383741E+01 -0.46470519905E+02  0.36454743204E+02  0.59374291830E+02  0.00000000000E+00 0.  1.
<scales pt_clust_5="13000.00000" pt_clust_6="13000.00000" pt_clust_7="13000.00000" pt_clust_8="13000.00000" pt_clust_9="46.86532"></scales>
<clustering>
<clus scale="   46.865">  2  9  1 -1</clus>
<clus scale="   88.942">  7  8 -1 -1</clus>
<clus scale="   90.376">  2  7  1 -1</clus>
<clus scale="   90.770">  5  6 -1 -1</clus>
<clus scale="   92.175">  1  5  2 -1</clus>
</clustering>
</event>
<event>
 9    1  0.1266593E-005  0.9640815E+02  0.7546771E-02  0.1290506E+00
          1   -1    0    0  502    0  0.00000000000E+00  0.00000000000E+00  0.34881743636E+03  0.34881743636E+03  0.00000000000E+00 0. -1.
         -1   -1    0    0    0  501 -0.00000000000E+00 -0.00000000000E+00 -0.47287447527E+02  0.47287447527E+02  0.00000000000E+00 0.  1.
         23    2    1    2    0    0  0.79726080526E+01 -0.45072813790E+02  0.12693469574E+03  0.16464778111E+03  0.94346986284E+02 0.  0.
         23    2    1    2    0    0 -0.87733804185E+01  0.10652205455E+01  0.16233279266E+03  0.18576598311E+03  0.89883024039E+02 0.  0.
        -11    1    4    4    0    0 -0.81793314060E+01  0.44782717760E+02  0.68505189559E+02  0.82251773651E+02  0.00000000000E+00 0.  1.
         11    1    4    4    0    0 -0.59404901256E+00 -0.43717497214E+02  0.93827603097E+02  0.10351420946E+03  0.00000000000E+00 0. -1.
        -13    1    3    3    0    0 -0.20884022451E+02 -0.12944141537E+02 -0.56464613335E+01  0.25210627114E+02  0.00000000000E+00 0.  1.
         13    1    3    3    0    0  0.28856630504E+02 -0.32128672253E+02  0.13258115707E+03  0.13943715400E+03  0.00000000000E+00 0. -1.
         21    1    1    2  502  501  0.80077236598E+00  0.44007593245E+02  0.12262500444E+02  0.45691119670E+02  0.00000000000E+00 0.  1.
<scales pt_clust_5="13000.00000" pt_clust_6="13000.00000" pt_clust_7="13000.00000" pt_clust_8="13000.00000" pt_clust_9="44.01488"></scales>
<clustering>
<clus scale="   44.015">  2  9  1 -1</clus>
<clus scale="   89.883">  5  6 -1 -1</clus>
<clus scale="   92.044">  1  5  2 -1</clus>
<clus scale="   94.347">  7  8 -1 -1</clus>
<clus scale="   92.044">  1  5  2 -1</clus>
</clustering>
</event>
<event>
 9    1  0.1266593E-005  0.1262398E+03  0.7546771E-02  0.1239504E+00
         -1   -1    0    0    0  501 -0.00000000000E+00  0.00000000000E+00  0.55810938685E+02  0.55810938685E+02  0.00000000000E+00 0.  1.
          1   -1    0    0  502    0  0.00000000000E+00 -0.00000000000E+00 -0.31335419534E+03  0.31335419534E+03  0.00000000000E+00 0. -1.
         23    2    1    2    0    0  0.10213253183E+02  0.55524696065E+02 -0.10126564292E+03  0.15860807385E+03  0.10823348946E+03 0.  0.
         23    2    1    2    0    0  0.71109742621E+01 -0.71694602129E+02 -0.14227814061E+03  0.18303288959E+03  0.89818079722E+02 0.  0.
        -11    1    4    4    0    0  0.30739407274E+02 -0.73546385380E+02 -0.67057345449E+02  0.10416654713E+03  0.00000000000E+00 0.  1.
         11    1    4    4    0    0 -0.23628433012E+02  0.18517832508E+01 -0.75220795161E+02  0.78866342457E+02  0.00000000000E+00 0. -1.
        -11    1    3    3    0    0 -0.35541343048E+02  0.32401138826E+02 -0.95618323916E+02  0.10703216681E+03  0.00000000000E+00 0.  1.
         11    1    3    3    0    0  0.45754596231E+02  0.23123557239E+02 -0.56473190035E+01  0.51575907046E+02  0.00000000000E+00 0. -1.
         21    1    1    2  502  501 -0.17324227445E+02  0.16169906064E+02 -0.13999473123E+02  0.27524170585E+02  0.00000000000E+00 0.  1.
<scales pt_clust_5="13000.00000" pt_clust_6="13000.00000" pt_clust_7="13000.00000" pt_clust_8="13000.00000" pt_clust_9="23.69799"></scales>
<clustering>
<clus scale="   23.698">  1  9  2 -1</clus>
<clus scale="   89.818">  5  6 -1 -1</clus>
<clus scale="  108.233">  7  8 -1 -1</clus>
<clus scale="  110.857">  2  5  1 -1</clus>
<clus scale="  110.857">  2  5  1 -1</clus>
</clustering>
</event>
<event>
 9    1  0.1266593E-005  0.1124504E+03  0.7546771E-02  0.1257487E+00
         -1   -1    0    0    0  501 -0.00000000000E+00  0.00000000000E+00  0.29819575573E+02  0.29819575573E+02  0.00000000000E+00 0.  1.
          1   -1    0    0  502    0  0.00000000000E+00 -0.00000000000E+00 -0.50719070396E+03  0.50719070396E+03  0.00000000000E+00 0. -1.
         23    2    1    2    0    0  0.52608140142E+02 -0.81835239675E+01 -0.17929084577E+03  0.20823648836E+03  0.91556765091E+02 0.  0.
         23    2    1    2    0    0 -0.74471217085E+02  0.12564117784E+02 -0.26040206573E+03  0.28499215388E+03  0.87792213269E+02 0.  0.
        -13    1    3    3    0    0  0.81178046657E+01 -0.33952946344E+02 -0.13784548884E+03  0.14219732807E+03  0.00000000000E+00 0. -1.
         13    1    3    3    0    0  0.44490335476E+02  0.25769422377E+02 -0.41445356936E+02  0.66039160291E+02  0.00000000000E+00 0.  1.
        -13    1    4    4    0    0 -0.39736305540E+02  0.50511487144E+02 -0.15033470115E+03  0.16349589194E+03  0.00000000000E+00 0.  1.
         13    1    4    4    0    0 -0.34734911545E+02 -0.37947369360E+02 -0.11006736458E+03  0.12149626195E+03  0.00000000000E+00 0. -1.
         21    1    1    2  502  501  0.21863076943E+02 -0.43805938160E+01 -0.37678216886E+02  0.43781637285E+02  0.00000000000E+00 0.  1.
<scales pt_clust_5="13000.00000" pt_clust_6="13000.00000" pt_clust_7="13000.00000" pt_clust_8="13000.00000" pt_clust_9="22.29762"></scales>
<clustering>
<clus scale="   22.298">  1  9  2 -1</clus>
<clus scale="   87.792">  7  8 -1 -1</clus>
<clus scale="   91.557">  5  6 -1 -1</clus>
<clus scale="  109.407">  2  7  1 -1</clus>
<clus scale="  109.407">  2  5  1 -1</clus>
</clustering>
</event>
<event>
 9    1  0.1266593E-005  0.1019879E+03  0.7546771E-02  0.1276305E+00
          2   -1    0    0  502    0  0.00000000000E+00  0.00000000000E+00  0.56518126025E+03  0.56518126025E+03  0.00000000000E+00 0. -1.
         -2   -1    0    0    0  501 -0.00000000000E+00 -0.00000000000E+00 -0.37947578499E+02  0.37947578499E+02  0.00000000000E+00 0.  1.
         23    2    1    2    0    0  0.25532842603E+02 -0.24608886505E+02  0.97615859246E+02  0.13744705924E+03  0.90029521662E+02 0.  0.
         23    2    1    2    0    0 -0.20031613640E+02  0.47795614973E+02  0.42940331531E+03  0.44185041550E+03  0.90326608065E+02 0.  0.
        -11    1    4    4    0    0  0.35858910124E+02  0.13625650243E+02  0.14356479832E+03  0.14860138323E+03  0.00000000000E+00 0.  1.
         11    1    4    4    0    0 -0.55890523764E+02  0.34169964729E+02  0.28583851699E+03  0.29324903228E+03  0.00000000000E+00 0. -1.
        -11    1    3    3    0    0  0.27280380128E+02 -0.53677999665E+02  0.38281398595E+02  0.71351329815E+02  0.00000000000E+00 0.  1.
         11    1    3    3    0    0 -0.17475375249E+01  0.29069113160E+02  0.59334460652E+02  0.66095729425E+02  0.00000000000E+00 0. -1.
         21    1    1    2  502  501 -0.55012289632E+01 -0.23186728468E+02  0.21450719404E+00  0.23831364008E+02  0.00000000000E+00 0. -1.
<scales pt_clust_5="13000.00000" pt_clust_6="13000.00000" pt_clust_7="13000.00000" pt_clust_8="13000.00000" pt_clust_9="23.83040"></scales>
<clustering>
<clus scale="   23.830">  2  9  1 -1</clus>
<clus scale="   90.030">  7  8 -1 -1</clus>
<clus scale="   90.327">  5  6 -1 -1</clus>
<clus scale="  101.725">  2  7  1 -1</clus>
<clus scale="  101.988">  1  5  2 -1</clus>
</clustering>
</event>
<event>
 9    1  0.1266593E-005  0.1013895E+03  0.7546771E-02  0.1278956E+00
          1   -1    0    0  502    0  0.00000000000E+00  0.00000000000E+00  0.36434693219E+02  0.36434693219E+02  0.00000000000E+00 0. -1.
         -1   -1    0    0    0  501 -0.00000000000E+00 -0.00000000000E+00 -0.46569677981E+03  0.46569677981E+03  0.00000000000E+00 0.  1.
         23    2    1    2    0    0 -0.46464005091E+02  0.41974052118E+02 -0.23309124757E+03  0.25870731557E+03  0.93151600167E+02 0.  0.
         23    2    1    2    0    0  0.20983500600E+02 -0.10122470467E+01 -0.15291549264E+03  0.17863102068E+03  0.89914190859E+02 0.  0.
        -13    1    4    4    0    0 -0.18352054635E+02 -0.18622251713E+02 -0.78493434127E+01  0.27298321564E+02  0.00000000000E+00 0.  1.
         13    1    4    4    0    0  0.39335555235E+02  0.17610004666E+02 -0.14506614922E+03  0.15133269911E+03  0.00000000000E+00 0. -1.
        -13    1    3    3    0    0 -0.57776402758E+01  0.57184086143E+02 -0.73463507535E+02  0.93275333152E+02  0.00000000000E+00 0.  1.
         13    1    3    3    0    0 -0.40686364816E+02 -0.15210034026E+02 -0.15962774004E+03  0.16543198242E+03  0.00000000000E+00 0. -1.
         21    1    1    2  502  501  0.25480504491E+02 -0.40961805071E+02 -0.43255346385E+02  0.64793136787E+02  0.00000000000E+00 0. -1.
<scales pt_clust_5="13000.00000" pt_clust_6="13000.00000" pt_clust_7="13000.00000" pt_clust_8="13000.00000" pt_clust_9="48.24029"></scales>
<clustering>
<clus scale="   48.240">  1  9  2 -1</clus>
<clus scale="   89.914">  5  6 -1 -1</clus>
<clus scale="   93.152">  7  8 -1 -1</clus>
<clus scale="   98.423">  1  5  2 -1</clus>
<clus scale="   48.240">  1  5  2 -1</clus>
</clustering>
</event>
<event>
 9    1  0.1266593E-005  0.1053900E+03  0.7546771E-02  0.1269752E+00
          1   -1    0    0  502    0  0.00000000000E+00  0.00000000000E+00  0.45317826481E+03  0.45317826481E+03  0.00000000000E+00 0. -1.
         -1   -1    0    0    0  501 -0.00000000000E+00 -0.00000000000E+00 -0.21456261705E+03  0.21456261705E+03  0.00000000000E+00 0.  1.
         23    2    1    2    0    0 -0.30065163685E+02 -0.16175203166E+02 -0.10140568490E+03  0.14033616704E+03  0.90805151742E+02 0.  0.
         23    2    1    2    0    0 -0.49640786714E+02  0.25794673773E+02  0.40818271845E+03  0.42208829989E+03  0.91737824042E+02 0.  0.
        -11    1    3    3    0    0 -0.99799958336E+01 -0.49709777566E+02 -0.29948508648E+02  0.58886122922E+02  0.00000000000E+00 0. -1.
         11    1    3    3    0    0 -0.20085167852E+02  0.33534574401E+02 -0.71457176255E+02  0.81450044114E+02  0.00000000000E+00 0.  1.
        -11    1    4    4    0    0  0.44415168268E+01 -0.28602047247E+02  0.80449638797E+02  0.85498237181E+02  0.00000000000E+00 0.  1.
         11    1    4    4    0    0 -0.54082303541E+02  0.54396721020E+02  0.32773307965E+03  0.33659006271E+03  0.00000000000E+00 0. -1.
         21    1    1    2  502  501  0.79705950400E+02 -0.96194706073E+01 -0.68161385787E+02  0.10531641494E+03  0.00000000000E+00 0. -1.
<scales pt_clust_5="13000.00000" pt_clust_6="13000.00000" pt_clust_7="13000.00000" pt_clust_8="13000.00000" pt_clust_9="80.28432"></scales>
<clustering>
<clus scale="   80.284">  2  9  1 -1</clus>
<clus scale="   90.805">  5  6 -1 -1</clus>
<clus scale="   91.738">  7  8 -1 -1</clus>
<clus scale="  104.579">  2  5  1 -1</clus>
<clus scale="  105.390">  1  5  2 -1</clus>
</clustering>
</event>
<event>
 9    1  0.1266593E-005  0.9794613E+02  0.7546771E-02  0.1284809E+00
         -2   -1    0    0    0  501 -0.00000000000E+00  0.00000000000E+00  0.71305930263E+02  0.71305930263E+02  0.00000000000E+00 0.  1.
          2   -1    0    0  502    0  0.00000000000E+00 -0.00000000000E+00 -0.22755844172E+03  0.22755844172E+03  0.00000000000E+00 0. -1.
         23    2    1    2    0    0  0.15803333116E+02 -0.10890113937E+01 -0.18394454320E+02  0.94067163075E+02  0.90880932741E+02 0.  0.
         23    2    1    2    0    0 -0.39525869377E+02 -0.25852419937E+02 -0.13425590760E+03  0.16871986242E+03  0.90615127219E+02 0.  0.
        -11    1    4    4    0    0 -0.40291274755E+02 -0.53296184488E+02 -0.12102803519E+03  0.13824491095E+03  0.00000000000E+00 0.  1.
         11    1    4    4    0    0  0.76540537730E+00  0.27443764551E+02 -0.13227872413E+02  0.30474951464E+02  0.00000000000E+00 0. -1.
        -13    1    3    3    0    0  0.42855153470E+02 -0.29442567748E+02 -0.33911263602E+01  0.52104977809E+02  0.00000000000E+00 0.  1.
         13    1    3    3    0    0 -0.27051820354E+02  0.28353556355E+02 -0.15003327960E+02  0.41962185266E+02  0.00000000000E+00 0. -1.
         21    1    1    2  502  501  0.23722536261E+02  0.26941431330E+02 -0.36021495364E+01  0.36077346494E+02  0.00000000000E+00 0. -1.
<scales pt_clust_5="13000.00000" pt_clust_6="13000.00000" pt_clust_7="13000.00000" pt_clust_8="13000.00000" pt_clust_9="35.89707"></scales>
<clustering>
<clus scale="   35.897">  1  9  2 -1</clus>
<clus scale="   90.615">  5  6 -1 -1</clus>
<clus scale="   90.881">  7  8 -1 -1</clus>
<clus scale="   97.700">  2  5  1 -1</clus>
<clus scale="   97.700">  2  5  1 -1</clus>
</clustering>
</event>
<event>
 9    1  0.1266593E-005  0.1296558E+03  0.7546771E-02  0.1243149E+00
          1   -1    0    0  502    0  0.00000000000E+00  0.00000000000E+00  0.28501451195E+02  0.28501451195E+02  0.00000000000E+00 0. -1.
         -1   -1    0    0    0  501 -0.00000000000E+00 -0.00000000000E+00 -0.94217757305E+03  0.94217757305E+03  0.00000000000E+00 0.  1.
         23    2    1    2    0    0 -0.16715756314E+02  0.17070222386E+02 -0.32272256549E+03  0.33642496836E+03  0.91984216385E+02 0.  0.
         23    2    1    2    0    0 -0.64400692127E+02  0.47213726645E+02 -0.25892366462E+03  0.28646654414E+03  0.92978662493E+02 0.  0.
        -11    1    4    4    0    0 -0.14640699803E+02 -0.28422427030E+02 -0.71377357647E+02  0.78210687464E+02  0.00000000000E+00 0. -1.
         11    1    4    4    0    0 -0.49759992324E+02  0.75636153675E+02 -0.18754630697E+03  0.20825585667E+03  0.00000000000E+00 0.  1.
        -13    1    3    3    0    0 -0.23494723490E+02  0.44147545609E+02 -0.28578031562E+03  0.29012307149E+03  0.00000000000E+00 0.  1.
         13    1    3    3    0    0  0.67789671767E+01 -0.27077323223E+02 -0.36942249862E+02  0.46301896870E+02  0.00000000000E+00 0. -1.
         21    1    1    2  502  501  0.81116448440E+02 -0.64283949031E+02 -0.33202989175E+03  0.34778751174E+03  0.00000000000E+00 0. -1.
<scales pt_clust_5="13000.00000" pt_clust_6="13000.00000" pt_clust_7="13000.00000" pt_clust_8="13000.00000" pt_clust_9="90.36375"></scales>
<clustering>
<clus scale="   91.984">  7  8 -1 -1</clus>
<clus scale="   92.979">  5  6 -1 -1</clus>
<clus scale="   95.036">  2  7  1 -1</clus>
<clus scale="   90.364">  2  9  1 -1</clus>
<clus scale="  129.656">  1  5  2 -1</clus>
</clustering>
</event>
<event>
 9    1  0.1266593E-005  0.1250809E+03  0.7546771E-02  0.1236499E+00
          2   -1    0    0  502    0  0.00000000000E+00  0.00000000000E+00  0.61649098673E+03  0.61649098673E+03  0.00000000000E+00 0. -1.
         -2   -1    0    0    0  501 -0.00000000000E+00 -0.00000000000E+00 -0.60752342499E+02  0.60752342499E+02  0.00000000000E+00 0.  1.
         23    2    1    2    0    0  0.59473664507E+02 -0.21102354440E+02  0.76799716836E+02  0.13228822089E+03  0.87290038083E+02 0.  0.
         23    2    1    2    0    0 -0.40876170622E+02  0.87893376537E+02  0.45047329396E+03  0.47000712838E+03  0.92652065275E+02 0.  0.
        -11    1    4    4    0    0  0.10625079635E+02  0.35191377325E+02  0.46037825245E+02  0.58913552843E+02  0.00000000000E+00 0.  1.
         11    1    4    4    0    0 -0.51501250257E+02  0.52701999212E+02  0.40443546871E+03  0.41109357554E+03  0.00000000000E+00 0. -1.
        -13    1    3    3    0    0  0.57419589655E+02 -0.45151054768E+02  0.28716877460E+02  0.78487489920E+02  0.00000000000E+00 0.  1.
         13    1    3    3    0    0  0.20540748523E+01  0.24048700328E+02  0.48082839375E+02  0.53800730974E+02  0.00000000000E+00 0. -1.
         21    1    1    2  502  501 -0.18597493885E+02 -0.66791022097E+02  0.28465633438E+02  0.74947979951E+02  0.00000000000E+00 0.  1.
<scales pt_clust_5="13000.00000" pt_clust_6="13000.00000" pt_clust_7="13000.00000" pt_clust_8="13000.00000" pt_clust_9="69.33186"></scales>
<clustering>
<clus scale="   69.332">  2  9  1 -1</clus>
<clus scale="   87.290">  7  8 -1 -1</clus>
<clus scale="   92.652">  5  6 -1 -1</clus>
<clus scale="  121.163">  2  7  1 -1</clus>
<clus scale="  125.081">  1  5  2 -1</clus>
</clustering>
</event>
<event>
 9    1  0.1266593E-005  0.1703722E+03  0.7546771E-02  0.1177602E+00
         -1   -1    0    0    0  501 -0.00000000000E+00  0.00000000000E+00  0.66285096853E+02  0.66285096853E+02  0.00000000000E+00 0.  1.
          1   -1    0    0  502    0  0.00000000000E+00 -0.00000000000E+00 -0.10656545766E+04  0.10656545766E+04  0.00000000000E+00 0. -1.
         23    2    1    2    0    0  0.13046517996E+03  0.94491664405E+02 -0.15573313623E+03  0.24226067500E+03  0.92128101602E+02 0.  0.
         23    2    1    2    0    0 -0.14234428254E+03 -0.15401718905E+02 -0.73754953204E+03  0.75682289537E+03  0.91117918264E+02 0.  0.
        -11    1    4    4    0    0 -0.12716697964E+03  0.20496804204E+02 -0.51351921457E+03  0.52942756202E+03  0.00000000000E+00 0. -1.
         11    1    4    4    0    0 -0.15177302903E+02 -0.35898523109E+02 -0.22403031748E+03  0.22739533336E+03  0.00000000000E+00 0.  1.
        -13    1    3    3    0    0  0.10792366110E+03  0.97737111193E+02 -0.86455600182E+02  0.16933585070E+03  0.00000000000E+00 0.  1.
         13    1    3    3    0    0  0.22541518860E+02 -0.32454467872E+01 -0.69277536051E+02  0.72924824297E+02  0.00000000000E+00 0. -1.
         21    1    1    2  502  501  0.11879102577E+02 -0.79089945501E+02 -0.10608681146E+03  0.13285610307E+03  0.00000000000E+00 0.  1.
<scales pt_clust_5="13000.00000" pt_clust_6="13000.00000" pt_clust_7="13000.00000" pt_clust_8="13000.00000" pt_clust_9="79.97708"></scales>
<clustering>
<clus scale="   79.977">  1  9  2 -1</clus>
<clus scale="   91.118">  5  6 -1 -1</clus>
<clus scale="   92.128">  7  8 -1 -1</clus>
<clus scale="  169.828">  2  5  1 -1</clus>
<clus scale="  169.828">  2  5  1 -1</clus>
</clustering>
</event>
<event>
 9    1  0.1266593E-005  0.1056996E+03  0.7546771E-02  0.1269806E+00
          2   -1    0    0  502    0  0.00000000000E+00  0.00000000000E+00  0.52750869261E+03  0.52750869261E+03  0.00000000000E+00 0. -1.
         -2   -1    0    0    0  501 -0.00000000000E+00 -0.00000000000E+00 -0.44318200422E+02  0.44318200422E+02  0.00000000000E+00 0.  1.
         23    2    1    2    0    0 -0.56494439535E+02  0.89040699425E+01  0.49476504305E+02  0.11872068174E+03  0.91519241882E+02 0.  0.
         23    2    1    2    0    0  0.29700026732E+02 -0.23397392929E+02  0.37074441656E+03  0.38315505775E+03  0.89032838256E+02 0.  0.
        -11    1    4    4    0    0  0.44409496689E+02 -0.46175833329E+02  0.31122091791E+03  0.31774655108E+03  0.00000000000E+00 0. -1.
         11    1    4    4    0    0 -0.14709469956E+02  0.22778440400E+02  0.59523498650E+02  0.65408506672E+02  0.00000000000E+00 0.  1.
        -13    1    3    3    0    0 -0.70036363680E+01  0.45048405779E+02  0.13018519157E+02  0.47411935487E+02  0.00000000000E+00 0. -1.
         13    1    3    3    0    0 -0.49490803167E+02 -0.36144335836E+02  0.36457985148E+02  0.71308746254E+02  0.00000000000E+00 0.  1.
         21    1    1    2  502  501  0.26794412803E+02  0.14493322986E+02  0.62969571322E+02  0.69951153536E+02  0.00000000000E+00 0. -1.
<scales pt_clust_5="13000.00000" pt_clust_6="13000.00000" pt_clust_7="13000.00000" pt_clust_8="13000.00000" pt_clust_9="30.46304"></scales>
<clustering>
<clus scale="   30.463">  1  9  2 -1</clus>
<clus scale="   89.033">  5  6 -1 -1</clus>
<clus scale="   91.519">  7  8 -1 -1</clus>
<clus scale="  103.554">  1  5  2 -1</clus>
<clus scale="   30.463">  1  5  2 -1</clus>
</clustering>
</event>
<event>
 9    1  0.1266593E-005  0.9144368E+02  0.7546771E-02  0.1299444E+00
          1   -1    0    0  502    0  0.00000000000E+00  0.00000000000E+00  0.84415774995E+02  0.84415774995E+02  0.00000000000E+00 0. -1.
         -1   -1    0    0    0  501 -0.00000000000E+00 -0.00000000000E+00 -0.13455265835E+03  0.13455265835E+03  0.00000000000E+00 0.  1.
         23    2    1    2    0    0  0.37643040360E+01  0.24850126924E+01 -0.49987472210E+02  0.10371297032E+03  0.90759503976E+02 0.  0.
         23    2    1    2    0    0  0.16615306202E+02 -0.56995697833E+01  0.84278983216E+01  0.92911959977E+02  0.90846295141E+02 0.  0.
        -13    1    4    4    0    0  0.37345697219E+02  0.27596912742E+02 -0.12995492613E+02  0.48220053110E+02  0.00000000000E+00 0.  1.
         13    1    4    4    0    0 -0.20730391017E+02 -0.33296482525E+02  0.21423390935E+02  0.44691906867E+02  0.00000000000E+00 0. -1.
        -13    1    3    3    0    0  0.38409146629E+02 -0.17699832358E+02 -0.36683980121E+01  0.42450014773E+02  0.00000000000E+00 0.  1.
         13    1    3    3    0    0 -0.34644842593E+02  0.20184845050E+02 -0.46319074198E+02  0.61262955549E+02  0.00000000000E+00 0. -1.
         21    1    1    2  502  501 -0.20379610238E+02  0.32145570910E+01 -0.85773094680E+01  0.22343503048E+02  0.00000000000E+00 0. -1.
<scales pt_clust_5="13000.00000" pt_clust_6="13000.00000" pt_clust_7="13000.00000" pt_clust_8="13000.00000" pt_clust_9="20.63158"></scales>
<clustering>
<clus scale="   20.632">  2  9  1 -1</clus>
<clus scale="   90.760">  7  8 -1 -1</clus>
<clus scale="   90.846">  5  6 -1 -1</clus>
<clus scale="   91.357">  2  7  1 -1</clus>
<clus scale="   91.444">  1  5  2 -1</clus>
</clustering>
</event>
<event>
 9    1  0.1266593E-005  0.2060236E+03  0.7546771E-02  0.1144852E+00
         -2   -1    0    0    0  501 -0.00000000000E+00  0.00000000000E+00  0.19344392501E+03  0.19344392501E+03  0.00000000000E+00 0.  1.
          2   -1    0    0  502    0  0.00000000000E+00 -0.00000000000E+00 -0.64133928535E+03  0.64133928535E+03  0.00000000000E+00 0. -1.
         23    2    1    2    0    0 -0.16462438628E+03 -0.63636756870E+02 -0.46587597579E+02  0.20369600127E+03  0.90392650719E+02 0.  0.
         23    2    1    2    0    0  0.18658183214E+03  0.22835263852E+02 -0.48905248521E+03  0.53186005767E+03  0.91479824556E+02 0.  0.
        -13    1    4    4    0    0  0.49098168588E+02  0.11230540360E+02 -0.25699520572E+03  0.26188411743E+03  0.00000000000E+00 0.  1.
         13    1    4    4    0    0  0.13748366355E+03  0.11604723493E+02 -0.23205727948E+03  0.26997594024E+03  0.00000000000E+00 0. -1.
        -13    1    3    3    0    0 -0.16266218311E+03 -0.38943269008E+02 -0.57168998130E+02  0.17675932327E+03  0.00000000000E+00 0.  1.
         13    1    3    3    0    0 -0.19622031633E+01 -0.24693487862E+02  0.10581400551E+02  0.26936678000E+02  0.00000000000E+00 0. -1.
         21    1    1    2  502  501 -0.21957445858E+02  0.40801493018E+02  0.87744722445E+02  0.99227151416E+02  0.00000000000E+00 0.  1.
<scales pt_clust_5="13000.00000" pt_clust_6="13000.00000" pt_clust_7="13000.00000" pt_clust_8="13000.00000" pt_clust_9="46.33456"></scales>
<clustering>
<clus scale="   46.335">  1  9  2 -1</clus>
<clus scale="   90.393">  7  8 -1 -1</clus>
<clus scale="   91.480">  5  6 -1 -1</clus>
<clus scale="  205.543">  1  7  2 -1</clus>
<clus scale="  206.024">  2  5  1 -1</clus>
</clustering>
</event>
<event>
 9    1  0.1266593E-005  0.1883193E+03  0.7546771E-02  0.1161124E+00
          2   -1    0    0  502    0  0.00000000000E+00  0.00000000000E+00  0.14463629468E+04  0.14463629468E+04  0.00000000000E+00 0. -1.
         -2   -1    0    0    0  501 -0.00000000000E+00 -0.00000000000E+00 -0.56550838185E+02  0.56550838185E+02  0.00000000000E+00 0.  1.
         23    2    1    2    0    0  0.12845835608E+03 -0.80785905769E+02  0.43134229082E+03  0.46433168920E+03  0.80745488580E+02 0.  0.
         23    2    1    2    0    0 -0.10139592131E+03  0.14618618658E+03  0.94575505765E+03  0.96667078074E+03  0.91368677677E+02 0.  0.
        -11    1    4    4    0    0 -0.10485259389E+03  0.78773354089E+02  0.67552805100E+03  0.68814057826E+03  0.00000000000E+00 0. -1.
         11    1    4    4    0    0  0.34566725853E+01  0.67412832496E+02  0.27022700665E+03  0.27853020248E+03  0.00000000000E+00 0.  1.
        -13    1    3    3    0    0  0.29615323037E+02  0.14643144387E+02  0.10988735867E+03  0.11474633167E+03  0.00000000000E+00 0. -1.
         13    1    3    3    0    0  0.98843033038E+02 -0.95429050156E+02  0.32145493215E+03  0.34958535753E+03  0.00000000000E+00 0.  1.
         21    1    1    2  502  501 -0.27062434766E+02 -0.65400280816E+02  0.12714760145E+02  0.71911315047E+02  0.00000000000E+00 0.  1.
<scales pt_clust_5="13000.00000" pt_clust_6="13000.00000" pt_clust_7="13000.00000" pt_clust_8="13000.00000" pt_clust_9="70.77833"></scales>
<clustering>
<clus scale="   70.778">  2  9  1 -1</clus>
<clus scale="   80.745">  7  8 -1 -1</clus>
<clus scale="   91.369">  5  6 -1 -1</clus>
<clus scale="  183.401">  2  7  1 -1</clus>
<clus scale="  188.319">  1  5  2 -1</clus>
</clustering>
</event>
<event>
 9    1  0.1266593E-005  0.2418640E+03  0.7546771E-02  0.1118734E+00
         -1   -1    0    0    0  501 -0.00000000000E+00  0.00000000000E+00  0.34344529696E+03  0.34344529696E+03  0.00000000000E+00 0.  1.
          1   -1    0    0  502    0  0.00000000000E+00 -0.00000000000E+00 -0.60117683055E+03  0.60117683055E+03  0.00000000000E+00 0. -1.
         23    2    1    2    0    0 -0.15865903771E+03 -0.13230384011E+03  0.13814512244E+03  0.26534996957E+03  0.93002877062E+02 0.  0.
         23    2    1    2    0    0  0.16524890139E+03  0.15355284581E+03 -0.50898832279E+03  0.56399338407E+03  0.90187297676E+02 0.  0.
        -11    1    4    4    0    0  0.41456476322E+02 -0.12120325817E+01 -0.57251594407E+02  0.70695498543E+02  0.00000000000E+00 0.  1.
         11    1    4    4    0    0  0.12379242507E+03  0.15476487839E+03 -0.45173672839E+03  0.49329788552E+03  0.00000000000E+00 0. -1.
        -13    1    3    3    0    0 -0.75305894115E+02 -0.85192702197E+02  0.23722629887E+02  0.11615307729E+03  0.00000000000E+00 0. -1.
         13    1    3    3    0    0 -0.83353143597E+02 -0.47111137909E+02  0.11442249255E+03  0.14919689228E+03  0.00000000000E+00 0.  1.
         21    1    1    2  502  501 -0.65898636815E+01 -0.21249005705E+02  0.11311166676E+03  0.11527877387E+03  0.00000000000E+00 0.  1.
<scales pt_clust_5="13000.00000" pt_clust_6="13000.00000" pt_clust_7="13000.00000" pt_clust_8="13000.00000" pt_clust_9="22.24739"></scales>
<clustering>
<clus scale="   22.247">  1  9  2 -1</clus>
<clus scale="   90.187">  5  6 -1 -1</clus>
<clus scale="   93.003">  7  8 -1 -1</clus>
<clus scale="  240.795">  2  5  1 -1</clus>
<clus scale="  240.795">  2  5  1 -1</clus>
</clustering>
</event>
<event>
 9    1  0.1266593E-005  0.9690558E+02  0.7546771E-02  0.1288813E+00
          2   -1    0    0  502    0  0.00000000000E+00  0.00000000000E+00  0.57371604547E+03  0.57371604547E+03  0.00000000000E+00 0. -1.
         -2   -1    0    0    0  501 -0.00000000000E+00 -0.00000000000E+00 -0.20869631935E+02  0.20869631935E+02  0.00000000000E+00 0.  1.
         23    2    1    2    0    0 -0.18918223211E+02 -0.41315314092E+01  0.19277337316E+03  0.21338047987E+03  0.89413013981E+02 0.  0.
         23    2    1    2    0    0  0.25751799984E+02  0.22988836105E+02  0.33346722214E+03  0.34788605475E+03  0.92912200821E+02 0.  0.
        -11    1    4    4    0    0 -0.22137725538E+02 -0.23471201770E+02  0.11721603225E+03  0.12157538576E+03  0.00000000000E+00 0.  1.
         11    1    4    4    0    0  0.47889525522E+02  0.46460037875E+02  0.21625118988E+03  0.22631066899E+03  0.00000000000E+00 0. -1.
        -13    1    3    3    0    0  0.27519589180E+02 -0.88103879235E+01  0.13990552693E+03  0.14285834658E+03  0.00000000000E+00 0. -1.
         13    1    3    3    0    0 -0.46437812391E+02  0.46788565143E+01  0.52867846230E+02  0.70522133284E+02  0.00000000000E+00 0.  1.
         21    1    1    2  502  501 -0.68335767733E+01 -0.18857304696E+02  0.26605818245E+02  0.33319142792E+02  0.00000000000E+00 0.  1.
<scales pt_clust_5="13000.00000" pt_clust_6="13000.00000" pt_clust_7="13000.00000" pt_clust_8="13000.00000" pt_clust_9="20.05731"></scales>
<clustering>
<clus scale="   20.057">  2  9  1 -1</clus>
<clus scale="   89.413">  7  8 -1 -1</clus>
<clus scale="   92.912">  5  6 -1 -1</clus>
<clus scale="   93.556">  2  7  1 -1</clus>
<clus scale="   96.906">  1  5  2 -1</clus>
</clustering>
</event>
<event>
 9    1  0.1266593E-005  0.1085400E+03  0.7546771E-02  0.1264985E+00
         -1   -1    0    0    0  501 -0.00000000000E+00  0.00000000000E+00  0.40493333914E+03  0.40493333914E+03  0.00000000000E+00 0.  1.
          1   -1    0    0  502    0  0.00000000000E+00 -0.00000000000E+00 -0.78213134588E+02  0.78213134588E+02  0.00000000000E+00 0. -1.
         23    2    1    2    0    0  0.25656852471E+02 -0.18404071023E+02  0.13537109828E+03  0.16784508281E+03  0.94072597842E+02 0.  0.
         23    2    1    2    0    0 -0.59639792065E+02  0.16949915342E+02 -0.11256745350E+02  0.10986019285E+03  0.89990795251E+02 0.  0.
        -11    1    4    4    0    0 -0.22568891551E+02 -0.34166880954E+02  0.11838714554E+02  0.42624943193E+02  0.00000000000E+00 0.  1.
         11    1    4    4    0    0 -0.37070900514E+02  0.51116796296E+02 -0.23095459904E+02  0.67235249659E+02  0.00000000000E+00 0. -1.
        -11    1    3    3    0    0 -0.12768647722E+02 -0.36136951535E+02  0.11432999863E+03  0.12058302625E+03  0.00000000000E+00 0.  1.
         11    1    3    3    0    0  0.38425500193E+02  0.17732880513E+02  0.21041099650E+02  0.47262056566E+02  0.00000000000E+00 0. -1.
         21    1    1    2  502  501  0.33982939594E+02  0.14541556812E+01  0.20260585162E+03  0.20544119806E+03  0.00000000000E+00 0.  1.
<scales pt_clust_5="13000.00000" pt_clust_6="13000.00000" pt_clust_7="13000.00000" pt_clust_8="13000.00000" pt_clust_9="34.01404"></scales>
<clustering>
<clus scale="   34.014">  1  9  2 -1</clus>
<clus scale="   89.991">  5  6 -1 -1</clus>
<clus scale="   94.073">  7  8 -1 -1</clus>
<clus scale="  105.022">  2  5  1 -1</clus>
<clus scale="  105.022">  2  5  1 -1</clus>
</clustering>
</event>
<event>
 9    1  0.1266593E-005  0.1042345E+03  0.7546771E-02  0.1272395E+00
         -2   -1    0    0    0  501 -0.00000000000E+00  0.00000000000E+00  0.93968741821E+02  0.93968741821E+02  0.00000000000E+00 0.  1.
          2   -1    0    0  502    0  0.00000000000E+00 -0.00000000000E+00 -0.34849921499E+03  0.34849921499E+03  0.00000000000E+00 0. -1.
         23    2    1    2    0    0  0.52729640851E+02 -0.26107638674E+02  0.31156965400E+02  0.11302301350E+03  0.91331381603E+02 0.  0.
         23    2    1    2    0    0 -0.11032366119E+02  0.32029225369E+02 -0.97799244839E+02  0.13689442721E+03  0.89598033070E+02 0.  0.
        -11    1    4    4    0    0 -0.39917681967E+02 -0.87874094319E+01 -0.66014820647E+02  0.77644036752E+02  0.00000000000E+00 0. -1.
         11    1    4    4    0    0  0.28885315848E+02  0.40816634801E+02 -0.31784424192E+02  0.59250390457E+02  0.00000000000E+00 0.  1.
        -13    1    3    3    0    0  0.68234725169E+02  0.19462394165E+01  0.40830272626E+02  0.79541666625E+02  0.00000000000E+00 0.  1.
         13    1    3    3    0    0 -0.15505084318E+02 -0.28053878091E+02 -0.96733072262E+01  0.33481346872E+02  0.00000000000E+00 0. -1.
         21    1    1    2  502  501 -0.41697274731E+02 -0.59215866946E+01 -0.18788819373E+03  0.19255051610E+03  0.00000000000E+00 0. -1.
<scales pt_clust_5="13000.00000" pt_clust_6="13000.00000" pt_clust_7="13000.00000" pt_clust_8="13000.00000" pt_clust_9="42.11565"></scales>
<clustering>
<clus scale="   42.116">  2  9  1 -1</clus>
<clus scale="   89.598">  5  6 -1 -1</clus>
<clus scale="   91.331">  7  8 -1 -1</clus>
<clus scale="  102.719">  2  5  1 -1</clus>
<clus scale="   42.116">  2  5  1 -1</clus>
</clustering>
</event>
<event>
 9    1  0.1266593E-005  0.1022377E+03  0.7546771E-02  0.1276324E+00
         -1   -1    0    0    0  501 -0.00000000000E+00  0.00000000000E+00  0.56464195158E+02  0.56464195158E+02  0.00000000000E+00 0.  1.
          1   -1    0    0  502    0  0.00000000000E+00 -0.00000000000E+00 -0.57036724057E+03  0.57036724057E+03  0.00000000000E+00 0. -1.
         23    2    1    2    0    0  0.27790744938E+02 -0.26917946213E+02 -0.41412418158E+02  0.10627444765E+03  0.89901993930E+02 0.  0.
         23    2    1    2    0    0 -0.48210400426E+02  0.16243881638E+02 -0.48411650161E+03  0.49474887038E+03  0.88428226367E+02 0.  0.
        -11    1    3    3    0    0 -0.44500574580E+01 -0.36502823332E+02  0.15707264464E+02  0.39987213950E+02  0.00000000000E+00 0.  1.
         11    1    3    3    0    0  0.32240802396E+02  0.95848771183E+01 -0.57119682622E+02  0.66287233698E+02  0.00000000000E+00 0. -1.
        -13    1    4    4    0    0 -0.13982076797E+02  0.51159025943E+02 -0.26216200589E+03  0.26747273083E+03  0.00000000000E+00 0. -1.
         13    1    4    4    0    0 -0.34228323629E+02 -0.34915144305E+02 -0.22195449572E+03  0.22727613955E+03  0.00000000000E+00 0.  1.
         21    1    1    2  502  501  0.20419655489E+02  0.10674064575E+02  0.11625874349E+02  0.25808117700E+02  0.00000000000E+00 0. -1.
<scales pt_clust_5="13000.00000" pt_clust_6="13000.00000" pt_clust_7="13000.00000" pt_clust_8="13000.00000" pt_clust_9="23.04122"></scales>
<clustering>
<clus scale="   23.041">  1  9  2 -1</clus>
<clus scale="   88.428">  7  8 -1 -1</clus>
<clus scale="   89.902">  5  6 -1 -1</clus>
<clus scale="  100.944">  2  7  1 -1</clus>
<clus scale="  100.944">  2  5  1 -1</clus>
</clustering>
</event>
<event>
 9    1  0.1266593E-005  0.2136944E+03  0.7546771E-02  0.1139197E+00
         -3   -1    0    0    0  501 -0.00000000000E+00  0.00000000000E+00  0.50605526247E+03  0.50605526247E+03  0.00000000000E+00 0.  1.
          3   -1    0    0  502    0  0.00000000000E+00 -0.00000000000E+00 -0.23552065914E+03  0.23552065914E+03  0.00000000000E+00 0. -1.
         23    2    1    2    0    0 -0.32890098861E+02  0.13268455419E+03  0.20293139735E+03  0.25838986373E+03  0.83049504043E+02 0.  0.
         23    2    1    2    0    0  0.98517657647E+02 -0.18701282388E+03 -0.13292714751E+03  0.26530774316E+03  0.89660732069E+02 0.  0.
        -11    1    3    3    0    0  0.22278259063E+02  0.75378261612E+02  0.12021677521E+03  0.14363243433E+03  0.00000000000E+00 0.  1.
         11    1    3    3    0    0 -0.55168357924E+02  0.57306292577E+02  0.82714622146E+02  0.11475742940E+03  0.00000000000E+00 0. -1.
        -11    1    4    4    0    0  0.59147970549E+02 -0.84623027129E+02 -0.15138979070E+02  0.10434906721E+03  0.00000000000E+00 0.  1.
         11    1    4    4    0    0  0.39369687098E+02 -0.10238979675E+03 -0.11778816844E+03  0.16095867595E+03  0.00000000000E+00 0. -1.
         21    1    1    2  502  501 -0.65627558786E+02  0.54328269688E+02  0.20053035349E+03  0.21787831473E+03  0.00000000000E+00 0.  1.
<scales pt_clust_5="13000.00000" pt_clust_6="13000.00000" pt_clust_7="13000.00000" pt_clust_8="13000.00000" pt_clust_9="85.19705"></scales>
<clustering>
<clus scale="   83.050">  5  6 -1 -1</clus>
<clus scale="   85.197">  1  9  2 -1</clus>
<clus scale="   89.661">  7  8 -1 -1</clus>
<clus scale="  211.006">  1  5  2 -1</clus>
<clus scale="  213.694">  2  5  1 -1</clus>
</clustering>
</event>
<event>
 9    1  0.1266593E-005  0.1042051E+03  0.7546771E-02  0.1273217E+00
          1   -1    0    0  502    0  0.00000000000E+00  0.00000000000E+00  0.28401930632E+03  0.28401930632E+03  0.00000000000E+00 0. -1.
         -1   -1    0    0    0  501 -0.00000000000E+00 -0.00000000000E+00 -0.51326546210E+02  0.51326546210E+02  0.00000000000E+00 0.  1.
         23    2    1    2    0    0  0.50331195423E+02  0.33351508543E+02  0.10796953299E+03  0.15414398480E+03  0.91964099749E+02 0.  0.
         23    2    1    2    0    0 -0.39126464885E+02 -0.13458465644E+02  0.12462172280E+03  0.15837010377E+03  0.88535334316E+02 0.  0.
        -11    1    4    4    0    0 -0.17320951800E+02  0.10748349907E+02 -0.79301510449E+01  0.21873035742E+02  0.00000000000E+00 0.  1.
         11    1    4    4    0    0 -0.21805513085E+02 -0.24206815551E+02  0.13255187385E+03  0.13649706803E+03  0.00000000000E+00 0. -1.
        -13    1    3    3    0    0  0.35123166009E+02 -0.15890059075E+02  0.92694715173E+02  0.10039143882E+03  0.00000000000E+00 0. -1.
         13    1    3    3    0    0  0.15208029414E+02  0.49241567618E+02  0.15274817815E+02  0.53752545981E+02  0.00000000000E+00 0.  1.
         21    1    1    2  502  501 -0.11204730538E+02 -0.19893042899E+02  0.10150431961E+00  0.22831763956E+02  0.00000000000E+00 0.  1.
<scales pt_clust_5="13000.00000" pt_clust_6="13000.00000" pt_clust_7="13000.00000" pt_clust_8="13000.00000" pt_clust_9="22.83154"></scales>
<clustering>
<clus scale="   22.832">  2  9  1 -1</clus>
<clus scale="   88.535">  5  6 -1 -1</clus>
<clus scale="   91.964">  7  8 -1 -1</clus>
<clus scale="  101.192">  1  5  2 -1</clus>
<clus scale="  101.192">  1  5  2 -1</clus>
</clustering>
</event>
<event>
 9    1  0.1266593E-005  0.9825589E+02  0.7546771E-02  0.1284717E+00
         -1   -1    0    0    0  501 -0.00000000000E+00  0.00000000000E+00  0.59507159323E+02  0.59507159323E+02  0.00000000000E+00 0.  1.
          1   -1    0    0  502    0  0.00000000000E+00 -0.00000000000E+00 -0.22614431779E+03  0.22614431779E+03  0.00000000000E+00 0. -1.
         23    2    1    2    0    0 -0.11872336406E+01  0.20138476670E+02 -0.55256242229E+02  0.10905890179E+03  0.91834764598E+02 0.  0.
         23    2    1    2    0    0  0.26960495640E+02 -0.41494704445E+02 -0.90246285506E+02  0.13700694516E+03  0.90431367084E+02 0.  0.
        -13    1    3    3    0    0  0.36457212267E+02  0.31068390356E+02 -0.95440402858E+01  0.48841190716E+02  0.00000000000E+00 0.  1.
         13    1    3    3    0    0 -0.37644445908E+02 -0.10929913686E+02 -0.45712201943E+02  0.60217711077E+02  0.00000000000E+00 0. -1.
        -13    1    4    4    0    0 -0.71014694126E+01 -0.59979789202E+02 -0.35915094984E+02  0.70270193029E+02  0.00000000000E+00 0.  1.
         13    1    4    4    0    0  0.34061965052E+02  0.18485084757E+02 -0.54331190522E+02  0.66736752133E+02  0.00000000000E+00 0. -1.
         21    1    1    2  502  501 -0.25773261999E+02  0.21356227776E+02 -0.21134630735E+02  0.39585630160E+02  0.00000000000E+00 0. -1.
<scales pt_clust_5="13000.00000" pt_clust_6="13000.00000" pt_clust_7="13000.00000" pt_clust_8="13000.00000" pt_clust_9="33.47162"></scales>
<clustering>
<clus scale="   33.472">  1  9  2 -1</clus>
<clus scale="   90.431">  7  8 -1 -1</clus>
<clus scale="   91.835">  5  6 -1 -1</clus>
<clus scale="   96.945">  2  7  1 -1</clus>
<clus scale="   96.945">  2  5  1 -1</clus>
</clustering>
</event>
<event>
 9    1  0.1266593E-005  0.9723640E+02  0.7546771E-02  0.1286830E+00
          1   -1    0    0  502    0  0.00000000000E+00  0.00000000000E+00  0.11603121302E+03  0.11603121302E+03  0.00000000000E+00 0. -1.
         -1   -1    0    0    0  501 -0.00000000000E+00 -0.00000000000E+00 -0.10660433754E+03  0.10660433754E+03  0.00000000000E+00 0.  1.
         23    2    1    2    0    0  0.26054440645E+02  0.17482569981E+02 -0.17789876339E+01  0.95951674311E+02  0.90659168735E+02 0.  0.
         23    2    1    2    0    0 -0.11725487422E+02 -0.33340576589E+02  0.24633324882E+02  0.10144319473E+03  0.91841384783E+02 0.  0.
        -11    1    4    4    0    0 -0.27551596632E+02  0.23074252952E+02  0.23310471750E+02  0.42835612748E+02  0.00000000000E+00 0. -1.
         11    1    4    4    0    0  0.15826109210E+02 -0.56414829542E+02  0.13228531320E+01  0.58607581978E+02  0.00000000000E+00 0.  1.
        -13    1    3    3    0    0  0.18236012491E+02  0.48644966581E+02  0.21553964469E+02  0.56244629162E+02  0.00000000000E+00 0. -1.
         13    1    3    3    0    0  0.78184281541E+01 -0.31162396600E+02 -0.23332952103E+02  0.39707045150E+02  0.00000000000E+00 0.  1.
         21    1    1    2  502  501 -0.14328953223E+02  0.15858006609E+02 -0.13427461764E+02  0.25240681518E+02  0.00000000000E+00 0. -1.
<scales pt_clust_5="13000.00000" pt_clust_6="13000.00000" pt_clust_7="13000.00000" pt_clust_8="13000.00000" pt_clust_9="21.37277"></scales>
<clustering>
<clus scale="   21.373">  2  9  1 -1</clus>
<clus scale="   90.659">  7  8 -1 -1</clus>
<clus scale="   91.841">  5  6 -1 -1</clus>
<clus scale="   96.121">  2  7  1 -1</clus>
<clus scale="   97.236">  1  5  2 -1</clus>
</clustering>
</event>
<event>
 9    1  0.1266593E-005  0.1389751E+03  0.7546771E-02  0.1214872E+00
          1   -1    0    0  502    0  0.00000000000E+00  0.00000000000E+00  0.19462932947E+03  0.19462932947E+03  0.00000000000E+00 0. -1.
         -1   -1    0    0    0  501 -0.00000000000E+00 -0.00000000000E+00 -0.26238362425E+03  0.26238362425E+03  0.00000000000E+00 0.  1.
         23    2    1    2    0    0  0.93318566694E+01 -0.94560865088E+02 -0.78315465016E+02  0.15342934472E+03  0.91533660498E+02 0.  0.
         23    2    1    2    0    0 -0.27304496077E+02  0.10392189124E+03  0.12449068944E+03  0.18786593567E+03  0.90831619167E+02 0.  0.
        -11    1    4    4    0    0  0.99401068376E+01  0.67278215492E+02  0.19752593670E+02  0.70818987288E+02  0.00000000000E+00 0. -1.
         11    1    4    4    0    0 -0.37244602915E+02  0.36643675752E+02  0.10473809577E+03  0.11704694838E+03  0.00000000000E+00 0.  1.
        -13    1    3    3    0    0  0.45877848235E+02 -0.57367844035E+02 -0.21998893622E+02  0.76679839649E+02  0.00000000000E+00 0. -1.
         13    1    3    3    0    0 -0.36545991565E+02 -0.37193021052E+02 -0.56316571394E+02  0.76749505067E+02  0.00000000000E+00 0.  1.
         21    1    1    2  502  501  0.17972639408E+02 -0.93610261569E+01 -0.11392951920E+03  0.11571767334E+03  0.00000000000E+00 0. -1.
<scales pt_clust_5="13000.00000" pt_clust_6="13000.00000" pt_clust_7="13000.00000" pt_clust_8="13000.00000" pt_clust_9="20.26437"></scales>
<clustering>
<clus scale="   20.264">  2  9  1 -1</clus>
<clus scale="   90.832">  5  6 -1 -1</clus>
<clus scale="   91.534">  7  8 -1 -1</clus>
<clus scale="  138.514">  1  5  2 -1</clus>
<clus scale="  138.514">  1  5  2 -1</clus>
</clustering>
</event>
<event>
 9    1  0.1266593E-005  0.9672044E+02  0.7546771E-02  0.1287832E+00
          1   -1    0    0  502    0  0.00000000000E+00  0.00000000000E+00  0.28287221631E+02  0.28287221631E+02  0.00000000000E+00 0. -1.
         -1   -1    0    0    0  501 -0.00000000000E+00 -0.00000000000E+00 -0.42480701466E+03  0.42480701466E+03  0.00000000000E+00 0.  1.
         23    2    1    2    0    0  0.40613710479E+02 -0.77569012252E+01 -0.22950136870E+03  0.25035400225E+03  0.91085702574E+02 0.  0.
         23    2    1    2    0    0 -0.21034967450E+02 -0.29209672485E+01 -0.13537156667E+03  0.16402502187E+03  0.90154006183E+02 0.  0.
        -11    1    4    4    0    0 -0.48880524743E+02  0.19453980489E+02 -0.55196737010E+02  0.76252493943E+02  0.00000000000E+00 0.  1.
         11    1    4    4    0    0  0.27845557293E+02 -0.22374947738E+02 -0.80174829661E+02  0.87772527925E+02  0.00000000000E+00 0. -1.
        -13    1    3    3    0    0  0.24326995688E+02 -0.37971213416E+02 -0.20022363588E+03  0.20523917787E+03  0.00000000000E+00 0.  1.
         13    1    3    3    0    0  0.16286714790E+02  0.30214312191E+02 -0.29277732810E+02  0.45114824375E+02  0.00000000000E+00 0. -1.
         21    1    1    2  502  501 -0.19578743028E+02  0.10677868474E+02 -0.31646857663E+02  0.38715212174E+02  0.00000000000E+00 0. -1.
<scales pt_clust_5="13000.00000" pt_clust_6="13000.00000" pt_clust_7="13000.00000" pt_clust_8="13000.00000" pt_clust_9="22.30121"></scales>
<clustering>
<clus scale="   22.301">  1  9  2 -1</clus>
<clus scale="   90.154">  5  6 -1 -1</clus>
<clus scale="   91.086">  7  8 -1 -1</clus>
<clus scale="   95.844">  1  5  2 -1</clus>
<clus scale="   22.301">  1  5  2 -1</clus>
</clustering>
</event>
<event>
 9    1  0.1266593E-005  0.1044731E+03  0.7546771E-02  0.1271427E+00
          1   -1    0    0  502    0  0.00000000000E+00  0.00000000000E+00  0.14495296200E+03  0.14495296200E+03  0.00000000000E+00 0. -1.
         -1   -1    0    0    0  501 -0.00000000000E+00 -0.00000000000E+00 -0.31860244184E+03  0.31860244184E+03  0.00000000000E+00 0.  1.
         23    2    1    2    0    0  0.14278772779E+02 -0.82374143983E-01 -0.17829469286E+03  0.20059258774E+03  0.90799221460E+02 0.  0.
         23    2    1    2    0    0  0.17830779215E+02  0.54504874817E+02  0.10095636707E+03  0.14777310169E+03  0.91411068616E+02 0.  0.
        -11    1    3    3    0    0 -0.23087295748E+02 -0.26940291415E+02 -0.12616066416E+03  0.13105462871E+03  0.00000000000E+00 0. -1.
         11    1    3    3    0    0  0.37366068527E+02  0.26857917271E+02 -0.52134028702E+02  0.69537959029E+02  0.00000000000E+00 0.  1.
        -13    1    4    4    0    0 -0.29761236872E+01 -0.24067435354E+02  0.37488136369E+02  0.44648170457E+02  0.00000000000E+00 0.  1.
         13    1    4    4    0    0  0.20806902902E+02  0.78572310171E+02  0.63468230702E+02  0.10312493124E+03  0.00000000000E+00 0. -1.
         21    1    1    2  502  501 -0.32109551994E+02 -0.54422500673E+02 -0.96311154056E+02  0.11518971440E+03  0.00000000000E+00 0.  1.
<scales pt_clust_5="13000.00000" pt_clust_6="13000.00000" pt_clust_7="13000.00000" pt_clust_8="13000.00000" pt_clust_9="63.18886"></scales>
<clustering>
<clus scale="   63.189">  2  9  1 -1</clus>
<clus scale="   90.799">  5  6 -1 -1</clus>
<clus scale="   91.411">  7  8 -1 -1</clus>
<clus scale="  103.938">  2  5  1 -1</clus>
<clus scale="  104.473">  1  5  2 -1</clus>
</clustering>
</event>
<event>
 9    1  0.1266593E-005  0.1223739E+03  0.7546771E-02  0.1246167E+00
         -1   -1    0    0    0  501 -0.00000000000E+00  0.00000000000E+00  0.14161493233E+03  0.14161493233E+03  0.00000000000E+00 0.  1.
          1   -1    0    0  502    0  0.00000000000E+00 -0.00000000000E+00 -0.31239857524E+03  0.31239857524E+03  0.00000000000E+00 0. -1.
         23    2    1    2    0    0 -0.50373436728E+02  0.34158838861E+02  0.72957040605E+02  0.14516906674E+03  0.10975891201E+03 0.  0.
         23    2    1    2    0    0  0.32246827805E+02 -0.43012049331E+02 -0.26133149010E+03  0.28207898243E+03  0.91566971765E+02 0.  0.
        -11    1    3    3    0    0 -0.55409143470E+02  0.60969257135E+02  0.82187003568E+02  0.11637064514E+03  0.00000000000E+00 0.  1.
         11    1    3    3    0    0  0.50357067412E+01 -0.26810418274E+02 -0.92299629633E+01  0.28798421601E+02  0.00000000000E+00 0. -1.
        -13    1    4    4    0    0 -0.15996255710E+01 -0.54689386110E+02 -0.77950170326E+02  0.95235060818E+02  0.00000000000E+00 0.  1.
         13    1    4    4    0    0  0.33846453376E+02  0.11677336780E+02 -0.18338131978E+03  0.18684392161E+03  0.00000000000E+00 0. -1.
         21    1    1    2  502  501  0.18126608923E+02  0.88532104695E+01  0.17590806589E+02  0.26765458395E+02  0.00000000000E+00 0. -1.
<scales pt_clust_5="13000.00000" pt_clust_6="13000.00000" pt_clust_7="13000.00000" pt_clust_8="13000.00000" pt_clust_9="20.17308"></scales>
<clustering>
<clus scale="   20.173">  1  9  2 -1</clus>
<clus scale="   91.567">  7  8 -1 -1</clus>
<clus scale="  106.362">  2  7  1 -1</clus>
<clus scale="  109.759">  5  6 -1 -1</clus>
<clus scale="  106.362">  2  5  1 -1</clus>
</clustering>
</event>
<event>
 9    1  0.1266593E-005  0.1288570E+03  0.7546771E-02  0.1229509E+00
          1   -1    0    0  502    0  0.00000000000E+00  0.00000000000E+00  0.26886982767E+03  0.26886982767E+03  0.00000000000E+00 0. -1.
         -1   -1    0    0    0  501 -0.00000000000E+00 -0.00000000000E+00 -0.23988132800E+03  0.23988132800E+03  0.00000000000E+00 0.  1.
         23    2    1    2    0    0 -0.23934194637E+02  0.12713741823E+02 -0.99592211961E+02  0.13860408349E+03  0.92509450179E+02 0.  0.
         23    2    1    2    0    0  0.10049508797E+03  0.67422237225E+01  0.21419033979E+03  0.25366053470E+03  0.91221954148E+02 0.  0.
        -11    1    4    4    0    0  0.87592876128E+02 -0.20755389581E+02  0.95887903385E+02  0.13152105596E+03  0.00000000000E+00 0.  1.
         11    1    4    4    0    0  0.12902211839E+02  0.27497613303E+02  0.11830243640E+03  0.12213947874E+03  0.00000000000E+00 0. -1.
        -13    1    3    3    0    0 -0.49506687347E+02 -0.35169846187E+01 -0.96042343195E+02  0.10810833899E+03  0.00000000000E+00 0.  1.
         13    1    3    3    0    0  0.25572492710E+02  0.16230726442E+02 -0.35498687658E+01  0.30495744498E+02  0.00000000000E+00 0. -1.
         21    1    1    2  502  501 -0.76560893330E+02 -0.19455965545E+02 -0.85609628158E+02  0.11648653749E+03  0.00000000000E+00 0.  1.
<scales pt_clust_5="13000.00000" pt_clust_6="13000.00000" pt_clust_7="13000.00000" pt_clust_8="13000.00000" pt_clust_9="78.99434"></scales>
<clustering>
<clus scale="   78.994">  2  9  1 -1</clus>
<clus scale="   91.222">  5  6 -1 -1</clus>
<clus scale="   92.509">  7  8 -1 -1</clus>
<clus scale="  127.936">  1  5  2 -1</clus>
<clus scale="  127.936">  1  5  2 -1</clus>
</clustering>
</event>
<event>
 9    1  0.1266593E-005  0.9724169E+02  0.7546771E-02  0.1286521E+00
          2   -1    0    0  502    0  0.00000000000E+00  0.00000000000E+00  0.18846474201E+03  0.18846474201E+03  0.00000000000E+00 0. -1.
         -2   -1    0    0    0  501 -0.00000000000E+00 -0.00000000000E+00 -0.76857524783E+02  0.76857524783E+02  0.00000000000E+00 0.  1.
         23    2    1    2    0    0  0.43590177439E+02 -0.21484947646E+02  0.60050126581E+02  0.11859525596E+03  0.89983945734E+02 0.  0.
         23    2    1    2    0    0 -0.10245155846E+02  0.26086475071E+02  0.59740307260E+02  0.11208556811E+03  0.90602444049E+02 0.  0.
        -11    1    4    4    0    0 -0.40882439888E+02  0.42222949574E+02  0.27953932767E+02  0.65081285475E+02  0.00000000000E+00 0.  1.
         11    1    4    4    0    0  0.30637284042E+02 -0.16136474504E+02  0.31786374493E+02  0.47004282637E+02  0.00000000000E+00 0. -1.
        -13    1    3    3    0    0  0.39827874688E+02  0.65584969083E+00 -0.13212762234E+02  0.41967449611E+02  0.00000000000E+00 0.  1.
         13    1    3    3    0    0  0.37623027513E+01 -0.22140797337E+02  0.73262888816E+02  0.76627806352E+02  0.00000000000E+00 0. -1.
         21    1    1    2  502  501 -0.33345021593E+02 -0.46015274246E+01 -0.81832166117E+01  0.34641442721E+02  0.00000000000E+00 0.  1.
<scales pt_clust_5="13000.00000" pt_clust_6="13000.00000" pt_clust_7="13000.00000" pt_clust_8="13000.00000" pt_clust_9="33.66102"></scales>
<clustering>
<clus scale="   33.661">  2  9  1 -1</clus>
<clus scale="   89.984">  7  8 -1 -1</clus>
<clus scale="   90.602">  5  6 -1 -1</clus>
<clus scale="   96.666">  2  7  1 -1</clus>
<clus scale="   97.242">  1  5  2 -1</clus>
</clustering>
</event>
<event>
 9    1  0.1266593E-005  0.1222121E+03  0.7546771E-02  0.1240420E+00
         -2   -1    0    0    0  501 -0.00000000000E+00  0.00000000000E+00  0.83032777511E+02  0.83032777511E+02  0.00000000000E+00 0.  1.
          2   -1    0    0  502    0  0.00000000000E+00 -0.00000000000E+00 -0.32708719974E+03  0.32708719974E+03  0.00000000000E+00 0. -1.
         23    2    1    2    0    0 -0.47804216794E+01  0.87314618210E+02 -0.14088717724E+03  0.18875914663E+03  0.90189377096E+02 0.  0.
         23    2    1    2    0    0  0.25859055442E+02 -0.68291197067E+02 -0.13442285702E+03  0.17913391225E+03  0.93204483171E+02 0.  0.
        -11    1    4    4    0    0  0.44264358267E+02 -0.57874992447E+01 -0.89426729157E+02  0.99949829655E+02  0.00000000000E+00 0. -1.
         11    1    4    4    0    0 -0.18405302825E+02 -0.62503697822E+02 -0.44996127859E+02  0.79184082592E+02  0.00000000000E+00 0.  1.
        -13    1    3    3    0    0 -0.31359489585E+02 -0.28900099437E+01 -0.38500098510E+02  0.49739595192E+02  0.00000000000E+00 0.  1.
         13    1    3    3    0    0  0.26579067906E+02  0.90204628154E+02 -0.10238707873E+03  0.13901955144E+03  0.00000000000E+00 0. -1.
         21    1    1    2  502  501 -0.21078633762E+02 -0.19023421143E+02  0.31255612020E+02  0.42226918382E+02  0.00000000000E+00 0.  1.
<scales pt_clust_5="13000.00000" pt_clust_6="13000.00000" pt_clust_7="13000.00000" pt_clust_8="13000.00000" pt_clust_9="28.39365"></scales>
<clustering>
<clus scale="   28.394">  1  9  2 -1</clus>
<clus scale="   90.189">  7  8 -1 -1</clus>
<clus scale="   93.204">  5  6 -1 -1</clus>
<clus scale="  119.928">  1  7  2 -1</clus>
<clus scale="  122.212">  2  5  1 -1</clus>
</clustering>
</event>
<event>
 9    1  0.1266593E-005  0.2086172E+03  0.7546771E-02  0.1142829E+00
          2   -1    0    0  502    0  0.00000000000E+00  0.00000000000E+00  0.12136435319E+04  0.12136435319E+04  0.00000000000E+00 0. -1.
         -2   -1    0    0    0  501 -0.00000000000E+00 -0.00000000000E+00 -0.10049248417E+03  0.10049248417E+03  0.00000000000E+00 0.  1.
         23    2    1    2    0    0 -0.97305966366E+02  0.16959357523E+03  0.15732628790E+03  0.26749611529E+03  0.92586062541E+02 0.  0.
         23    2    1    2    0    0  0.10955828139E+03 -0.14966036203E+03  0.98660303536E+03  0.10079778464E+04  0.90733391942E+02 0.  0.
        -11    1    3    3    0    0 -0.60469964370E+02  0.14778452108E+03  0.15806640275E+03  0.22468170584E+03  0.00000000000E+00 0.  1.
         11    1    3    3    0    0 -0.36836001996E+02  0.21809054156E+02 -0.74011484616E+00  0.42814409446E+02  0.00000000000E+00 0. -1.
        -13    1    4    4    0    0  0.25659193313E+02 -0.98921225599E+01  0.47964183098E+02  0.55288435956E+02  0.00000000000E+00 0.  1.
         13    1    4    4    0    0  0.83899088075E+02 -0.13976823947E+03  0.93863885226E+03  0.95268941042E+03  0.00000000000E+00 0. -1.
         21    1    1    2  502  501 -0.12252315022E+02 -0.19933213207E+02 -0.30778275494E+02  0.38662054453E+02  0.00000000000E+00 0.  1.
<scales pt_clust_5="13000.00000" pt_clust_6="13000.00000" pt_clust_7="13000.00000" pt_clust_8="13000.00000" pt_clust_9="23.39770"></scales>
<clustering>
<clus scale="   23.398">  2  9  1 -1</clus>
<clus scale="   90.733">  7  8 -1 -1</clus>
<clus scale="   92.586">  5  6 -1 -1</clus>
<clus scale="  207.802">  1  7  2 -1</clus>
<clus scale="  207.802">  1  5  2 -1</clus>
</clustering>
</event>
<event>
 9    1  0.1266593E-005  0.1852127E+03  0.7546771E-02  0.1163483E+00
         -1   -1    0    0    0  501 -0.00000000000E+00  0.00000000000E+00  0.87130701971E+02  0.87130701971E+02  0.00000000000E+00 0.  1.
          1   -1    0    0  502    0  0.00000000000E+00 -0.00000000000E+00 -0.54607123766E+03  0.54607123766E+03  0.00000000000E+00 0. -1.
         23    2    1    2    0    0 -0.11242470882E+03 -0.91746412085E+02 -0.96454048675E+02  0.19479670300E+03  0.87095652656E+02 0.  0.
         23    2    1    2    0    0  0.13712081472E+03  0.96826189639E+02 -0.36578435975E+03  0.41297734345E+03  0.92599457530E+02 0.  0.
        -11    1    3    3    0    0 -0.54531880214E+02 -0.17147733335E+02  0.35269211526E+01  0.57273116652E+02  0.00000000000E+00 0. -1.
         11    1    3    3    0    0 -0.57892828603E+02 -0.74598678750E+02 -0.99980969827E+02  0.13752358635E+03  0.00000000000E+00 0.  1.
        -13    1    4    4    0    0  0.61421419870E+02  0.22785770054E+02 -0.58034531338E+02  0.87520220312E+02  0.00000000000E+00 0.  1.
         13    1    4    4    0    0  0.75699394853E+02  0.74040419585E+02 -0.30774982841E+03  0.32545712314E+03  0.00000000000E+00 0. -1.
         21    1    1    2  502  501 -0.24696105906E+02 -0.50797775534E+01  0.32978727361E+01  0.25427893179E+02  0.00000000000E+00 0.  1.
<scales pt_clust_5="13000.00000" pt_clust_6="13000.00000" pt_clust_7="13000.00000" pt_clust_8="13000.00000" pt_clust_9="25.21313"></scales>
<clustering>
<clus scale="   25.213">  1  9  2 -1</clus>
<clus scale="   87.096">  5  6 -1 -1</clus>
<clus scale="   92.599">  7  8 -1 -1</clus>
<clus scale="  182.523">  1  5  2 -1</clus>
<clus scale="  185.213">  2  5  1 -1</clus>
</clustering>
</event>
<event>
 9    1  0.1266593E-005  0.1021986E+03  0.7546771E-02  0.1275808E+00
          2   -1    0    0  502    0  0.00000000000E+00  0.00000000000E+00  0.18370958609E+03  0.18370958609E+03  0.00000000000E+00 0. -1.
         -2   -1    0    0    0  501 -0.00000000000E+00 -0.00000000000E+00 -0.11435364120E+03  0.11435364120E+03  0.00000000000E+00 0.  1.
         23    2    1    2    0    0 -0.21161822048E+01 -0.68651301955E+02  0.76110919338E+01  0.11418429039E+03  0.90899086706E+02 0.  0.
         23    2    1    2    0    0 -0.17186915998E+02  0.35758970411E+02  0.92014585640E+02  0.13518836501E+03  0.90747540005E+02 0.  0.
        -11    1    3    3    0    0  0.32328805511E+02 -0.15335668081E+02  0.30187110857E+02  0.46814485398E+02  0.00000000000E+00 0. -1.
         11    1    3    3    0    0 -0.34444987715E+02 -0.53315633874E+02 -0.22576018923E+02  0.67369804991E+02  0.00000000000E+00 0.  1.
        -11    1    4    4    0    0  0.37338563320E+02  0.17475868215E+02  0.33225899755E+02  0.52948415417E+02  0.00000000000E+00 0. -1.
         11    1    4    4    0    0 -0.54525479318E+02  0.18283102196E+02  0.58788685884E+02  0.82239949591E+02  0.00000000000E+00 0.  1.
         21    1    1    2  502  501  0.19303098203E+02  0.32892331544E+02 -0.30269732678E+02  0.48690571891E+02  0.00000000000E+00 0. -1.
<scales pt_clust_5="13000.00000" pt_clust_6="13000.00000" pt_clust_7="13000.00000" pt_clust_8="13000.00000" pt_clust_9="38.13811"></scales>
<clustering>
<clus scale="   38.138">  2  9  1 -1</clus>
<clus scale="   90.748">  7  8 -1 -1</clus>
<clus scale="   90.899">  5  6 -1 -1</clus>
<clus scale="  102.064">  1  7  2 -1</clus>
<clus scale="  102.064">  1  5  2 -1</clus>
</clustering>
</event>
<event>
 9    1  0.1266593E-005  0.1003714E+03  0.7546771E-02  0.1279525E+00
          1   -1    0    0  502    0  0.00000000000E+00  0.00000000000E+00  0.39112780258E+03  0.39112780258E+03  0.00000000000E+00 0. -1.
         -1   -1    0    0    0  501 -0.00000000000E+00 -0.00000000000E+00 -0.51104290904E+02  0.51104290904E+02  0.00000000000E+00 0.  1.
         23    2    1    2    0    0  0.14206394705E+02  0.76364410109E+02  0.18233528549E+03  0.21775284007E+03  0.90204203003E+02 0.  0.
         23    2    1    2    0    0 -0.71572132470E+01 -0.13164597789E+02  0.11884736186E+03  0.14996402022E+03  0.90221835517E+02 0.  0.
        -13    1    4    4    0    0  0.18471204135E+02 -0.36632427731E+02  0.10468868515E+03  0.11244038839E+03  0.00000000000E+00 0.  1.
         13    1    4    4    0    0 -0.25628417382E+02  0.23467829942E+02  0.14158676713E+02  0.37523631833E+02  0.00000000000E+00 0. -1.
        -13    1    3    3    0    0  0.34941639150E+02  0.86329839947E+02  0.12426742918E+03  0.15529376474E+03  0.00000000000E+00 0. -1.
         13    1    3    3    0    0 -0.20735244445E+02 -0.99654298380E+01  0.58067856312E+02  0.62459075327E+02  0.00000000000E+00 0.  1.
         21    1    1    2  502  501 -0.70491814576E+01 -0.63199812320E+02  0.38840864321E+02  0.74515233192E+02  0.00000000000E+00 0.  1.
<scales pt_clust_5="13000.00000" pt_clust_6="13000.00000" pt_clust_7="13000.00000" pt_clust_8="13000.00000" pt_clust_9="63.59172"></scales>
<clustering>
<clus scale="   63.592">  2  9  1 -1</clus>
<clus scale="   90.204">  7  8 -1 -1</clus>
<clus scale="   90.222">  5  6 -1 -1</clus>
<clus scale="  100.356">  2  7  1 -1</clus>
<clus scale="  100.371">  1  5  2 -1</clus>
</clustering>
</event>
<event>
 9    1  0.1266593E-005  0.1085339E+03  0.7546771E-02  0.1269204E+00
         -1   -1    0    0    0  501 -0.00000000000E+00  0.00000000000E+00  0.22031189419E+03  0.22031189419E+03  0.00000000000E+00 0.  1.
          1   -1    0    0  502    0  0.00000000000E+00 -0.00000000000E+00 -0.51273262950E+03  0.51273262950E+03  0.00000000000E+00 0. -1.
         23    2    1    2    0    0 -0.63035931944E+01 -0.14636400108E+02 -0.13765109498E+03  0.16617983662E+03  0.91727611184E+02 0.  0.
         23    2    1    2    0    0 -0.34567863461E+02  0.30791716937E+02 -0.34931692807E+03  0.36741515111E+03  0.10406012693E+03 0.  0.
        -11    1    4    4    0    0 -0.17533909032E+01  0.52863631781E+02 -0.29784531412E+03  0.30250532076E+03  0.00000000000E+00 0. -1.
         11    1    4    4    0    0 -0.32814472557E+02 -0.22071914844E+02 -0.51471613949E+02  0.64909830354E+02  0.00000000000E+00 0.  1.
        -13    1    3    3    0    0 -0.21610982642E+02  0.30779092908E+02 -0.94429568860E+02  0.10164315327E+03  0.00000000000E+00 0. -1.
         13    1    3    3    0    0  0.15307389447E+02 -0.45415493016E+02 -0.43221526118E+02  0.64536683348E+02  0.00000000000E+00 0.  1.
         21    1    1    2  502  501  0.40871456655E+02 -0.16155316829E+02  0.19454728773E+03  0.19944953596E+03  0.00000000000E+00 0.  1.
<scales pt_clust_5="13000.00000" pt_clust_6="13000.00000" pt_clust_7="13000.00000" pt_clust_8="13000.00000" pt_clust_9="43.94850"></scales>
<clustering>
<clus scale="   43.948">  1  9  2 -1</clus>
<clus scale="   91.728">  7  8 -1 -1</clus>
<clus scale="   96.773">  1  7  2 -1</clus>
<clus scale="  104.060">  5  6 -1 -1</clus>
<clus scale="  108.534">  2  5  1 -1</clus>
</clustering>
</event>
<event>
 9    1  0.1266593E-005  0.1094611E+03  0.7546771E-02  0.1268759E+00
          1   -1    0    0  502    0  0.00000000000E+00  0.00000000000E+00  0.59527613450E+03  0.59527613450E+03  0.00000000000E+00 0. -1.
         -1   -1    0    0    0  501 -0.00000000000E+00 -0.00000000000E+00 -0.86013736769E+02  0.86013736769E+02  0.00000000000E+00 0.  1.
         23    2    1    2    0    0 -0.51959126767E+02  0.43082269297E+02  0.12604139137E+03  0.16864535896E+03  0.89437083912E+02 0.  0.
         23    2    1    2    0    0  0.19241667432E+02  0.38132850204E+02  0.40662467418E+03  0.42201306385E+03  0.10453250394E+03 0.  0.
        -11    1    4    4    0    0  0.64930760812E+01 -0.36435585493E+02  0.14740360434E+03  0.15197873042E+03  0.00000000000E+00 0.  1.
         11    1    4    4    0    0  0.12748591351E+02  0.74568435697E+02  0.25922106984E+03  0.27003433343E+03  0.00000000000E+00 0. -1.
        -13    1    3    3    0    0 -0.38251406734E+02  0.69931012340E+02  0.10524282216E+03  0.13202109006E+03  0.00000000000E+00 0. -1.
         13    1    3    3    0    0 -0.13707720032E+02 -0.26848743044E+02  0.20798569211E+02  0.36624268904E+02  0.00000000000E+00 0.  1.
         21    1    1    2  502  501  0.32717459335E+02 -0.81215119501E+02 -0.23403667823E+02  0.90631448452E+02  0.00000000000E+00 0.  1.
<scales pt_clust_5="13000.00000" pt_clust_6="13000.00000" pt_clust_7="13000.00000" pt_clust_8="13000.00000" pt_clust_9="87.55757"></scales>
<clustering>
<clus scale="   87.558">  2  9  1 -1</clus>
<clus scale="   89.437">  7  8 -1 -1</clus>
<clus scale="   95.151">  2  7  1 -1</clus>
<clus scale="  104.533">  5  6 -1 -1</clus>
<clus scale="  109.461">  1  5  2 -1</clus>
</clustering>
</event>
<event>
 9    1  0.1266593E-005  0.9596735E+02  0.7546771E-02  0.1290488E+00
         -4   -1    0    0    0  501 -0.00000000000E+00  0.00000000000E+00  0.37457910057E+02  0.37457910057E+02  0.00000000000E+00 0.  1.
          4   -1    0    0  502    0  0.00000000000E+00 -0.00000000000E+00 -0.35994095384E+03  0.35994095384E+03  0.00000000000E+00 0. -1.
         23    2    1    2    0    0  0.13531611611E+02  0.16890549628E+02 -0.87173981179E+02  0.12781019585E+03  0.90927157606E+02 0.  0.
         23    2    1    2    0    0  0.64491680998E+01 -0.23178314502E+02 -0.22759182203E+03  0.24726551085E+03  0.93612869662E+02 0.  0.
        -11    1    4    4    0    0  0.42122740628E+02 -0.38988052427E+02 -0.14389709897E+03  0.15492181448E+03  0.00000000000E+00 0.  1.
         11    1    4    4    0    0 -0.35673572528E+02  0.15809737925E+02 -0.83694723067E+02  0.92343696371E+02  0.00000000000E+00 0. -1.
        -13    1    3    3    0    0 -0.92319209263E+01 -0.23133441561E+02  0.44175792955E+01  0.25296234686E+02  0.00000000000E+00 0.  1.
         13    1    3    3    0    0  0.22763532538E+02  0.40023991189E+02 -0.91591560474E+02  0.10251396117E+03  0.00000000000E+00 0. -1.
         21    1    1    2  502  501 -0.19980779711E+02  0.62877648738E+01 -0.77172405675E+01  0.22323157191E+02  0.00000000000E+00 0. -1.
<scales pt_clust_5="13000.00000" pt_clust_6="13000.00000" pt_clust_7="13000.00000" pt_clust_8="13000.00000" pt_clust_9="20.94678"></scales>
<clustering>
<clus scale="   20.947">  1  9  2 -1</clus>
<clus scale="   90.927">  7  8 -1 -1</clus>
<clus scale="   93.349">  1  7  2 -1</clus>
<clus scale="   93.613">  5  6 -1 -1</clus>
<clus scale="   95.967">  2  5  1 -1</clus>
</clustering>
</event>
<event>
 9    1  0.1266593E-005  0.1004161E+03  0.7546771E-02  0.1280708E+00
         -1   -1    0    0    0  501 -0.00000000000E+00  0.00000000000E+00  0.42707360754E+02  0.42707360754E+02  0.00000000000E+00 0.  1.
          1   -1    0    0  502    0  0.00000000000E+00 -0.00000000000E+00 -0.46070865188E+03  0.46070865188E+03  0.00000000000E+00 0. -1.
         23    2    1    2    0    0  0.17073307716E+02  0.41883114485E+02 -0.90355168296E+02  0.13706328371E+03  0.92609903295E+02 0.  0.
         23    2    1    2    0    0 -0.51914026037E+02  0.56332645061E+01 -0.22754848095E+03  0.25020101850E+03  0.89974655900E+02 0.  0.
        -13    1    4    4    0    0 -0.38632609649E+02 -0.12519740483E+02 -0.22373060244E+03  0.22738646595E+03  0.00000000000E+00 0. -1.
         13    1    4    4    0    0 -0.13281416388E+02  0.18153004989E+02 -0.38178785109E+01  0.22814552542E+02  0.00000000000E+00 0.  1.
        -13    1    3    3    0    0 -0.10686106919E+02  0.60803553714E+02 -0.31529220339E+02  0.69320680612E+02  0.00000000000E+00 0.  1.
         13    1    3    3    0    0  0.27759414635E+02 -0.18920439229E+02 -0.58825947957E+02  0.67742603098E+02  0.00000000000E+00 0. -1.
         21    1    1    2  502  501  0.34840718322E+02 -0.47516378991E+02 -0.10009764188E+03  0.11615171043E+03  0.00000000000E+00 0. -1.
<scales pt_clust_5="13000.00000" pt_clust_6="13000.00000" pt_clust_7="13000.00000" pt_clust_8="13000.00000" pt_clust_9="58.92098"></scales>
<clustering>
<clus scale="   58.921">  2  9  1 -1</clus>
<clus scale="   89.975">  5  6 -1 -1</clus>
<clus scale="   92.610">  7  8 -1 -1</clus>
<clus scale="   97.991">  2  5  1 -1</clus>
<clus scale="   58.921">  2  5  1 -1</clus>
</clustering>
</event>
<event>
 9    1  0.1266593E-005  0.1143431E+03  0.7546771E-02  0.1253684E+00
         -4   -1    0    0    0  501 -0.00000000000E+00  0.00000000000E+00  0.17592043339E+03  0.17592043339E+03  0.00000000000E+00 0.  1.
          4   -1    0    0  502    0  0.00000000000E+00 -0.00000000000E+00 -0.68037843393E+03  0.68037843393E+03  0.00000000000E+00 0. -1.
         23    2    1    2    0    0 -0.68554825521E+02  0.23261121151E+02 -0.81257651183E+02  0.14284303667E+03  0.92522880358E+02 0.  0.
         23    2    1    2    0    0  0.53409052194E+02 -0.40112384606E+02 -0.56188519597E+03  0.57293235855E+03  0.89860913464E+02 0.  0.
        -13    1    4    4    0    0 -0.16751360863E+02 -0.37917950992E+02 -0.22989976147E+03  0.23360710482E+03  0.00000000000E+00 0.  1.
         13    1    4    4    0    0  0.70160413057E+02 -0.21944336147E+01 -0.33198543450E+03  0.33932525373E+03  0.00000000000E+00 0. -1.
        -13    1    3    3    0    0 -0.48306939755E+02  0.16439596634E+02  0.74767852538E+01  0.51572503175E+02  0.00000000000E+00 0.  1.
         13    1    3    3    0    0 -0.20247885766E+02  0.68215245168E+01 -0.88734436436E+02  0.91270533495E+02  0.00000000000E+00 0. -1.
         21    1    1    2  502  501  0.15145773327E+02  0.16851263456E+02  0.13868484661E+03  0.14052347209E+03  0.00000000000E+00 0.  1.
<scales pt_clust_5="13000.00000" pt_clust_6="13000.00000" pt_clust_7="13000.00000" pt_clust_8="13000.00000" pt_clust_9="22.65744"></scales>
<clustering>
<clus scale="   22.657">  1  9  2 -1</clus>
<clus scale="   89.861">  5  6 -1 -1</clus>
<clus scale="   92.523">  7  8 -1 -1</clus>
<clus scale="  112.200">  2  5  1 -1</clus>
<clus scale="  112.200">  2  5  1 -1</clus>
</clustering>
</event>
<event>
 9    1  0.1266593E-005  0.9277163E+02  0.7546771E-02  0.1296516E+00
          2   -1    0    0  502    0  0.00000000000E+00  0.00000000000E+00  0.33058402458E+03  0.33058402458E+03  0.00000000000E+00 0. -1.
         -2   -1    0    0    0  501 -0.00000000000E+00 -0.00000000000E+00 -0.37921269310E+02  0.37921269310E+02  0.00000000000E+00 0.  1.
         23    2    1    2    0    0  0.87499219540E+01  0.16178803969E+01  0.65940314557E+02  0.11148714346E+03  0.89454342550E+02 0.  0.
         23    2    1    2    0    0 -0.28804693247E+02 -0.48367593228E+01  0.21143776216E+03  0.23159814981E+03  0.89881428194E+02 0.  0.
        -11    1    4    4    0    0  0.14769782621E+02 -0.23238894247E+02  0.19054498346E+02  0.33485319047E+02  0.00000000000E+00 0.  1.
         11    1    4    4    0    0 -0.43574475867E+02  0.18402134924E+02  0.19238326382E+03  0.19811283077E+03  0.00000000000E+00 0. -1.
        -13    1    3    3    0    0  0.15518371641E+02  0.42509319968E+02  0.49031642439E+02  0.66723040270E+02  0.00000000000E+00 0.  1.
         13    1    3    3    0    0 -0.67684496873E+01 -0.40891439571E+02  0.16908672118E+02  0.44764103187E+02  0.00000000000E+00 0. -1.
         21    1    1    2  502  501  0.20054771293E+02  0.32188789259E+01  0.15284678546E+02  0.25420000618E+02  0.00000000000E+00 0.  1.
<scales pt_clust_5="13000.00000" pt_clust_6="13000.00000" pt_clust_7="13000.00000" pt_clust_8="13000.00000" pt_clust_9="20.31145"></scales>
<clustering>
<clus scale="   20.311">  2  9  1 -1</clus>
<clus scale="   89.454">  7  8 -1 -1</clus>
<clus scale="   89.881">  5  6 -1 -1</clus>
<clus scale="   92.358">  2  7  1 -1</clus>
<clus scale="   92.772">  1  5  2 -1</clus>
</clustering>
</event>
<event>
 9    1  0.1266593E-005  0.1050969E+03  0.7546771E-02  0.1271034E+00
         -2   -1    0    0    0  501 -0.00000000000E+00  0.00000000000E+00  0.19728069467E+03  0.19728069467E+03  0.00000000000E+00 0.  1.
          2   -1    0    0  502    0  0.00000000000E+00 -0.00000000000E+00 -0.16816340247E+03  0.16816340247E+03  0.00000000000E+00 0. -1.
         23    2    1    2    0    0 -0.10350580237E+02 -0.51642720301E+02  0.10564421950E+03  0.14854043753E+03  0.90163492595E+02 0.  0.
         23    2    1    2    0    0 -0.29001475570E+02  0.42271325761E+02 -0.11827557911E+03  0.15877142019E+03  0.92689269532E+02 0.  0.
        -11    1    3    3    0    0 -0.17278885236E+02  0.22075112534E+02  0.44117707484E+02  0.52270857866E+02  0.00000000000E+00 0.  1.
         11    1    3    3    0    0  0.69283049987E+01 -0.73717832836E+02  0.61526512016E+02  0.96269579666E+02  0.00000000000E+00 0. -1.
        -11    1    4    4    0    0  0.13166698846E+02  0.50651289467E+02 -0.98302712360E+02  0.11136578622E+03  0.00000000000E+00 0.  1.
         11    1    4    4    0    0 -0.42168174416E+02 -0.83799637060E+01 -0.19972866754E+02  0.47405633966E+02  0.00000000000E+00 0. -1.
         21    1    1    2  502  501  0.39352055807E+02  0.93713945402E+01  0.41748651818E+02  0.58132239424E+02  0.00000000000E+00 0. -1.
<scales pt_clust_5="13000.00000" pt_clust_6="13000.00000" pt_clust_7="13000.00000" pt_clust_8="13000.00000" pt_clust_9="40.45253"></scales>
<clustering>
<clus scale="   40.453">  1  9  2 -1</clus>
<clus scale="   90.163">  5  6 -1 -1</clus>
<clus scale="   92.689">  7  8 -1 -1</clus>
<clus scale="  102.876">  1  5  2 -1</clus>
<clus scale="  105.097">  2  5  1 -1</clus>
</clustering>
</event>
<event>
 9    1  0.1266593E-005  0.1555475E+03  0.7546771E-02  0.1194037E+00
          1   -1    0    0  502    0  0.00000000000E+00  0.00000000000E+00  0.86195624220E+02  0.86195624220E+02  0.00000000000E+00 0. -1.
         -1   -1    0    0    0  501 -0.00000000000E+00 -0.00000000000E+00 -0.53575668147E+03  0.53575668147E+03  0.00000000000E+00 0.  1.
         23    2    1    2    0    0  0.87903520502E+02 -0.66598658878E+02 -0.15573461334E+03  0.21138030837E+03  0.90917295906E+02 0.  0.
         23    2    1    2    0    0 -0.16138052770E+03 -0.19835866139E+01 -0.20081198873E+03  0.27362644662E+03  0.92186594119E+02 0.  0.
        -11    1    4    4    0    0 -0.15216114282E+03 -0.27678486840E+02 -0.18808744737E+03  0.24350769983E+03  0.00000000000E+00 0. -1.
         11    1    4    4    0    0 -0.92193848741E+01  0.25694900226E+02 -0.12724541356E+02  0.30118746783E+02  0.00000000000E+00 0.  1.
        -13    1    3    3    0    0  0.19513887672E+01 -0.39409819036E+02 -0.94480979013E+02  0.10238943866E+03  0.00000000000E+00 0.  1.
         13    1    3    3    0    0  0.85952131735E+02 -0.27188839842E+02 -0.61253634322E+02  0.10899086971E+03  0.00000000000E+00 0. -1.
         21    1    1    2  502  501  0.73477007197E+02  0.68582245492E+02 -0.93014455184E+02  0.13694555070E+03  0.00000000000E+00 0.  1.
<scales pt_clust_5="13000.00000" pt_clust_6="13000.00000" pt_clust_7="13000.00000" pt_clust_8="13000.00000" pt_clust_9="100.51067"></scales>
<clustering>
<clus scale="   90.917">  7  8 -1 -1</clus>
<clus scale="   92.187">  5  6 -1 -1</clus>
<clus scale="  100.511">  1  9  2 -1</clus>
<clus scale="  154.799">  2  7  1 -1</clus>
<clus scale="  100.511">  1  5  2 -1</clus>
</clustering>
</event>
<event>
 9    1  0.1266593E-005  0.1143716E+03  0.7546771E-02  0.1252800E+00
         -2   -1    0    0    0  501 -0.00000000000E+00  0.00000000000E+00  0.75498258417E+02  0.75498258417E+02  0.00000000000E+00 0.  1.
          2   -1    0    0  502    0  0.00000000000E+00 -0.00000000000E+00 -0.26783741019E+03  0.26783741019E+03  0.00000000000E+00 0. -1.
         23    2    1    2    0    0  0.60480272905E+02 -0.61161369798E+02 -0.57224031512E+02  0.13651432930E+03  0.89235619313E+02 0.  0.
         23    2    1    2    0    0 -0.40531651645E+02  0.49833687236E+02 -0.14474795791E+03  0.18194051450E+03  0.89577722289E+02 0.  0.
        -13    1    4    4    0    0  0.15625481366E+02 -0.13690892469E+02 -0.10804409583E+02  0.23416478620E+02  0.00000000000E+00 0.  1.
         13    1    4    4    0    0 -0.56157133011E+02  0.63524579705E+02 -0.13394354832E+03  0.15852403588E+03  0.00000000000E+00 0. -1.
        -13    1    3    3    0    0  0.41604764879E+02 -0.45157752517E+02 -0.81371237370E+02  0.10193849785E+03  0.00000000000E+00 0.  1.
         13    1    3    3    0    0  0.18875508025E+02 -0.16003617281E+02  0.24147205858E+02  0.34575831444E+02  0.00000000000E+00 0. -1.
         21    1    1    2  502  501 -0.19948621260E+02  0.11327682563E+02  0.96328376409E+01  0.24880824814E+02  0.00000000000E+00 0.  1.
<scales pt_clust_5="13000.00000" pt_clust_6="13000.00000" pt_clust_7="13000.00000" pt_clust_8="13000.00000" pt_clust_9="22.94044"></scales>
<clustering>
<clus scale="   22.940">  1  9  2 -1</clus>
<clus scale="   89.236">  7  8 -1 -1</clus>
<clus scale="   89.578">  5  6 -1 -1</clus>
<clus scale="  114.104">  1  7  2 -1</clus>
<clus scale="  114.372">  2  5  1 -1</clus>
</clustering>
</event>
<event>
 9    1  0.1266593E-005  0.9384869E+02  0.7546771E-02  0.1294429E+00
          2   -1    0    0  502    0  0.00000000000E+00  0.00000000000E+00  0.19431026602E+03  0.19431026602E+03  0.00000000000E+00 0. -1.
         -2   -1    0    0    0  501 -0.00000000000E+00 -0.00000000000E+00 -0.75682847593E+02  0.75682847593E+02  0.00000000000E+00 0.  1.
         23    2    1    2    0    0  0.24220375405E+01  0.84917222301E+01  0.11920421958E+02  0.91704615605E+02  0.90496764866E+02 0.  0.
         23    2    1    2    0    0 -0.27825117125E+02  0.43850118254E+00  0.11543032777E+03  0.14998369539E+03  0.91632520904E+02 0.  0.
        -11    1    3    3    0    0  0.41251747911E+02 -0.41922862327E+00  0.26780752458E+02  0.49184257243E+02  0.00000000000E+00 0.  1.
         11    1    3    3    0    0 -0.38829710371E+02  0.89109508534E+01 -0.14860330500E+02  0.42520358361E+02  0.00000000000E+00 0. -1.
        -11    1    4    4    0    0 -0.31981982415E+02  0.33940036437E+02  0.10460936598E+03  0.11453336947E+03  0.00000000000E+00 0. -1.
         11    1    4    4    0    0  0.41568652905E+01 -0.33501535255E+02  0.10820961793E+02  0.35450325917E+02  0.00000000000E+00 0.  1.
         21    1    1    2  502  501  0.25403079585E+02 -0.89302234127E+01 -0.87233312977E+01  0.28304802623E+02  0.00000000000E+00 0. -1.
<scales pt_clust_5="13000.00000" pt_clust_6="13000.00000" pt_clust_7="13000.00000" pt_clust_8="13000.00000" pt_clust_9="26.92704"></scales>
<clustering>
<clus scale="   26.927">  2  9  1 -1</clus>
<clus scale="   90.497">  5  6 -1 -1</clus>
<clus scale="   91.633">  7  8 -1 -1</clus>
<clus scale="   92.740">  2  5  1 -1</clus>
<clus scale="   93.849">  1  5  2 -1</clus>
</clustering>
</event>
<event>
 9    1  0.1266593E-005  0.1187676E+03  0.7546771E-02  0.1245560E+00
          1   -1    0    0  502    0  0.00000000000E+00  0.00000000000E+00  0.22266471404E+03  0.22266471404E+03  0.00000000000E+00 0. -1.
         -1   -1    0    0    0  501 -0.00000000000E+00 -0.00000000000E+00 -0.15296107618E+03  0.15296107618E+03  0.00000000000E+00 0.  1.
         23    2    1    2    0    0  0.63323147181E+02  0.28447922268E+02 -0.86079428458E+02  0.14399789154E+03  0.92231336940E+02 0.  0.
         23    2    1    2    0    0 -0.76742746197E+02  0.15271507740E+01  0.15902238257E+03  0.19862662884E+03  0.90954044673E+02 0.  0.
        -11    1    4    4    0    0  0.12021200757E+01  0.32569632474E+02  0.64316343201E+02  0.72102829729E+02  0.00000000000E+00 0.  1.
         11    1    4    4    0    0 -0.77944866272E+02 -0.31042481700E+02  0.94706039370E+02  0.12652379911E+03  0.00000000000E+00 0. -1.
        -13    1    3    3    0    0  0.66503334836E+02 -0.10892122063E+01 -0.92179422079E+02  0.11367025021E+03  0.00000000000E+00 0.  1.
         13    1    3    3    0    0 -0.31801876551E+01  0.29537134475E+02  0.60999936217E+01  0.30327641331E+02  0.00000000000E+00 0. -1.
         21    1    1    2  502  501  0.13419599016E+02 -0.29975073042E+02 -0.32393162584E+01  0.33001269846E+02  0.00000000000E+00 0. -1.
<scales pt_clust_5="13000.00000" pt_clust_6="13000.00000" pt_clust_7="13000.00000" pt_clust_8="13000.00000" pt_clust_9="32.84190"></scales>
<clustering>
<clus scale="   32.842">  2  9  1 -1</clus>
<clus scale="   90.954">  5  6 -1 -1</clus>
<clus scale="   92.231">  7  8 -1 -1</clus>
<clus scale="  117.778">  1  5  2 -1</clus>
<clus scale="  117.778">  1  5  2 -1</clus>
</clustering>
</event>
<event>
 9    1  0.1266593E-005  0.1355394E+03  0.7546771E-02  0.1221477E+00
          2   -1    0    0  502    0  0.00000000000E+00  0.00000000000E+00  0.43673650753E+03  0.43673650753E+03  0.00000000000E+00 0. -1.
         -2   -1    0    0    0  501 -0.00000000000E+00 -0.00000000000E+00 -0.11153288141E+03  0.11153288141E+03  0.00000000000E+00 0.  1.
         23    2    1    2    0    0 -0.12170374387E+03  0.29406857451E+02  0.12885905743E+03  0.20135243596E+03  0.90893246433E+02 0.  0.
         23    2    1    2    0    0  0.91852391755E+02  0.29947224246E+01  0.24922846787E+03  0.27808620118E+03  0.82287762484E+02 0.  0.
        -11    1    3    3    0    0 -0.85871428761E+02  0.27837578083E+02  0.28322551510E+02  0.94609724421E+02  0.00000000000E+00 0.  1.
         11    1    3    3    0    0 -0.35832315109E+02  0.15692793677E+01  0.10053650592E+03  0.10674271153E+03  0.00000000000E+00 0. -1.
        -13    1    4    4    0    0  0.52845716463E+02  0.38812625672E+01  0.43116247699E+02  0.68313576712E+02  0.00000000000E+00 0.  1.
         13    1    4    4    0    0  0.39006675292E+02 -0.88654014255E+00  0.20611222018E+03  0.20977262447E+03  0.00000000000E+00 0. -1.
         21    1    1    2  502  501  0.29851352115E+02 -0.32401579875E+02 -0.52883899184E+02  0.68830751807E+02  0.00000000000E+00 0. -1.
<scales pt_clust_5="13000.00000" pt_clust_6="13000.00000" pt_clust_7="13000.00000" pt_clust_8="13000.00000" pt_clust_9="44.05639"></scales>
<clustering>
<clus scale="   44.056">  2  9  1 -1</clus>
<clus scale="   82.288">  7  8 -1 -1</clus>
<clus scale="   90.893">  5  6 -1 -1</clus>
<clus scale="  129.925">  1  7  2 -1</clus>
<clus scale="  129.925">  1  5  2 -1</clus>
</clustering>
</event>
<event>
 9    1  0.1266593E-005  0.1154204E+03  0.7546771E-02  0.1251820E+00
         -3   -1    0    0    0  501 -0.00000000000E+00  0.00000000000E+00  0.87794020837E+02  0.87794020837E+02  0.00000000000E+00 0.  1.
          3   -1    0    0  502    0  0.00000000000E+00 -0.00000000000E+00 -0.24329683371E+03  0.24329683371E+03  0.00000000000E+00 0. -1.
         23    2    1    2    0    0 -0.78459148493E+02 -0.28779303195E+02 -0.48390058021E+02  0.13343013565E+03  0.92075605398E+02 0.  0.
         23    2    1    2    0    0  0.48267201612E+02  0.42444931462E+02 -0.11936213584E+03  0.16232871659E+03  0.89286044826E+02 0.  0.
        -13    1    4    4    0    0 -0.22973410933E+02 -0.50500376194E+01 -0.17842499306E+02  0.29523469839E+02  0.00000000000E+00 0.  1.
         13    1    4    4    0    0  0.71240612545E+02  0.47494969081E+02 -0.10151963653E+03  0.13280524675E+03  0.00000000000E+00 0. -1.
        -13    1    3    3    0    0 -0.44879614320E+02  0.31592404394E+02 -0.16261807873E+02  0.57242520841E+02  0.00000000000E+00 0. -1.
         13    1    3    3    0    0 -0.33579534173E+02 -0.60371707590E+02 -0.32128250148E+02  0.76187614808E+02  0.00000000000E+00 0.  1.
         21    1    1    2  502  501  0.30191946881E+02 -0.13665628266E+02  0.12249380986E+02  0.35332002305E+02  0.00000000000E+00 0.  1.
<scales pt_clust_5="13000.00000" pt_clust_6="13000.00000" pt_clust_7="13000.00000" pt_clust_8="13000.00000" pt_clust_9="33.14066"></scales>
<clustering>
<clus scale="   33.141">  1  9  2 -1</clus>
<clus scale="   89.286">  5  6 -1 -1</clus>
<clus scale="   92.076">  7  8 -1 -1</clus>
<clus scale="  113.208">  2  5  1 -1</clus>
<clus scale="  113.208">  2  5  1 -1</clus>
</clustering>
</event>
<event>
 9    1  0.1266593E-005  0.1027696E+03  0.7546771E-02  0.1275294E+00
          2   -1    0    0  502    0  0.00000000000E+00  0.00000000000E+00  0.14818724502E+03  0.14818724502E+03  0.00000000000E+00 0. -1.
         -2   -1    0    0    0  501 -0.00000000000E+00 -0.00000000000E+00 -0.10068665165E+03  0.10068665165E+03  0.00000000000E+00 0.  1.
         23    2    1    2    0    0 -0.32224134329E+02 -0.85447426855E+01 -0.11372680919E+02  0.97791766673E+02  0.91227650945E+02 0.  0.
         23    2    1    2    0    0  0.42477468395E+02  0.27166959659E+02  0.70385034371E+02  0.12690696826E+03  0.92784408773E+02 0.  0.
        -11    1    3    3    0    0  0.21358064902E+02  0.16455325979E+02 -0.25379533626E+02  0.37027900515E+02  0.00000000000E+00 0. -1.
         11    1    3    3    0    0 -0.53582199232E+02 -0.25000068665E+02  0.14006852708E+02  0.60763866158E+02  0.00000000000E+00 0.  1.
        -11    1    4    4    0    0  0.18705380550E+02  0.23599441034E+02  0.90615787455E+02  0.95488459066E+02  0.00000000000E+00 0. -1.
         11    1    4    4    0    0  0.23772087845E+02  0.35675186254E+01 -0.20230753084E+02  0.31418509194E+02  0.00000000000E+00 0.  1.
         21    1    1    2  502  501 -0.10253334066E+02 -0.18622216973E+02 -0.11511760084E+02  0.24175161731E+02  0.00000000000E+00 0.  1.
<scales pt_clust_5="13000.00000" pt_clust_6="13000.00000" pt_clust_7="13000.00000" pt_clust_8="13000.00000" pt_clust_9="21.25836"></scales>
<clustering>
<clus scale="   21.258">  2  9  1 -1</clus>
<clus scale="   91.228">  5  6 -1 -1</clus>
<clus scale="   92.784">  7  8 -1 -1</clus>
<clus scale="  101.366">  2  5  1 -1</clus>
<clus scale="  102.770">  1  5  2 -1</clus>
</clustering>
</event>
<event>
 9    1  0.1266593E-005  0.9534107E+02  0.7546771E-02  0.1290548E+00
         -2   -1    0    0    0  501 -0.00000000000E+00  0.00000000000E+00  0.88418670075E+02  0.88418670075E+02  0.00000000000E+00 0.  1.
          2   -1    0    0  502    0  0.00000000000E+00 -0.00000000000E+00 -0.37456131406E+03  0.37456131406E+03  0.00000000000E+00 0. -1.
         23    2    1    2    0    0 -0.27772880392E+02 -0.12149311353E+02 -0.66631994777E+02  0.12004907065E+03  0.95147348805E+02 0.  0.
         23    2    1    2    0    0 -0.17727376567E+01 -0.78729828248E+01 -0.26702662863E+03  0.28350361243E+03  0.94899691306E+02 0.  0.
        -11    1    3    3    0    0  0.32852328366E+02  0.29237784293E+00 -0.59764166200E+01  0.33392791430E+02  0.00000000000E+00 0.  1.
         11    1    3    3    0    0 -0.60625208757E+02 -0.12441689196E+02 -0.60655578157E+02  0.86656279222E+02  0.00000000000E+00 0. -1.
        -13    1    4    4    0    0 -0.31879556534E+02  0.28330814588E+02 -0.17510204139E+03  0.18022115880E+03  0.00000000000E+00 0.  1.
         13    1    4    4    0    0  0.30106818878E+02 -0.36203797413E+02 -0.91924587235E+02  0.10328245363E+03  0.00000000000E+00 0. -1.
         21    1    1    2  502  501  0.29545618049E+02  0.20022294177E+02  0.47515979419E+02  0.59427301051E+02  0.00000000000E+00 0.  1.
<scales pt_clust_5="13000.00000" pt_clust_6="13000.00000" pt_clust_7="13000.00000" pt_clust_8="13000.00000" pt_clust_9="35.69084"></scales>
<clustering>
<clus scale="   35.691">  1  9  2 -1</clus>
<clus scale="   94.900">  7  8 -1 -1</clus>
<clus scale="   95.094">  2  7  1 -1</clus>
<clus scale="   95.147">  5  6 -1 -1</clus>
<clus scale="   95.094">  2  5  1 -1</clus>
</clustering>
</event>
<event>
 9    1  0.1266593E-005  0.9808326E+02  0.7546771E-02  0.1286238E+00
         -1   -1    0    0    0  501 -0.00000000000E+00  0.00000000000E+00  0.31512297949E+02  0.31512297949E+02  0.00000000000E+00 0.  1.
          1   -1    0    0  502    0  0.00000000000E+00 -0.00000000000E+00 -0.68015745602E+03  0.68015745602E+03  0.00000000000E+00 0. -1.
         23    2    1    2    0    0  0.12973685719E+02  0.18572514864E+02 -0.15230740760E+03  0.18085359189E+03  0.94853679211E+02 0.  0.
         23    2    1    2    0    0  0.37943786532E+02  0.23995168804E+02 -0.40693439218E+03  0.41947184410E+03  0.91353869037E+02 0.  0.
        -11    1    4    4    0    0 -0.99933715637E+01 -0.24065305274E+02 -0.52677214572E+02  0.58769850503E+02  0.00000000000E+00 0. -1.
         11    1    4    4    0    0  0.47937158096E+02  0.48060474078E+02 -0.35425717761E+03  0.36070199360E+03  0.00000000000E+00 0.  1.
        -13    1    3    3    0    0 -0.40983321953E+02  0.48389872621E+01 -0.74676510804E+02  0.85320746257E+02  0.00000000000E+00 0.  1.
         13    1    3    3    0    0  0.53957007671E+02  0.13733527602E+02 -0.77630896791E+02  0.95532845628E+02  0.00000000000E+00 0. -1.
         21    1    1    2  502  501 -0.50917472251E+02 -0.42567683669E+02 -0.89403358293E+02  0.11134431798E+03  0.00000000000E+00 0. -1.
<scales pt_clust_5="13000.00000" pt_clust_6="13000.00000" pt_clust_7="13000.00000" pt_clust_8="13000.00000" pt_clust_9="66.36714"></scales>
<clustering>
<clus scale="   66.367">  1  9  2 -1</clus>
<clus scale="   91.354">  5  6 -1 -1</clus>
<clus scale="   94.703">  2  5  1 -1</clus>
<clus scale="   94.854">  7  8 -1 -1</clus>
<clus scale="   94.703">  2  5  1 -1</clus>
</clustering>
</event>
<event>
 9    1  0.1266593E-005  0.3610283E+03  0.7546771E-02  0.1058236E+00
         -1   -1    0    0    0  501 -0.00000000000E+00  0.00000000000E+00  0.21502133326E+03  0.21502133326E+03  0.00000000000E+00 0.  1.
          1   -1    0    0  502    0  0.00000000000E+00 -0.00000000000E+00 -0.89028558609E+03  0.89028558609E+03  0.00000000000E+00 0. -1.
         23    2    1    2    0    0 -0.14547509607E+03 -0.31705552088E+03 -0.16158307857E+03  0.39469987833E+03  0.89396285036E+02 0.  0.
         23    2    1    2    0    0  0.36404131026E+02  0.35982336730E+03 -0.37387305187E+03  0.52820124289E+03  0.91746267848E+02 0.  0.
        -11    1    4    4    0    0  0.60760929161E+02  0.22934590684E+03 -0.27161807539E+03  0.36064915691E+03  0.00000000000E+00 0. -1.
         11    1    4    4    0    0 -0.24356798135E+02  0.13047746045E+03 -0.10225497648E+03  0.16755208598E+03  0.00000000000E+00 0.  1.
        -13    1    3    3    0    0 -0.88218223274E+02 -0.11212863889E+03 -0.34219474329E+02  0.14671829811E+03  0.00000000000E+00 0. -1.
         13    1    3    3    0    0 -0.57256872797E+02 -0.20492688199E+03 -0.12736360424E+03  0.24798158022E+03  0.00000000000E+00 0.  1.
         21    1    1    2  502  501  0.10907096504E+03 -0.42767846412E+02 -0.13980812239E+03  0.18240579812E+03  0.00000000000E+00 0. -1.
<scales pt_clust_5="13000.00000" pt_clust_6="13000.00000" pt_clust_7="13000.00000" pt_clust_8="13000.00000" pt_clust_9="117.15615"></scales>
<clustering>
<clus scale="   89.396">  7  8 -1 -1</clus>
<clus scale="   91.746">  5  6 -1 -1</clus>
<clus scale="  117.156">  2  9  1 -1</clus>
<clus scale="  360.438">  1  7  2 -1</clus>
<clus scale="  117.156">  2  5  1 -1</clus>
</clustering>
</event>
<event>
 9    1  0.1266593E-005  0.2401113E+03  0.7546771E-02  0.1120112E+00
          1   -1    0    0  502    0  0.00000000000E+00  0.00000000000E+00  0.56152208261E+03  0.56152208261E+03  0.00000000000E+00 0. -1.
         -1   -1    0    0    0  501 -0.00000000000E+00 -0.00000000000E+00 -0.27136244470E+03  0.27136244470E+03  0.00000000000E+00 0.  1.
         23    2    1    2    0    0  0.13465111364E+03 -0.14456630826E+03 -0.17691118096E+03  0.28225466544E+03  0.96642590625E+02 0.  0.
         23    2    1    2    0    0 -0.14937965411E+03  0.16506961042E+03  0.46717380324E+03  0.52538454727E+03  0.90638307213E+02 0.  0.
        -13    1    4    4    0    0 -0.10420442225E+03  0.13847319109E+03  0.42194202604E+03  0.45614521767E+03  0.00000000000E+00 0. -1.
         13    1    4    4    0    0 -0.45175231862E+02  0.26596419330E+02  0.45231777200E+02  0.69239329601E+02  0.00000000000E+00 0.  1.
        -13    1    3    3    0    0  0.91206724894E+02 -0.14462680103E+03 -0.16402761700E+03  0.23694015569E+03  0.00000000000E+00 0.  1.
         13    1    3    3    0    0  0.43444388749E+02  0.60492765749E-01 -0.12883563964E+02  0.45314509746E+02  0.00000000000E+00 0. -1.
         21    1    1    2  502  501  0.14728540468E+02 -0.20503302153E+02 -0.10298436989E+00  0.25245314600E+02  0.00000000000E+00 0.  1.
<scales pt_clust_5="13000.00000" pt_clust_6="13000.00000" pt_clust_7="13000.00000" pt_clust_8="13000.00000" pt_clust_9="25.24510"></scales>
<clustering>
<clus scale="   25.245">  2  9  1 -1</clus>
<clus scale="   90.638">  5  6 -1 -1</clus>
<clus scale="   96.643">  7  8 -1 -1</clus>
<clus scale="  237.758">  1  5  2 -1</clus>
<clus scale="  237.758">  1  5  2 -1</clus>
</clustering>
</event>
<event>
 9    1  0.1266593E-005  0.1037412E+03  0.7546771E-02  0.1273265E+00
          2   -1    0    0  502    0  0.00000000000E+00  0.00000000000E+00  0.19469444808E+03  0.19469444808E+03  0.00000000000E+00 0. -1.
         -2   -1    0    0    0  501 -0.00000000000E+00 -0.00000000000E+00 -0.11363332296E+03  0.11363332296E+03  0.00000000000E+00 0.  1.
         23    2    1    2    0    0  0.43162827116E+02 -0.20092415080E+02  0.65737901627E+02  0.12194140026E+03  0.91002739518E+02 0.  0.
         23    2    1    2    0    0 -0.36440275229E+02  0.39693071658E+02  0.71424969594E+02  0.12658014738E+03  0.89540905916E+02 0.  0.
        -11    1    4    4    0    0 -0.51845568377E+02  0.23262470300E+02  0.83517454429E+02  0.10101619018E+03  0.00000000000E+00 0.  1.
         11    1    4    4    0    0  0.15405293149E+02  0.16430601357E+02 -0.12092484835E+02  0.25563957194E+02  0.00000000000E+00 0. -1.
        -13    1    3    3    0    0 -0.27111020327E+02 -0.16401727570E+02  0.14234258850E+02  0.34736698396E+02  0.00000000000E+00 0.  1.
         13    1    3    3    0    0  0.70273847443E+02 -0.36906875104E+01  0.51503642777E+02  0.87204701869E+02  0.00000000000E+00 0. -1.
         21    1    1    2  502  501 -0.67225518869E+01 -0.19600656577E+02 -0.56101746097E+02  0.59806223399E+02  0.00000000000E+00 0.  1.
<scales pt_clust_5="13000.00000" pt_clust_6="13000.00000" pt_clust_7="13000.00000" pt_clust_8="13000.00000" pt_clust_9="20.72145"></scales>
<clustering>
<clus scale="   20.721">  2  9  1 -1</clus>
<clus scale="   89.541">  5  6 -1 -1</clus>
<clus scale="   91.003">  7  8 -1 -1</clus>
<clus scale="  102.461">  1  5  2 -1</clus>
<clus scale="  102.461">  1  5  2 -1</clus>
</clustering>
</event>
<event>
 9    1  0.1266593E-005  0.2135052E+03  0.7546771E-02  0.1138914E+00
         -2   -1    0    0    0  501 -0.00000000000E+00  0.00000000000E+00  0.18872519113E+03  0.18872519113E+03  0.00000000000E+00 0.  1.
          2   -1    0    0  502    0  0.00000000000E+00 -0.00000000000E+00 -0.41038597912E+03  0.41038597912E+03  0.00000000000E+00 0. -1.
         23    2    1    2    0    0  0.16613754378E+03 -0.55379181345E+02 -0.30859073066E+02  0.19889658540E+03  0.89101246420E+02 0.  0.
         23    2    1    2    0    0 -0.19464507952E+03  0.56728188955E+02 -0.25012377586E+03  0.33438445248E+03  0.90256658539E+02 0.  0.
        -11    1    3    3    0    0  0.92544919230E+02 -0.73523511466E+02 -0.34144853060E+02  0.12302902017E+03  0.00000000000E+00 0.  1.
         11    1    3    3    0    0  0.73592624553E+02  0.18144330120E+02  0.32857799943E+01  0.75867565232E+02  0.00000000000E+00 0. -1.
        -13    1    4    4    0    0 -0.16947056968E+03  0.77707665454E+02 -0.22941983322E+03  0.29562174334E+03  0.00000000000E+00 0. -1.
         13    1    4    4    0    0 -0.25174509837E+02 -0.20979476498E+02 -0.20703942635E+02  0.38762709145E+02  0.00000000000E+00 0.  1.
         21    1    1    2  502  501  0.28507535734E+02 -0.13490076099E+01  0.59322060927E+02  0.65830132370E+02  0.00000000000E+00 0.  1.
<scales pt_clust_5="13000.00000" pt_clust_6="13000.00000" pt_clust_7="13000.00000" pt_clust_8="13000.00000" pt_clust_9="28.53944"></scales>
<clustering>
<clus scale="   28.539">  1  9  2 -1</clus>
<clus scale="   89.101">  5  6 -1 -1</clus>
<clus scale="   90.257">  7  8 -1 -1</clus>
<clus scale="  213.019">  1  5  2 -1</clus>
<clus scale="  213.505">  2  5  1 -1</clus>
</clustering>
</event>
<event>
 9    1  0.1266593E-005  0.1105307E+03  0.7546771E-02  0.1259646E+00
         -1   -1    0    0    0  501 -0.00000000000E+00  0.00000000000E+00  0.10700125141E+03  0.10700125141E+03  0.00000000000E+00 0.  1.
          1   -1    0    0  502    0  0.00000000000E+00 -0.00000000000E+00 -0.15303456622E+03  0.15303456622E+03  0.00000000000E+00 0. -1.
         23    2    1    2    0    0  0.70137116326E+02  0.75583387304E+00  0.18318082917E+02  0.11709707809E+03  0.91958616588E+02 0.  0.
         23    2    1    2    0    0 -0.45800685287E+02 -0.43012244767E+01 -0.55980234542E+02  0.11695974720E+03  0.91812812286E+02 0.  0.
        -11    1    4    4    0    0 -0.77025418472E+00 -0.34018949349E+02 -0.52925791317E+02  0.62920756455E+02  0.00000000000E+00 0. -1.
         11    1    4    4    0    0 -0.45030431102E+02  0.29717724872E+02 -0.30544432252E+01  0.54038990740E+02  0.00000000000E+00 0.  1.
        -13    1    3    3    0    0  0.48503607012E+02 -0.25745419684E+02 -0.26289665968E+02  0.60881631586E+02  0.00000000000E+00 0. -1.
         13    1    3    3    0    0  0.21633509313E+02  0.26501253557E+02  0.44607748885E+02  0.56215446506E+02  0.00000000000E+00 0.  1.
         21    1    1    2  502  501 -0.24336431039E+02  0.35453906036E+01 -0.83711631844E+01  0.25978992346E+02  0.00000000000E+00 0. -1.
<scales pt_clust_5="13000.00000" pt_clust_6="13000.00000" pt_clust_7="13000.00000" pt_clust_8="13000.00000" pt_clust_9="24.59333"></scales>
<clustering>
<clus scale="   24.593">  2  9  1 -1</clus>
<clus scale="   91.813">  5  6 -1 -1</clus>
<clus scale="   91.959">  7  8 -1 -1</clus>
<clus scale="  110.409">  2  5  1 -1</clus>
<clus scale="   24.593">  2  5  1 -1</clus>
</clustering>
</event>
<event>
 9    1  0.1266593E-005  0.3029367E+03  0.7546771E-02  0.1083837E+00
          2   -1    0    0  502    0  0.00000000000E+00  0.00000000000E+00  0.18887168629E+03  0.18887168629E+03  0.00000000000E+00 0. -1.
         -2   -1    0    0    0  501 -0.00000000000E+00 -0.00000000000E+00 -0.53796986437E+03  0.53796986437E+03  0.00000000000E+00 0.  1.
         23    2    1    2    0    0 -0.29607228844E+02 -0.27304900777E+03 -0.23158727763E+03  0.37131988940E+03  0.93879947040E+02 0.  0.
         23    2    1    2    0    0  0.29218691639E+02  0.29614907750E+03 -0.10279141274E+03  0.32812772944E+03  0.92432268435E+02 0.  0.
        -11    1    3    3    0    0  0.16838742586E+01 -0.57068909295E+02 -0.59367208441E+01  0.57401572234E+02  0.00000000000E+00 0. -1.
         11    1    3    3    0    0 -0.31291103103E+02 -0.21598009848E+03 -0.22565055679E+03  0.31391831716E+03  0.00000000000E+00 0.  1.
        -13    1    4    4    0    0 -0.25909152303E+02  0.12013217020E+03 -0.67913929968E+02  0.14041126869E+03  0.00000000000E+00 0.  1.
         13    1    4    4    0    0  0.55127843942E+02  0.17601690730E+03 -0.34877482768E+02  0.18771646075E+03  0.00000000000E+00 0. -1.
         21    1    1    2  502  501  0.38853720486E+00 -0.23100069731E+02 -0.14719487702E+02  0.27393931827E+02  0.00000000000E+00 0.  1.
<scales pt_clust_5="13000.00000" pt_clust_6="13000.00000" pt_clust_7="13000.00000" pt_clust_8="13000.00000" pt_clust_9="23.10334"></scales>
<clustering>
<clus scale="   23.103">  2  9  1 -1</clus>
<clus scale="   92.432">  7  8 -1 -1</clus>
<clus scale="   93.880">  5  6 -1 -1</clus>
<clus scale="  302.491">  1  7  2 -1</clus>
<clus scale="  302.491">  1  5  2 -1</clus>
</clustering>
</event>
<event>
 9    1  0.1266593E-005  0.1319155E+03  0.7546771E-02  0.1225009E+00
          1   -1    0    0  502    0  0.00000000000E+00  0.00000000000E+00  0.60928633860E+03  0.60928633860E+03  0.00000000000E+00 0. -1.
         -1   -1    0    0    0  501 -0.00000000000E+00 -0.00000000000E+00 -0.66192292142E+02  0.66192292142E+02  0.00000000000E+00 0.  1.
         23    2    1    2    0    0  0.10952809973E+03 -0.46431356037E+02  0.74426505910E+02  0.16540668358E+03  0.87565922240E+02 0.  0.
         23    2    1    2    0    0 -0.81178727157E+02  0.45862598261E+02  0.46368858997E+03  0.48128305416E+03  0.89066863048E+02 0.  0.
        -11    1    4    4    0    0 -0.31781242439E+02 -0.25622937809E+02  0.11887043745E+03  0.12568517499E+03  0.00000000000E+00 0. -1.
         11    1    4    4    0    0 -0.49397484718E+02  0.71485536070E+02  0.34481815252E+03  0.35559787917E+03  0.00000000000E+00 0.  1.
        -11    1    3    3    0    0  0.20204469800E+02 -0.27544857665E+02  0.65246159129E+02  0.73647817787E+02  0.00000000000E+00 0. -1.
         11    1    3    3    0    0  0.89323629934E+02 -0.18886498371E+02  0.91803467801E+01  0.91758865797E+02  0.00000000000E+00 0.  1.
         21    1    1    2  502  501 -0.28349372577E+02  0.56875777561E+00  0.49789505758E+01  0.28788892993E+02  0.00000000000E+00 0.  1.
<scales pt_clust_5="13000.00000" pt_clust_6="13000.00000" pt_clust_7="13000.00000" pt_clust_8="13000.00000" pt_clust_9="28.35508"></scales>
<clustering>
<clus scale="   28.355">  2  9  1 -1</clus>
<clus scale="   87.566">  7  8 -1 -1</clus>
<clus scale="   89.067">  5  6 -1 -1</clus>
<clus scale="  130.907">  2  7  1 -1</clus>
<clus scale="  131.916">  1  5  2 -1</clus>
</clustering>
</event>
<event>
 9    1  0.1266593E-005  0.1066876E+03  0.7546771E-02  0.1267102E+00
          1   -1    0    0  502    0  0.00000000000E+00  0.00000000000E+00  0.35204242920E+03  0.35204242920E+03  0.00000000000E+00 0. -1.
         -1   -1    0    0    0  501 -0.00000000000E+00 -0.00000000000E+00 -0.56866572754E+02  0.56866572754E+02  0.00000000000E+00 0.  1.
         23    2    1    2    0    0  0.57432268501E+02 -0.45558665759E+01  0.78878506197E+02  0.13337356484E+03  0.90815569544E+02 0.  0.
         23    2    1    2    0    0 -0.47377509669E+02  0.33022244083E+02  0.22043843129E+03  0.24506280389E+03  0.90153085547E+02 0.  0.
        -11    1    3    3    0    0  0.71761071952E+02 -0.20010522843E+02  0.83389829161E+02  0.11182100017E+03  0.00000000000E+00 0.  1.
         11    1    3    3    0    0 -0.14328803451E+02  0.15454656267E+02 -0.45113229636E+01  0.21552564663E+02  0.00000000000E+00 0. -1.
        -13    1    4    4    0    0  0.43897412923E+00  0.50809073042E+02  0.72169257702E+02  0.88261862426E+02  0.00000000000E+00 0. -1.
         13    1    4    4    0    0 -0.47816483799E+02 -0.17786828958E+02  0.14826917359E+03  0.15680094147E+03  0.00000000000E+00 0.  1.
         21    1    1    2  502  501 -0.10054758832E+02 -0.28466377508E+02 -0.41410810439E+01  0.30472633227E+02  0.00000000000E+00 0.  1.
<scales pt_clust_5="13000.00000" pt_clust_6="13000.00000" pt_clust_7="13000.00000" pt_clust_8="13000.00000" pt_clust_9="30.18995"></scales>
<clustering>
<clus scale="   30.190">  2  9  1 -1</clus>
<clus scale="   90.153">  7  8 -1 -1</clus>
<clus scale="   90.816">  5  6 -1 -1</clus>
<clus scale="  106.124">  1  7  2 -1</clus>
<clus scale="  106.124">  1  5  2 -1</clus>
</clustering>
</event>
<event>
 9    1  0.1266593E-005  0.1120367E+03  0.7546771E-02  0.1257162E+00
         -2   -1    0    0    0  501 -0.00000000000E+00  0.00000000000E+00  0.77824378027E+02  0.77824378027E+02  0.00000000000E+00 0.  1.
          2   -1    0    0  502    0  0.00000000000E+00 -0.00000000000E+00 -0.23348836622E+03  0.23348836622E+03  0.00000000000E+00 0. -1.
         23    2    1    2    0    0  0.42274952829E+02  0.13837614911E+02 -0.15385951077E+02  0.10315732722E+03  0.91793547951E+02 0.  0.
         23    2    1    2    0    0 -0.71655154608E+02 -0.19477172262E+02 -0.13292525008E+03  0.17734852915E+03  0.90937106068E+02 0.  0.
        -11    1    4    4    0    0 -0.93133281422E+02 -0.14895315976E+02 -0.97390169622E+02  0.13557479001E+03  0.00000000000E+00 0.  1.
         11    1    4    4    0    0  0.21478126814E+02 -0.45818562863E+01 -0.35535080460E+02  0.41773739140E+02  0.00000000000E+00 0. -1.
        -13    1    3    3    0    0 -0.13936137510E+02  0.32718586526E+02 -0.24469823976E+02  0.43168207264E+02  0.00000000000E+00 0.  1.
         13    1    3    3    0    0  0.56211090339E+02 -0.18880971615E+02  0.90838728991E+01  0.59989119956E+02  0.00000000000E+00 0. -1.
         21    1    1    2  502  501  0.29380201780E+02  0.56395573508E+01 -0.73527870349E+01  0.30806887881E+02  0.00000000000E+00 0.  1.
<scales pt_clust_5="13000.00000" pt_clust_6="13000.00000" pt_clust_7="13000.00000" pt_clust_8="13000.00000" pt_clust_9="29.91657"></scales>
<clustering>
<clus scale="   29.917">  1  9  2 -1</clus>
<clus scale="   90.937">  5  6 -1 -1</clus>
<clus scale="   91.794">  7  8 -1 -1</clus>
<clus scale="  111.336">  2  5  1 -1</clus>
<clus scale="  111.336">  2  5  1 -1</clus>
</clustering>
</event>
<event>
 9    1  0.1266593E-005  0.1285795E+03  0.7546771E-02  0.1229581E+00
         -2   -1    0    0    0  501 -0.00000000000E+00  0.00000000000E+00  0.37616050895E+02  0.37616050895E+02  0.00000000000E+00 0.  1.
          2   -1    0    0  502    0  0.00000000000E+00 -0.00000000000E+00 -0.75340463097E+03  0.75340463097E+03  0.00000000000E+00 0. -1.
         23    2    1    2    0    0 -0.83732773977E+02  0.40725104737E+02 -0.15371666969E+03  0.20017534682E+03  0.88156924505E+02 0.  0.
         23    2    1    2    0    0  0.10229323791E+03  0.18069903643E+01 -0.39512437366E+03  0.41756824495E+03  0.88163466321E+02 0.  0.
        -11    1    4    4    0    0 -0.48716656585E+01 -0.20174610780E+02 -0.11467038382E+03  0.11653345001E+03  0.00000000000E+00 0. -1.
         11    1    4    4    0    0  0.10716490357E+03  0.21981601145E+02 -0.28045398985E+03  0.30103479494E+03  0.00000000000E+00 0.  1.
        -11    1    3    3    0    0 -0.20086127536E+02  0.39525269617E+02 -0.13761211989E+02  0.46422735950E+02  0.00000000000E+00 0.  1.
         11    1    3    3    0    0 -0.63646646440E+02  0.11998351201E+01 -0.13995545770E+03  0.15375261087E+03  0.00000000000E+00 0. -1.
         21    1    1    2  502  501 -0.18560463933E+02 -0.42532095102E+02 -0.16694753672E+03  0.17327709010E+03  0.00000000000E+00 0. -1.
<scales pt_clust_5="13000.00000" pt_clust_6="13000.00000" pt_clust_7="13000.00000" pt_clust_8="13000.00000" pt_clust_9="46.40549"></scales>
<clustering>
<clus scale="   46.405">  2  9  1 -1</clus>
<clus scale="   88.157">  7  8 -1 -1</clus>
<clus scale="   88.163">  5  6 -1 -1</clus>
<clus scale="  128.575">  1  7  2 -1</clus>
<clus scale="   46.405">  2  5  1 -1</clus>
</clustering>
</event>
<event>
 9    1  0.1266593E-005  0.1009414E+03  0.7546771E-02  0.1278986E+00
          1   -1    0    0  502    0  0.00000000000E+00  0.00000000000E+00  0.28853200632E+03  0.28853200632E+03  0.00000000000E+00 0. -1.
         -1   -1    0    0    0  501 -0.00000000000E+00 -0.00000000000E+00 -0.54799113512E+02  0.54799113512E+02  0.00000000000E+00 0.  1.
         23    2    1    2    0    0 -0.47432829231E+02  0.16013592886E+00  0.86341524767E+02  0.13668532956E+03  0.94752949741E+02 0.  0.
         23    2    1    2    0    0  0.25932494019E+02 -0.13271309095E+02  0.15226656106E+03  0.18099555084E+03  0.93411251553E+02 0.  0.
        -11    1    3    3    0    0  0.81936952506E+01 -0.32479843077E+02  0.66261968900E+01  0.34146498113E+02  0.00000000000E+00 0.  1.
         11    1    3    3    0    0 -0.55626524482E+02  0.32639979006E+02  0.79715327877E+02  0.10253883144E+03  0.00000000000E+00 0. -1.
        -11    1    4    4    0    0  0.38652106406E+02 -0.44755042974E+02  0.12170698470E+03  0.13531293111E+03  0.00000000000E+00 0.  1.
         11    1    4    4    0    0 -0.12719612387E+02  0.31483733879E+02  0.30559576362E+02  0.45682619734E+02  0.00000000000E+00 0. -1.
         21    1    1    2  502  501  0.21500335212E+02  0.13111173166E+02 -0.48751930167E+01  0.25650239433E+02  0.00000000000E+00 0. -1.
<scales pt_clust_5="13000.00000" pt_clust_6="13000.00000" pt_clust_7="13000.00000" pt_clust_8="13000.00000" pt_clust_9="25.18268"></scales>
<clustering>
<clus scale="   25.183">  2  9  1 -1</clus>
<clus scale="   93.411">  7  8 -1 -1</clus>
<clus scale="   94.753">  5  6 -1 -1</clus>
<clus scale="   99.683">  1  7  2 -1</clus>
<clus scale="   99.683">  1  5  2 -1</clus>
</clustering>
</event>
<event>
 9    1  0.1266593E-005  0.1015945E+03  0.7546771E-02  0.1277146E+00
          2   -1    0    0  502    0  0.00000000000E+00  0.00000000000E+00  0.15266125959E+03  0.15266125959E+03  0.00000000000E+00 0. -1.
         -2   -1    0    0    0  501 -0.00000000000E+00 -0.00000000000E+00 -0.20874679849E+03  0.20874679849E+03  0.00000000000E+00 0.  1.
         23    2    1    2    0    0  0.28619705480E+02  0.39775433224E+02 -0.15289943160E+03  0.18438125934E+03  0.90647890106E+02 0.  0.
         23    2    1    2    0    0 -0.41041217225E+02 -0.20941735473E+02  0.11104678237E+03  0.15035139297E+03  0.90284083303E+02 0.  0.
        -13    1    3    3    0    0 -0.16747655023E+02  0.34038836538E+02 -0.18092119459E+02  0.42029169967E+02  0.00000000000E+00 0.  1.
         13    1    3    3    0    0  0.45367360503E+02  0.57365966861E+01 -0.13480731215E+03  0.14235208937E+03  0.00000000000E+00 0. -1.
        -13    1    4    4    0    0  0.17093407040E+02  0.17319114920E+02  0.57830197720E+02  0.62741278869E+02  0.00000000000E+00 0. -1.
         13    1    4    4    0    0 -0.58134624265E+02 -0.38260850392E+02  0.53216584651E+02  0.87610114103E+02  0.00000000000E+00 0.  1.
         21    1    1    2  502  501  0.12421511745E+02 -0.18833697751E+02 -0.14232889662E+02  0.26675405773E+02  0.00000000000E+00 0.  1.
<scales pt_clust_5="13000.00000" pt_clust_6="13000.00000" pt_clust_7="13000.00000" pt_clust_8="13000.00000" pt_clust_9="22.56108"></scales>
<clustering>
<clus scale="   22.561">  2  9  1 -1</clus>
<clus scale="   90.284">  7  8 -1 -1</clus>
<clus scale="   90.648">  5  6 -1 -1</clus>
<clus scale="  101.270">  1  7  2 -1</clus>
<clus scale="  101.270">  1  5  2 -1</clus>
</clustering>
</event>
<event>
 9    1  0.1266593E-005  0.2304752E+03  0.7546771E-02  0.1126577E+00
          1   -1    0    0  502    0  0.00000000000E+00  0.00000000000E+00  0.55336976529E+03  0.55336976529E+03  0.00000000000E+00 0. -1.
         -1   -1    0    0    0  501 -0.00000000000E+00 -0.00000000000E+00 -0.16643824537E+03  0.16643824537E+03  0.00000000000E+00 0.  1.
         23    2    1    2    0    0 -0.16305350794E+03 -0.14262736978E+03  0.19785086810E+02  0.23570965636E+03  0.90766620400E+02 0.  0.
         23    2    1    2    0    0  0.17411413587E+03  0.11886821792E+03  0.38839196560E+03  0.45036102426E+03  0.86783337601E+02 0.  0.
        -11    1    4    4    0    0  0.18064189196E+03  0.97896854127E+02  0.34078637900E+03  0.39793296331E+03  0.00000000000E+00 0. -1.
         11    1    4    4    0    0 -0.65277560863E+01  0.20971363797E+02  0.47605586601E+02  0.52428060947E+02  0.00000000000E+00 0.  1.
        -13    1    3    3    0    0 -0.42039926171E+02 -0.89956560249E+01 -0.25289088826E+02  0.49878003503E+02  0.00000000000E+00 0. -1.
         13    1    3    3    0    0 -0.12101358177E+03 -0.13363171376E+03  0.45074175636E+02  0.18583165286E+03  0.00000000000E+00 0.  1.
         21    1    1    2  502  501 -0.11060627928E+02  0.23759151859E+02 -0.21245532497E+02  0.33737330041E+02  0.00000000000E+00 0.  1.
<scales pt_clust_5="13000.00000" pt_clust_6="13000.00000" pt_clust_7="13000.00000" pt_clust_8="13000.00000" pt_clust_9="26.20753"></scales>
<clustering>
<clus scale="   26.208">  2  9  1 -1</clus>
<clus scale="   86.783">  5  6 -1 -1</clus>
<clus scale="   90.767">  7  8 -1 -1</clus>
<clus scale="  228.936">  1  5  2 -1</clus>
<clus scale="  228.936">  1  5  2 -1</clus>
</clustering>
</event>
<event>
 9    1  0.1266593E-005  0.1020571E+03  0.7546771E-02  0.1281566E+00
          1   -1    0    0  502    0  0.00000000000E+00  0.00000000000E+00  0.18076368342E+03  0.18076368342E+03  0.00000000000E+00 0. -1.
         -1   -1    0    0    0  501 -0.00000000000E+00 -0.00000000000E+00 -0.88558800328E+02  0.88558800328E+02  0.00000000000E+00 0.  1.
         23    2    1    2    0    0 -0.23420612120E+01  0.22399221435E+02 -0.68367035563E+00  0.94262905026E+02  0.91530418371E+02 0.  0.
         23    2    1    2    0    0 -0.10665949424E+01 -0.10463467888E+01  0.10820309202E+03  0.14856242257E+03  0.10178728709E+03 0.  0.
        -11    1    3    3    0    0 -0.37720568250E+02 -0.16941794327E+02 -0.51314951734E+00  0.41353705838E+02  0.00000000000E+00 0.  1.
         11    1    3    3    0    0  0.35378507038E+02  0.39341015761E+02 -0.17052083829E+00  0.52909199188E+02  0.00000000000E+00 0. -1.
        -11    1    4    4    0    0 -0.48143795480E+02  0.17453373189E+02  0.53577133539E+02  0.74114469013E+02  0.00000000000E+00 0.  1.
         11    1    4    4    0    0  0.47077200538E+02 -0.18499719978E+02  0.54625958477E+02  0.74447953560E+02  0.00000000000E+00 0. -1.
         21    1    1    2  502  501  0.34086561544E+01 -0.21352874646E+02 -0.15314538569E+02  0.26497156149E+02  0.00000000000E+00 0.  1.
<scales pt_clust_5="13000.00000" pt_clust_6="13000.00000" pt_clust_7="13000.00000" pt_clust_8="13000.00000" pt_clust_9="21.62323"></scales>
<clustering>
<clus scale="   21.623">  2  9  1 -1</clus>
<clus scale="   91.530">  5  6 -1 -1</clus>
<clus scale="   91.830">  2  5  1 -1</clus>
<clus scale="  101.787">  7  8 -1 -1</clus>
<clus scale="  102.057">  1  5  2 -1</clus>
</clustering>
</event>
<event>
 9    1  0.1266593E-005  0.2567038E+03  0.7546771E-02  0.1109557E+00
          1   -1    0    0  502    0  0.00000000000E+00  0.00000000000E+00  0.15410683423E+04  0.15410683423E+04  0.00000000000E+00 0. -1.
         -1   -1    0    0    0  501 -0.00000000000E+00 -0.00000000000E+00 -0.28377075728E+03  0.28377075728E+03  0.00000000000E+00 0.  1.
         23    2    1    2    0    0 -0.25201148496E+03  0.10023626876E+03 -0.15503583257E+03  0.32541452934E+03  0.91112065061E+02 0.  0.
         23    2    1    2    0    0  0.15596428033E+03 -0.18229559416E+03  0.13167563162E+04  0.13410144042E+04  0.83161863351E+02 0.  0.
        -13    1    4    4    0    0  0.78810977888E+02 -0.14954440880E+03  0.93600214175E+03  0.95114389542E+03  0.00000000000E+00 0. -1.
         13    1    4    4    0    0  0.77153302445E+02 -0.32751185367E+02  0.38075417445E+03  0.38987050873E+03  0.00000000000E+00 0.  1.
        -13    1    3    3    0    0 -0.68554907122E+02  0.55522409830E+02 -0.13088143025E+02  0.89184150899E+02  0.00000000000E+00 0. -1.
         13    1    3    3    0    0 -0.18345657783E+03  0.44713858935E+02 -0.14194768954E+03  0.23623037844E+03  0.00000000000E+00 0.  1.
         21    1    1    2  502  501  0.96047204623E+02  0.82059325399E+02  0.95577101349E+02  0.15841016603E+03  0.00000000000E+00 0. -1.
<scales pt_clust_5="13000.00000" pt_clust_6="13000.00000" pt_clust_7="13000.00000" pt_clust_8="13000.00000" pt_clust_9="126.32814"></scales>
<clustering>
<clus scale="   83.162">  5  6 -1 -1</clus>
<clus scale="   91.112">  7  8 -1 -1</clus>
<clus scale="  126.328">  2  9  1 -1</clus>
<clus scale="  253.991">  1  5  2 -1</clus>
<clus scale="  253.991">  1  5  2 -1</clus>
</clustering>
</event>
<event>
 9    1  0.1266593E-005  0.1066638E+03  0.7546771E-02  0.1270957E+00
          2   -1    0    0  502    0  0.00000000000E+00  0.00000000000E+00  0.53754474440E+03  0.53754474440E+03  0.00000000000E+00 0. -1.
         -2   -1    0    0    0  501 -0.00000000000E+00 -0.00000000000E+00 -0.25879746012E+02  0.25879746012E+02  0.00000000000E+00 0.  1.
         23    2    1    2    0    0 -0.23911392163E+02 -0.10784010729E+02  0.21882141147E+03  0.23903636871E+03  0.92560930671E+02 0.  0.
         23    2    1    2    0    0  0.27703117153E+02  0.33944897091E+02  0.27000535848E+03  0.29164077809E+03  0.10115201974E+03 0.  0.
        -11    1    4    4    0    0  0.64056765011E+02  0.32493328688E+02  0.20395326107E+03  0.21623139979E+03  0.00000000000E+00 0.  1.
         11    1    4    4    0    0 -0.36353647858E+02  0.14515684023E+01  0.66052097407E+02  0.75409378298E+02  0.00000000000E+00 0. -1.
        -13    1    3    3    0    0 -0.35954808496E+01  0.32257972586E+02  0.16054664158E+03  0.16379477526E+03  0.00000000000E+00 0.  1.
         13    1    3    3    0    0 -0.20315911313E+02 -0.43041983315E+02  0.58274769882E+02  0.75241593450E+02  0.00000000000E+00 0. -1.
         21    1    1    2  502  501 -0.37917249905E+01 -0.23160886362E+02  0.22838228438E+02  0.32747343612E+02  0.00000000000E+00 0. -1.
<scales pt_clust_5="13000.00000" pt_clust_6="13000.00000" pt_clust_7="13000.00000" pt_clust_8="13000.00000" pt_clust_9="23.46921"></scales>
<clustering>
<clus scale="   23.469">  2  9  1 -1</clus>
<clus scale="   92.561">  7  8 -1 -1</clus>
<clus scale="   98.554">  2  7  1 -1</clus>
<clus scale="  101.152">  5  6 -1 -1</clus>
<clus scale="  106.664">  1  5  2 -1</clus>
</clustering>
</event>
<event>
 9    1  0.1266593E-005  0.1030838E+03  0.7546771E-02  0.1275680E+00
         -1   -1    0    0    0  501 -0.00000000000E+00  0.00000000000E+00  0.10302679639E+03  0.10302679639E+03  0.00000000000E+00 0.  1.
          1   -1    0    0  502    0  0.00000000000E+00 -0.00000000000E+00 -0.15141164271E+03  0.15141164271E+03  0.00000000000E+00 0. -1.
         23    2    1    2    0    0  0.19675822385E+02 -0.14285950028E+02  0.26773623651E+02  0.97115169453E+02  0.90129367355E+02 0.  0.
         23    2    1    2    0    0 -0.33920343717E+02  0.38387203564E+02 -0.72529611612E+02  0.12920409992E+03  0.93856207899E+02 0.  0.
        -11    1    4    4    0    0 -0.37570136792E+02  0.60339973623E+02 -0.22677424099E+02  0.74610275158E+02  0.00000000000E+00 0. -1.
         11    1    4    4    0    0  0.36497930746E+01 -0.21952770059E+02 -0.49852187513E+02  0.54593824766E+02  0.00000000000E+00 0.  1.
        -13    1    3    3    0    0  0.73543066441E+01 -0.37505721487E+02  0.49381217567E+02  0.62444131981E+02  0.00000000000E+00 0.  1.
         13    1    3    3    0    0  0.12321515741E+02  0.23219771459E+02 -0.22607593915E+02  0.34671037472E+02  0.00000000000E+00 0. -1.
         21    1    1    2  502  501  0.14244521332E+02 -0.24101253536E+02 -0.26288583610E+01  0.28119169730E+02  0.00000000000E+00 0.  1.
<scales pt_clust_5="13000.00000" pt_clust_6="13000.00000" pt_clust_7="13000.00000" pt_clust_8="13000.00000" pt_clust_9="27.99601"></scales>
<clustering>
<clus scale="   27.996">  1  9  2 -1</clus>
<clus scale="   90.129">  7  8 -1 -1</clus>
<clus scale="   93.856">  5  6 -1 -1</clus>
<clus scale="   99.702">  1  7  2 -1</clus>
<clus scale="  103.084">  2  5  1 -1</clus>
</clustering>
</event>
<event>
 9    1  0.1266593E-005  0.1204801E+03  0.7546771E-02  0.1248229E+00
         -1   -1    0    0    0  501 -0.00000000000E+00  0.00000000000E+00  0.88838809120E+02  0.88838809120E+02  0.00000000000E+00 0.  1.
          1   -1    0    0  502    0  0.00000000000E+00 -0.00000000000E+00 -0.24533785046E+03  0.24533785046E+03  0.00000000000E+00 0. -1.
         23    2    1    2    0    0  0.64323126272E+02  0.42634824464E+02 -0.76230248232E+02  0.15064548089E+03  0.10453620109E+03 0.  0.
         23    2    1    2    0    0 -0.37410622176E+02 -0.33981799655E+02 -0.10470062006E+03  0.14616713335E+03  0.88590595842E+02 0.  0.
        -11    1    3    3    0    0  0.64383565724E+02 -0.19884427691E+02 -0.41189416328E+02  0.78975958477E+02  0.00000000000E+00 0.  1.
         11    1    3    3    0    0 -0.60439451769E-01  0.62519252155E+02 -0.35040831903E+02  0.71669522417E+02  0.00000000000E+00 0. -1.
        -13    1    4    4    0    0 -0.61946454781E+02 -0.41264892827E+02 -0.89474165726E+02  0.11638634358E+03  0.00000000000E+00 0. -1.
         13    1    4    4    0    0  0.24535832604E+02  0.72830931719E+01 -0.15226454337E+02  0.29780789772E+02  0.00000000000E+00 0.  1.
         21    1    1    2  502  501 -0.26912504096E+02 -0.86530248089E+01  0.24431826957E+02  0.37364045331E+02  0.00000000000E+00 0. -1.
<scales pt_clust_5="13000.00000" pt_clust_6="13000.00000" pt_clust_7="13000.00000" pt_clust_8="13000.00000" pt_clust_9="28.26938"></scales>
<clustering>
<clus scale="   28.269">  1  9  2 -1</clus>
<clus scale="   88.591">  7  8 -1 -1</clus>
<clus scale="  104.536">  5  6 -1 -1</clus>
<clus scale="  106.939">  2  7  1 -1</clus>
<clus scale="  106.939">  2  5  1 -1</clus>
</clustering>
</event>
<event>
 9    1  0.1266593E-005  0.9343811E+02  0.7546771E-02  0.1298207E+00
          2   -1    0    0  502    0  0.00000000000E+00  0.00000000000E+00  0.29447382886E+03  0.29447382886E+03  0.00000000000E+00 0. -1.
         -2   -1    0    0    0  501 -0.00000000000E+00 -0.00000000000E+00 -0.18373722978E+03  0.18373722978E+03  0.00000000000E+00 0.  1.
         23    2    1    2    0    0  0.26876626368E+02  0.20870358084E+02 -0.91091913444E+02  0.13004251282E+03  0.86344620872E+02 0.  0.
         23    2    1    2    0    0 -0.34443674160E+01 -0.13464563968E+02  0.26470289724E+03  0.28066221428E+03  0.92252352632E+02 0.  0.
        -13    1    3    3    0    0  0.10572949957E+02 -0.23261652129E+02  0.21105483321E+01  0.25638762545E+02  0.00000000000E+00 0. -1.
         13    1    3    3    0    0  0.16303676411E+02  0.44132010213E+02 -0.93202461776E+02  0.10440375027E+03  0.00000000000E+00 0.  1.
        -13    1    4    4    0    0  0.22432143927E+02  0.23505961244E+02  0.40300544795E+02  0.51767414519E+02  0.00000000000E+00 0.  1.
         13    1    4    4    0    0 -0.25876511343E+02 -0.36970525212E+02  0.22440235244E+03  0.22889479976E+03  0.00000000000E+00 0. -1.
         21    1    1    2  502  501 -0.23432258952E+02 -0.74057941161E+01 -0.62874384709E+02  0.67506331545E+02  0.00000000000E+00 0. -1.
<scales pt_clust_5="13000.00000" pt_clust_6="13000.00000" pt_clust_7="13000.00000" pt_clust_8="13000.00000" pt_clust_9="24.57471"></scales>
<clustering>
<clus scale="   24.575">  2  9  1 -1</clus>
<clus scale="   86.345">  5  6 -1 -1</clus>
<clus scale="   87.610">  2  5  1 -1</clus>
<clus scale="   92.252">  7  8 -1 -1</clus>
<clus scale="   93.438">  1  5  2 -1</clus>
</clustering>
</event>
<event>
 9    1  0.1266593E-005  0.1219672E+03  0.7546771E-02  0.1242426E+00
          1   -1    0    0  502    0  0.00000000000E+00  0.00000000000E+00  0.69738947314E+02  0.69738947314E+02  0.00000000000E+00 0. -1.
         -1   -1    0    0    0  501 -0.00000000000E+00 -0.00000000000E+00 -0.68109101269E+03  0.68109101269E+03  0.00000000000E+00 0.  1.
         23    2    1    2    0    0  0.65713350739E+02 -0.43797519927E+02 -0.48098693045E+03  0.49448425518E+03  0.83245325038E+02 0.  0.
         23    2    1    2    0    0 -0.35065234361E+02  0.74228571768E+02 -0.42668179789E+01  0.12305601471E+03  0.91570330857E+02 0.  0.
        -11    1    3    3    0    0  0.80690431636E+02 -0.26433141174E+02 -0.43366244280E+03  0.44189678773E+03  0.00000000000E+00 0.  1.
         11    1    3    3    0    0 -0.14977080896E+02 -0.17364378752E+02 -0.47324487647E+02  0.52587467449E+02  0.00000000000E+00 0. -1.
        -13    1    4    4    0    0  0.66744248317E+01  0.67708942513E+02  0.24089566255E+02  0.72175868858E+02  0.00000000000E+00 0. -1.
         13    1    4    4    0    0 -0.41739659192E+02  0.65196292545E+01 -0.28356384234E+02  0.50880145852E+02  0.00000000000E+00 0.  1.
         21    1    1    2  502  501 -0.30648116379E+02 -0.30431051841E+02 -0.12609831695E+03  0.13328969012E+03  0.00000000000E+00 0.  1.
<scales pt_clust_5="13000.00000" pt_clust_6="13000.00000" pt_clust_7="13000.00000" pt_clust_8="13000.00000" pt_clust_9="43.18977"></scales>
<clustering>
<clus scale="   43.190">  2  9  1 -1</clus>
<clus scale="   83.245">  5  6 -1 -1</clus>
<clus scale="   91.570">  7  8 -1 -1</clus>
<clus scale="  115.848">  2  5  1 -1</clus>
<clus scale="  121.967">  1  5  2 -1</clus>
</clustering>
</event>
<event>
 9    1  0.1266593E-005  0.9357653E+02  0.7546771E-02  0.1294988E+00
          1   -1    0    0  502    0  0.00000000000E+00  0.00000000000E+00  0.25635066468E+03  0.25635066468E+03  0.00000000000E+00 0. -1.
         -1   -1    0    0    0  501 -0.00000000000E+00 -0.00000000000E+00 -0.94893370848E+02  0.94893370848E+02  0.00000000000E+00 0.  1.
         23    2    1    2    0    0  0.10780514125E+01  0.54257806272E+01  0.98404995041E+02  0.13459388933E+03  0.91658991407E+02 0.  0.
         23    2    1    2    0    0  0.22994842016E+02  0.18638859277E+02  0.11743714180E+03  0.15249157513E+03  0.92660824398E+02 0.  0.
        -13    1    3    3    0    0  0.48973921191E+01 -0.26166963758E+02  0.99251667210E+02  0.10275985542E+03  0.00000000000E+00 0. -1.
         13    1    3    3    0    0 -0.38193407066E+01  0.31592744385E+02 -0.84667216994E+00  0.31834033910E+02  0.00000000000E+00 0.  1.
        -13    1    4    4    0    0  0.15057026801E+02  0.44191844520E+02  0.11673520871E+03  0.12572486679E+03  0.00000000000E+00 0.  1.
         13    1    4    4    0    0  0.79378152159E+01 -0.25552985244E+02  0.70193309089E+00  0.26766708340E+02  0.00000000000E+00 0. -1.
         21    1    1    2  502  501 -0.24072893429E+02 -0.24064639904E+02 -0.54384843009E+02  0.64158571063E+02  0.00000000000E+00 0. -1.
<scales pt_clust_5="13000.00000" pt_clust_6="13000.00000" pt_clust_7="13000.00000" pt_clust_8="13000.00000" pt_clust_9="34.03838"></scales>
<clustering>
<clus scale="   34.038">  2  9  1 -1</clus>
<clus scale="   91.659">  5  6 -1 -1</clus>
<clus scale="   92.585">  2  5  1 -1</clus>
<clus scale="   92.661">  7  8 -1 -1</clus>
<clus scale="   93.577">  1  5  2 -1</clus>
</clustering>
</event>
<event>
 9    1  0.1266593E-005  0.9498292E+02  0.7546771E-02  0.1291612E+00
          1   -1    0    0  502    0  0.00000000000E+00  0.00000000000E+00  0.14336266689E+03  0.14336266689E+03  0.00000000000E+00 0. -1.
         -1   -1    0    0    0  501 -0.00000000000E+00 -0.00000000000E+00 -0.90994903291E+02  0.90994903291E+02  0.00000000000E+00 0.  1.
         23    2    1    2    0    0 -0.37119970838E+02 -0.14336171834E+02 -0.18191866168E+01  0.10012304304E+03  0.91858022241E+02 0.  0.
         23    2    1    2    0    0  0.15006663567E+02  0.67103794187E+01  0.59731942164E+02  0.11019501790E+03  0.91130718822E+02 0.  0.
        -11    1    4    4    0    0 -0.34414287643E+02  0.19375047483E+02  0.14683318190E+02  0.42134730236E+02  0.00000000000E+00 0.  1.
         11    1    4    4    0    0  0.49420951210E+02 -0.12664668064E+02  0.45048623973E+02  0.68060287669E+02  0.00000000000E+00 0. -1.
        -11    1    3    3    0    0 -0.69017101463E-01  0.30012948117E+02  0.22413431664E+02  0.37458560263E+02  0.00000000000E+00 0. -1.
         11    1    3    3    0    0 -0.37050953737E+02 -0.44349119951E+02 -0.24232618280E+02  0.62664482779E+02  0.00000000000E+00 0.  1.
         21    1    1    2  502  501  0.22113307272E+02  0.76257924151E+01 -0.55449919500E+01  0.24039509233E+02  0.00000000000E+00 0. -1.
<scales pt_clust_5="13000.00000" pt_clust_6="13000.00000" pt_clust_7="13000.00000" pt_clust_8="13000.00000" pt_clust_9="23.39126"></scales>
<clustering>
<clus scale="   23.391">  2  9  1 -1</clus>
<clus scale="   91.131">  5  6 -1 -1</clus>
<clus scale="   91.858">  7  8 -1 -1</clus>
<clus scale="   94.280">  1  5  2 -1</clus>
<clus scale="   94.280">  1  5  2 -1</clus>
</clustering>
</event>
<event>
 9    1  0.1266593E-005  0.3492212E+03  0.7546771E-02  0.1063831E+00
          2   -1    0    0  502    0  0.00000000000E+00  0.00000000000E+00  0.98758135818E+03  0.98758135818E+03  0.00000000000E+00 0. -1.
         -2   -1    0    0    0  501 -0.00000000000E+00 -0.00000000000E+00 -0.38950566411E+03  0.38950566411E+03  0.00000000000E+00 0.  1.
         23    2    1    2    0    0 -0.22709223502E+03  0.37289304896E+03 -0.35443429675E+02  0.44747884807E+03  0.91438359511E+02 0.  0.
         23    2    1    2    0    0  0.14486699225E+03 -0.27571426663E+03  0.70761722764E+03  0.78231514898E+03  0.11954099383E+03 0.  0.
        -11    1    4    4    0    0  0.46961194615E+01 -0.10245016224E+03  0.14901842961E+03  0.18089936884E+03  0.00000000000E+00 0.  1.
         11    1    4    4    0    0  0.14017087279E+03 -0.17326410438E+03  0.55859879803E+03  0.60141578014E+03  0.00000000000E+00 0. -1.
        -13    1    3    3    0    0 -0.61452297029E+02  0.68039243453E+02  0.25628537836E+02  0.95197402336E+02  0.00000000000E+00 0. -1.
         13    1    3    3    0    0 -0.16563993799E+03  0.30485380551E+03 -0.61071967512E+02  0.35228144573E+03  0.00000000000E+00 0.  1.
         21    1    1    2  502  501  0.82225242762E+02 -0.97178782339E+02 -0.74098103890E+02  0.14729302524E+03  0.00000000000E+00 0. -1.
<scales pt_clust_5="13000.00000" pt_clust_6="13000.00000" pt_clust_7="13000.00000" pt_clust_8="13000.00000" pt_clust_9="127.29771"></scales>
<clustering>
<clus scale="   91.438">  7  8 -1 -1</clus>
<clus scale="  119.541">  5  6 -1 -1</clus>
<clus scale="  127.298">  2  9  1 -1</clus>
<clus scale="  340.626">  2  7  1 -1</clus>
<clus scale="  349.221">  1  5  2 -1</clus>
</clustering>
</event>
<event>
 9    1  0.1266593E-005  0.2623138E+03  0.7546771E-02  0.1127274E+00
          2   -1    0    0  502    0  0.00000000000E+00  0.00000000000E+00  0.75240827095E+03  0.75240827095E+03  0.00000000000E+00 0. -1.
         -2   -1    0    0    0  501 -0.00000000000E+00 -0.00000000000E+00 -0.33616963266E+03  0.33616963266E+03  0.00000000000E+00 0.  1.
         23    2    1    2    0    0  0.34744831419E+02  0.11866789903E+03 -0.20198402040E+03  0.25316801994E+03  0.89483117144E+02 0.  0.
         23    2    1    2    0    0  0.18776135705E+03 -0.18306062039E+03  0.50787824125E+03  0.57883374111E+03  0.91338239402E+02 0.  0.
        -11    1    4    4    0    0  0.76073477593E+02 -0.26090849500E+02  0.10497037382E+03  0.13223723303E+03  0.00000000000E+00 0.  1.
         11    1    4    4    0    0  0.11168787945E+03 -0.15696977089E+03  0.40290786744E+03  0.44659650808E+03  0.00000000000E+00 0. -1.
        -13    1    3    3    0    0  0.58542563851E+02  0.94625652572E+02 -0.11586076907E+03  0.16063923467E+03  0.00000000000E+00 0. -1.
         13    1    3    3    0    0 -0.23797732432E+02  0.24042246455E+02 -0.86123251325E+02  0.92528785264E+02  0.00000000000E+00 0.  1.
         21    1    1    2  502  501 -0.22250618847E+03  0.64392721360E+02  0.11034441744E+03  0.25657614256E+03  0.00000000000E+00 0. -1.
<scales pt_clust_5="13000.00000" pt_clust_6="13000.00000" pt_clust_7="13000.00000" pt_clust_8="13000.00000" pt_clust_9="245.89809"></scales>
<clustering>
<clus scale="   89.483">  7  8 -1 -1</clus>
<clus scale="   91.338">  5  6 -1 -1</clus>
<clus scale="  152.632">  2  7  1 -1</clus>
<clus scale="  245.898">  2  9  1 -1</clus>
<clus scale="  262.314">  1  5  2 -1</clus>
</clustering>
</event>
<event>
 9    1  0.1266593E-005  0.1002733E+03  0.7546771E-02  0.1281428E+00
         -2   -1    0    0    0  501 -0.00000000000E+00  0.00000000000E+00  0.51299964746E+02  0.51299964746E+02  0.00000000000E+00 0.  1.
          2   -1    0    0  502    0  0.00000000000E+00 -0.00000000000E+00 -0.38281632404E+03  0.38281632404E+03  0.00000000000E+00 0. -1.
         23    2    1    2    0    0  0.27122647636E+02 -0.18925658566E+01 -0.39042601355E+02  0.10221257673E+03  0.90464724074E+02 0.  0.
         23    2    1    2    0    0 -0.44940779104E+02 -0.16972702858E+02 -0.28917065071E+03  0.30574468512E+03  0.86904550953E+02 0.  0.
        -11    1    4    4    0    0 -0.67391984703E+02 -0.28929975410E+02 -0.20025069172E+03  0.21325797198E+03  0.00000000000E+00 0. -1.
         11    1    4    4    0    0  0.22451205599E+02  0.11957272552E+02 -0.88919958997E+02  0.92486713141E+02  0.00000000000E+00 0.  1.
        -13    1    3    3    0    0  0.31665045411E+02 -0.42822329003E+02 -0.20899958269E+02  0.57212194660E+02  0.00000000000E+00 0.  1.
         13    1    3    3    0    0 -0.45423977758E+01  0.40929763146E+02 -0.18142643086E+02  0.45000382075E+02  0.00000000000E+00 0. -1.
         21    1    1    2  502  501  0.17818131468E+02  0.18865268714E+02 -0.33031072252E+01  0.26159026932E+02  0.00000000000E+00 0.  1.
<scales pt_clust_5="13000.00000" pt_clust_6="13000.00000" pt_clust_7="13000.00000" pt_clust_8="13000.00000" pt_clust_9="25.94965"></scales>
<clustering>
<clus scale="   25.950">  1  9  2 -1</clus>
<clus scale="   86.905">  5  6 -1 -1</clus>
<clus scale="   90.465">  7  8 -1 -1</clus>
<clus scale="   97.074">  2  5  1 -1</clus>
<clus scale="   97.074">  2  5  1 -1</clus>
</clustering>
</event>
<event>
 9    1  0.1266593E-005  0.1138158E+03  0.7546771E-02  0.1253878E+00
          1   -1    0    0  502    0  0.00000000000E+00  0.00000000000E+00  0.33644482321E+03  0.33644482321E+03  0.00000000000E+00 0. -1.
         -1   -1    0    0    0  501 -0.00000000000E+00 -0.00000000000E+00 -0.66792113960E+02  0.66792113960E+02  0.00000000000E+00 0.  1.
         23    2    1    2    0    0 -0.15062618028E+02 -0.56419523837E+02  0.68342295979E+02  0.12749480898E+03  0.90411347553E+02 0.  0.
         23    2    1    2    0    0  0.42581315107E+02  0.61337273987E+02  0.21461318171E+03  0.24478366240E+03  0.91020843978E+02 0.  0.
        -11    1    4    4    0    0 -0.11138561647E+02  0.43885868566E+02  0.15974595736E+03  0.16603857355E+03  0.00000000000E+00 0. -1.
         11    1    4    4    0    0  0.53719876755E+02  0.17451405422E+02  0.54867224355E+02  0.78745088851E+02  0.00000000000E+00 0.  1.
        -11    1    3    3    0    0 -0.25788176251E+02 -0.27647990709E+02  0.84662825874E+02  0.92721278624E+02  0.00000000000E+00 0.  1.
         11    1    3    3    0    0  0.10725558223E+02 -0.28771533127E+02 -0.16320529895E+02  0.34773530361E+02  0.00000000000E+00 0. -1.
         21    1    1    2  502  501 -0.27518697079E+02 -0.49177501507E+01 -0.13302768441E+02  0.30958465784E+02  0.00000000000E+00 0. -1.
<scales pt_clust_5="13000.00000" pt_clust_6="13000.00000" pt_clust_7="13000.00000" pt_clust_8="13000.00000" pt_clust_9="27.95466"></scales>
<clustering>
<clus scale="   27.955">  2  9  1 -1</clus>
<clus scale="   90.411">  7  8 -1 -1</clus>
<clus scale="   91.021">  5  6 -1 -1</clus>
<clus scale="  113.329">  2  7  1 -1</clus>
<clus scale="  113.816">  1  5  2 -1</clus>
</clustering>
</event>
<event>
 9    1  0.1266593E-005  0.1523258E+03  0.7546771E-02  0.1198130E+00
          1   -1    0    0  502    0  0.00000000000E+00  0.00000000000E+00  0.10342056574E+04  0.10342056574E+04  0.00000000000E+00 0. -1.
         -1   -1    0    0    0  501 -0.00000000000E+00 -0.00000000000E+00 -0.35179073812E+02  0.35179073812E+02  0.00000000000E+00 0.  1.
         23    2    1    2    0    0  0.11513918041E+03 -0.28771823677E+02  0.24104582537E+03  0.28386221138E+03  0.91595941074E+02 0.  0.
         23    2    1    2    0    0 -0.10849670667E+03  0.59909881467E+02  0.71992524946E+03  0.73590475239E+03  0.88897190695E+02 0.  0.
        -13    1    4    4    0    0 -0.53530381782E+02 -0.14782943463E+02  0.19094218297E+03  0.19885410337E+03  0.00000000000E+00 0.  1.
         13    1    4    4    0    0 -0.54966324890E+02  0.74692824930E+02  0.52898306650E+03  0.53705064901E+03  0.00000000000E+00 0. -1.
        -13    1    3    3    0    0  0.94899944904E+02 -0.59351198315E+02  0.16428120733E+03  0.19878852926E+03  0.00000000000E+00 0.  1.
         13    1    3    3    0    0  0.20239235503E+02  0.30579374639E+02  0.76764618039E+02  0.85073682121E+02  0.00000000000E+00 0. -1.
         21    1    1    2  502  501 -0.66424737351E+01 -0.31138057790E+02  0.38055508795E+02  0.49617767482E+02  0.00000000000E+00 0.  1.
<scales pt_clust_5="13000.00000" pt_clust_6="13000.00000" pt_clust_7="13000.00000" pt_clust_8="13000.00000" pt_clust_9="31.83867"></scales>
<clustering>
<clus scale="   31.839">  2  9  1 -1</clus>
<clus scale="   88.897">  5  6 -1 -1</clus>
<clus scale="   91.596">  7  8 -1 -1</clus>
<clus scale="  150.718">  1  5  2 -1</clus>
<clus scale="  150.718">  1  5  2 -1</clus>
</clustering>
</event>
<event>
 9    1  0.1266593E-005  0.1142010E+03  0.7546771E-02  0.1253779E+00
         -1   -1    0    0    0  501 -0.00000000000E+00  0.00000000000E+00  0.21804786504E+02  0.21804786504E+02  0.00000000000E+00 0.  1.
          1   -1    0    0  502    0  0.00000000000E+00 -0.00000000000E+00 -0.84173194402E+03  0.84173194402E+03  0.00000000000E+00 0. -1.
         23    2    1    2    0    0  0.56037650988E+02 -0.50344690494E+02 -0.26704047153E+03  0.29249707626E+03  0.92569541405E+02 0.  0.
         23    2    1    2    0    0 -0.33060671730E+02  0.54732404976E+02 -0.51295270453E+03  0.52475881062E+03  0.90347595770E+02 0.  0.
        -11    1    4    4    0    0 -0.42156840955E+02  0.76288182151E+02 -0.39374488033E+03  0.40327672480E+03  0.00000000000E+00 0. -1.
         11    1    4    4    0    0  0.90961692247E+01 -0.21555777175E+02 -0.11920782420E+03  0.12148208582E+03  0.00000000000E+00 0.  1.
        -13    1    3    3    0    0  0.21276344314E+02 -0.26902557971E+02 -0.15766788918E+02  0.37749464706E+02  0.00000000000E+00 0.  1.
         13    1    3    3    0    0  0.34761306674E+02 -0.23442132523E+02 -0.25127368261E+03  0.25474761156E+03  0.00000000000E+00 0. -1.
         21    1    1    2  502  501 -0.22976979258E+02 -0.43877144816E+01 -0.39933981448E+02  0.46280843644E+02  0.00000000000E+00 0.  1.
<scales pt_clust_5="13000.00000" pt_clust_6="13000.00000" pt_clust_7="13000.00000" pt_clust_8="13000.00000" pt_clust_9="23.39217"></scales>
<clustering>
<clus scale="   23.392">  1  9  2 -1</clus>
<clus scale="   90.348">  5  6 -1 -1</clus>
<clus scale="   92.570">  7  8 -1 -1</clus>
<clus scale="  112.407">  2  5  1 -1</clus>
<clus scale="  112.407">  2  5  1 -1</clus>
</clustering>
</event>
<event>
 9    1  0.1266593E-005  0.1240874E+03  0.7546771E-02  0.1237124E+00
         -2   -1    0    0    0  501 -0.00000000000E+00  0.00000000000E+00  0.18056989279E+03  0.18056989279E+03  0.00000000000E+00 0.  1.
          2   -1    0    0  502    0  0.00000000000E+00 -0.00000000000E+00 -0.20305615705E+03  0.20305615705E+03  0.00000000000E+00 0. -1.
         23    2    1    2    0    0 -0.54579583020E+02  0.25841400651E+02  0.81264413724E+00  0.10799426179E+03  0.89528717842E+02 0.  0.
         23    2    1    2    0    0  0.10698959046E+03  0.61947831467E+02 -0.62532116999E+02  0.16611921886E+03  0.91657094252E+02 0.  0.
        -11    1    3    3    0    0  0.18551875044E+02  0.29021109940E+02  0.42953676023E+01  0.34710907113E+02  0.00000000000E+00 0. -1.
         11    1    3    3    0    0 -0.73131458064E+02 -0.31797092887E+01 -0.34827234651E+01  0.73283354675E+02  0.00000000000E+00 0.  1.
        -13    1    4    4    0    0  0.69366178565E+02  0.66337303285E+02 -0.79484860587E+02  0.12462001283E+03  0.00000000000E+00 0. -1.
         13    1    4    4    0    0  0.37623411894E+02 -0.43894718180E+01  0.16952743588E+02  0.41499206023E+02  0.00000000000E+00 0.  1.
         21    1    1    2  502  501 -0.52410007439E+02 -0.87789232118E+02  0.39233208599E+02  0.10951256920E+03  0.00000000000E+00 0.  1.
<scales pt_clust_5="13000.00000" pt_clust_6="13000.00000" pt_clust_7="13000.00000" pt_clust_8="13000.00000" pt_clust_9="102.24362"></scales>
<clustering>
<clus scale="   89.529">  5  6 -1 -1</clus>
<clus scale="   91.657">  7  8 -1 -1</clus>
<clus scale="  102.244">  1  9  2 -1</clus>
<clus scale="  122.524">  1  5  2 -1</clus>
<clus scale="  124.087">  2  5  1 -1</clus>
</clustering>
</event>
<event>
 9    1  0.1266593E-005  0.1659484E+03  0.7546771E-02  0.1182208E+00
         -3   -1    0    0    0  501 -0.00000000000E+00  0.00000000000E+00  0.73869674926E+02  0.73869674926E+02  0.00000000000E+00 0.  1.
          3   -1    0    0  502    0  0.00000000000E+00 -0.00000000000E+00 -0.46322672428E+03  0.46322672428E+03  0.00000000000E+00 0. -1.
         23    2    1    2    0    0 -0.59772059999E+02 -0.13654540441E+03 -0.15993048347E+03  0.23731589948E+03  0.92324048769E+02 0.  0.
         23    2    1    2    0    0  0.64542483844E+02  0.11381589325E+03 -0.22519166994E+03  0.27617283222E+03  0.91871406168E+02 0.  0.
        -11    1    3    3    0    0 -0.80996960321E+02 -0.12848276745E+03 -0.13124732016E+03  0.20073412306E+03  0.00000000000E+00 0.  1.
         11    1    3    3    0    0  0.21224900322E+02 -0.80626369642E+01 -0.28683163311E+02  0.36581776420E+02  0.00000000000E+00 0. -1.
        -13    1    4    4    0    0  0.33504061637E+02  0.31309586711E+02 -0.15004354458E+02  0.48248761838E+02  0.00000000000E+00 0.  1.
         13    1    4    4    0    0  0.31038422206E+02  0.82506306539E+02 -0.21018731548E+03  0.22792407039E+03  0.00000000000E+00 0. -1.
         21    1    1    2  502  501 -0.47704238448E+01  0.22729511161E+02 -0.42348959461E+01  0.23607667503E+02  0.00000000000E+00 0.  1.
<scales pt_clust_5="13000.00000" pt_clust_6="13000.00000" pt_clust_7="13000.00000" pt_clust_8="13000.00000" pt_clust_9="23.22472"></scales>
<clustering>
<clus scale="   23.225">  1  9  2 -1</clus>
<clus scale="   91.871">  7  8 -1 -1</clus>
<clus scale="   92.324">  5  6 -1 -1</clus>
<clus scale="  165.697">  2  7  1 -1</clus>
<clus scale="  165.697">  2  5  1 -1</clus>
</clustering>
</event>
<event>
 9    1  0.1266593E-005  0.9687509E+02  0.7546771E-02  0.1288431E+00
          2   -1    0    0  502    0  0.00000000000E+00  0.00000000000E+00  0.23941130055E+03  0.23941130055E+03  0.00000000000E+00 0. -1.
         -2   -1    0    0    0  501 -0.00000000000E+00 -0.00000000000E+00 -0.63145579678E+02  0.63145579678E+02  0.00000000000E+00 0.  1.
         23    2    1    2    0    0  0.85989550610E+01 -0.30255672613E+02  0.56069601514E+02  0.11268680439E+03  0.92548192398E+02 0.  0.
         23    2    1    2    0    0 -0.40512114903E+02 -0.33741561511E+00  0.60773123815E+02  0.11580605477E+03  0.89868372850E+02 0.  0.
        -11    1    4    4    0    0 -0.63450088143E+02  0.20072037923E+02  0.50103529565E+02  0.83301645041E+02  0.00000000000E+00 0.  1.
         11    1    4    4    0    0  0.22937973240E+02 -0.20409453538E+02  0.10669594251E+02  0.32504409724E+02  0.00000000000E+00 0. -1.
        -11    1    3    3    0    0  0.26531394308E+02  0.14624612844E+02  0.56774217194E+02  0.64351425180E+02  0.00000000000E+00 0. -1.
         11    1    3    3    0    0 -0.17932439247E+02 -0.44880285456E+02 -0.70461568028E+00  0.48335379209E+02  0.00000000000E+00 0.  1.
         21    1    1    2  502  501  0.31913159842E+02  0.30593088228E+02  0.59422995542E+02  0.74064021073E+02  0.00000000000E+00 0. -1.
<scales pt_clust_5="13000.00000" pt_clust_6="13000.00000" pt_clust_7="13000.00000" pt_clust_8="13000.00000" pt_clust_9="44.20845"></scales>
<clustering>
<clus scale="   44.208">  1  9  2 -1</clus>
<clus scale="   89.868">  5  6 -1 -1</clus>
<clus scale="   92.548">  7  8 -1 -1</clus>
<clus scale="   94.318">  1  5  2 -1</clus>
<clus scale="   44.208">  1  5  2 -1</clus>
</clustering>
</event>
<event>
 9    1  0.1266593E-005  0.1058954E+03  0.7546771E-02  0.1277077E+00
         -3   -1    0    0    0  501 -0.00000000000E+00  0.00000000000E+00  0.62301376456E+02  0.62301376456E+02  0.00000000000E+00 0.  1.
          3   -1    0    0  502    0  0.00000000000E+00 -0.00000000000E+00 -0.20314548213E+03  0.20314548213E+03  0.00000000000E+00 0. -1.
         23    2    1    2    0    0  0.98983282603E+01  0.18211349481E+02 -0.51851736801E+02  0.10517431862E+03  0.89125779301E+02 0.  0.
         23    2    1    2    0    0  0.62400068038E+01  0.89344160576E+00 -0.83353769892E+02  0.13463598990E+03  0.10554270651E+03 0.  0.
        -13    1    4    4    0    0  0.40259704807E+02  0.17769200092E+02 -0.10789690267E+01  0.44019910009E+02  0.00000000000E+00 0.  1.
         13    1    4    4    0    0 -0.34019698003E+02 -0.16875758486E+02 -0.82274800865E+02  0.90616079887E+02  0.00000000000E+00 0. -1.
        -13    1    3    3    0    0  0.45797289062E+02 -0.73966769707E+01 -0.34384608029E+02  0.57744296558E+02  0.00000000000E+00 0.  1.
         13    1    3    3    0    0 -0.35898960802E+02  0.25608026452E+02 -0.17467128772E+02  0.47430022064E+02  0.00000000000E+00 0. -1.
         21    1    1    2  502  501 -0.16138335064E+02 -0.19104791087E+02 -0.56385989842E+01  0.25636550073E+02  0.00000000000E+00 0.  1.
<scales pt_clust_5="13000.00000" pt_clust_6="13000.00000" pt_clust_7="13000.00000" pt_clust_8="13000.00000" pt_clust_9="25.00878"></scales>
<clustering>
<clus scale="   25.009">  1  9  2 -1</clus>
<clus scale="   89.126">  7  8 -1 -1</clus>
<clus scale="   89.543">  1  7  2 -1</clus>
<clus scale="  105.543">  5  6 -1 -1</clus>
<clus scale="  105.895">  2  5  1 -1</clus>
</clustering>
</event>
<event>
 9    1  0.1266593E-005  0.1694702E+03  0.7546771E-02  0.1178576E+00
         -4   -1    0    0    0  501 -0.00000000000E+00  0.00000000000E+00  0.33987424237E+03  0.33987424237E+03  0.00000000000E+00 0.  1.
          4   -1    0    0  502    0  0.00000000000E+00 -0.00000000000E+00 -0.12837278639E+03  0.12837278639E+03  0.00000000000E+00 0. -1.
         23    2    1    2    0    0 -0.13178833653E+03  0.60802359384E+02  0.10280657668E+03  0.19979613174E+03  0.91017632908E+02 0.  0.
         23    2    1    2    0    0  0.14665792547E+03  0.32531693087E+01  0.10493626087E+03  0.20258480070E+03  0.92248861313E+02 0.  0.
        -11    1    3    3    0    0 -0.93066798531E+02 -0.25352694609E+01  0.78207124584E+02  0.12159034055E+03  0.00000000000E+00 0.  1.
         11    1    3    3    0    0 -0.38721537998E+02  0.63337628845E+02  0.24599452094E+02  0.78205791192E+02  0.00000000000E+00 0. -1.
        -13    1    4    4    0    0  0.59383076037E+02 -0.44125895378E+02  0.44742952553E+02  0.86460257724E+02  0.00000000000E+00 0.  1.
         13    1    4    4    0    0  0.87274849433E+02  0.47379064687E+02  0.60193308318E+02  0.11612454297E+03  0.00000000000E+00 0. -1.
         21    1    1    2  502  501 -0.14869588941E+02 -0.64055528693E+02  0.37586184306E+01  0.65866096316E+02  0.00000000000E+00 0.  1.
<scales pt_clust_5="13000.00000" pt_clust_6="13000.00000" pt_clust_7="13000.00000" pt_clust_8="13000.00000" pt_clust_9="65.75877"></scales>
<clustering>
<clus scale="   65.759">  2  9  1 -1</clus>
<clus scale="   91.018">  5  6 -1 -1</clus>
<clus scale="   92.249">  7  8 -1 -1</clus>
<clus scale="  168.803">  1  5  2 -1</clus>
<clus scale="   65.759">  2  5  1 -1</clus>
</clustering>
</event>
<event>
 9    1  0.1266593E-005  0.1004072E+03  0.7546771E-02  0.1281008E+00
         -1   -1    0    0    0  501 -0.00000000000E+00  0.00000000000E+00  0.68670553406E+02  0.68670553406E+02  0.00000000000E+00 0.  1.
          1   -1    0    0  502    0  0.00000000000E+00 -0.00000000000E+00 -0.38410918594E+03  0.38410918594E+03  0.00000000000E+00 0. -1.
         23    2    1    2    0    0  0.22683884093E+02  0.87155560247E+02 -0.10707655600E+03  0.16695804880E+03  0.91098578108E+02 0.  0.
         23    2    1    2    0    0  0.10859948453E+02 -0.26495955754E+02 -0.19422395047E+03  0.21507804824E+03  0.87838771308E+02 0.  0.
        -11    1    3    3    0    0  0.18955629783E+02  0.21416496189E+02 -0.96023237599E+02  0.10019203745E+03  0.00000000000E+00 0.  1.
         11    1    3    3    0    0  0.37282543102E+01  0.65739064058E+02 -0.11053318403E+02  0.66766011347E+02  0.00000000000E+00 0. -1.
        -13    1    4    4    0    0  0.23165386533E+02  0.10028198734E+02 -0.10473934124E+02  0.27329529800E+02  0.00000000000E+00 0. -1.
         13    1    4    4    0    0 -0.12305438080E+02 -0.36524154488E+02 -0.18375001635E+03  0.18774851844E+03  0.00000000000E+00 0.  1.
         21    1    1    2  502  501 -0.33543832545E+02 -0.60659604493E+02 -0.14138126061E+02  0.70743642313E+02  0.00000000000E+00 0.  1.
<scales pt_clust_5="13000.00000" pt_clust_6="13000.00000" pt_clust_7="13000.00000" pt_clust_8="13000.00000" pt_clust_9="69.31649"></scales>
<clustering>
<clus scale="   69.316">  1  9  2 -1</clus>
<clus scale="   87.839">  7  8 -1 -1</clus>
<clus scale="   91.099">  5  6 -1 -1</clus>
<clus scale="   97.459">  2  7  1 -1</clus>
<clus scale="   97.459">  2  5  1 -1</clus>
</clustering>
</event>
<event>
 9    1  0.1266593E-005  0.1150676E+03  0.7546771E-02  0.1251540E+00
          1   -1    0    0  502    0  0.00000000000E+00  0.00000000000E+00  0.83212855341E+03  0.83212855341E+03  0.00000000000E+00 0. -1.
         -1   -1    0    0    0  501 -0.00000000000E+00 -0.00000000000E+00 -0.29250386462E+02  0.29250386462E+02  0.00000000000E+00 0.  1.
         23    2    1    2    0    0  0.32968717809E+02 -0.15784746957E+02  0.13868257405E+03  0.17012223525E+03  0.91502043643E+02 0.  0.
         23    2    1    2    0    0 -0.49691596239E+02  0.71023744583E+02  0.53619162979E+03  0.55084297277E+03  0.91721806358E+02 0.  0.
        -11    1    4    4    0    0  0.18011792582E+02  0.44431838786E+02  0.13874440540E+03  0.14679449241E+03  0.00000000000E+00 0. -1.
         11    1    4    4    0    0 -0.67703388821E+02  0.26591905797E+02  0.39744722439E+03  0.40404848036E+03  0.00000000000E+00 0.  1.
        -13    1    3    3    0    0 -0.16657352876E+02  0.26351340528E+02  0.63006372452E+02  0.70296966663E+02  0.00000000000E+00 0.  1.
         13    1    3    3    0    0  0.49626070685E+02 -0.42136087485E+02  0.75676201603E+02  0.99825268591E+02  0.00000000000E+00 0. -1.
         21    1    1    2  502  501  0.16722878429E+02 -0.55238997626E+02  0.12800396310E+03  0.14041373185E+03  0.00000000000E+00 0. -1.
<scales pt_clust_5="13000.00000" pt_clust_6="13000.00000" pt_clust_7="13000.00000" pt_clust_8="13000.00000" pt_clust_9="57.71483"></scales>
<clustering>
<clus scale="   57.715">  2  9  1 -1</clus>
<clus scale="   91.502">  7  8 -1 -1</clus>
<clus scale="   91.722">  5  6 -1 -1</clus>
<clus scale="  114.892">  2  7  1 -1</clus>
<clus scale="  115.068">  1  5  2 -1</clus>
</clustering>
</event>
<event>
 9    1  0.1266593E-005  0.1396671E+03  0.7546771E-02  0.1231750E+00
         -3   -1    0    0    0  501 -0.00000000000E+00  0.00000000000E+00  0.78513352555E+03  0.78513352555E+03  0.00000000000E+00 0.  1.
          3   -1    0    0  502    0  0.00000000000E+00 -0.00000000000E+00 -0.73769467894E+02  0.73769467894E+02  0.00000000000E+00 0. -1.
         23    2    1    2    0    0  0.97380133690E+02 -0.68971787087E+01  0.58679714743E+02  0.14539278122E+03  0.90361996416E+02 0.  0.
         23    2    1    2    0    0  0.83303700683E+01  0.28359959997E+02  0.64692734124E+02  0.11570631998E+03  0.91264013923E+02 0.  0.
        -11    1    4    4    0    0 -0.39955296736E+02  0.15169074016E+02  0.15325851722E+02  0.45402734222E+02  0.00000000000E+00 0.  1.
         11    1    4    4    0    0  0.48285666805E+02  0.13190885980E+02  0.49366882403E+02  0.70303585754E+02  0.00000000000E+00 0. -1.
        -11    1    3    3    0    0  0.10396571506E+03 -0.30592381333E+02  0.46131637189E+02  0.11778324012E+03  0.00000000000E+00 0. -1.
         11    1    3    3    0    0 -0.65855813684E+01  0.23695202624E+02  0.12548077554E+02  0.27609541098E+02  0.00000000000E+00 0.  1.
         21    1    1    2  502  501 -0.10571050376E+03 -0.21462781288E+02  0.58799160879E+03  0.59780389225E+03  0.00000000000E+00 0.  1.
<scales pt_clust_5="13000.00000" pt_clust_6="13000.00000" pt_clust_7="13000.00000" pt_clust_8="13000.00000" pt_clust_9="106.49696"></scales>
<clustering>
<clus scale="   90.362">  7  8 -1 -1</clus>
<clus scale="   91.264">  5  6 -1 -1</clus>
<clus scale="   95.931">  2  5  1 -1</clus>
<clus scale="  106.497">  1  9  2 -1</clus>
<clus scale="   95.931">  2  5  1 -1</clus>
</clustering>
</event>
<event>
 9    1  0.1266593E-005  0.9673638E+02  0.7546771E-02  0.1288677E+00
         -3   -1    0    0    0  501 -0.00000000000E+00  0.00000000000E+00  0.15016708046E+03  0.15016708046E+03  0.00000000000E+00 0.  1.
          3   -1    0    0  502    0  0.00000000000E+00 -0.00000000000E+00 -0.10984772050E+03  0.10984772050E+03  0.00000000000E+00 0. -1.
         23    2    1    2    0    0  0.31673155338E+02 -0.32845761352E+01  0.79920845395E+02  0.12620382459E+03  0.92336810664E+02 0.  0.
         23    2    1    2    0    0 -0.13899468549E+02  0.26965001595E+02 -0.42908637455E+02  0.10401829695E+03  0.89768303962E+02 0.  0.
        -11    1    3    3    0    0  0.13729176252E+02  0.34353101603E+02  0.75747831451E+02  0.84299227991E+02  0.00000000000E+00 0. -1.
         11    1    3    3    0    0  0.17943979086E+02 -0.37637677739E+02  0.41730139445E+01  0.41904596602E+02  0.00000000000E+00 0.  1.
        -11    1    4    4    0    0  0.23350632407E+02 -0.17829620126E+01  0.16194234395E+02  0.28472516836E+02  0.00000000000E+00 0.  1.
         11    1    4    4    0    0 -0.37250100956E+02  0.28747963608E+02 -0.59102871850E+02  0.75545780119E+02  0.00000000000E+00 0. -1.
         21    1    1    2  502  501 -0.17773686789E+02 -0.23680425460E+02  0.33071520261E+01  0.29792679412E+02  0.00000000000E+00 0.  1.
<scales pt_clust_5="13000.00000" pt_clust_6="13000.00000" pt_clust_7="13000.00000" pt_clust_8="13000.00000" pt_clust_9="29.60855"></scales>
<clustering>
<clus scale="   29.609">  2  9  1 -1</clus>
<clus scale="   89.768">  7  8 -1 -1</clus>
<clus scale="   92.337">  5  6 -1 -1</clus>
<clus scale="   94.288">  2  7  1 -1</clus>
<clus scale="   29.609">  2  5  1 -1</clus>
</clustering>
</event>
<event>
 9    1  0.3381815E-005  0.1119560E+03  0.7546771E-02  0.1258260E+00
         -1   -1    0    0    0  501 -0.00000000000E+00  0.00000000000E+00  0.77962660125E+02  0.77962660125E+02  0.00000000000E+00 0.  1.
          1   -1    0    0  502    0  0.00000000000E+00 -0.00000000000E+00 -0.59576209823E+03  0.59576209823E+03  0.00000000000E+00 0. -1.
         23    2    1    2    0    0  0.61833930371E+02  0.57242022877E+02  0.45075329006E+01  0.12342375720E+03  0.90072314620E+02 0.  0.
         23    2    1    2    0    0 -0.44241624257E+02 -0.39968201034E+02 -0.51152555027E+03  0.52339164983E+03  0.93411199148E+02 0.  0.
        -11    1    4    4    0    0  0.23703282026E+02  0.10751843780E+02 -0.11915329198E+03  0.12196292352E+03  0.00000000000E+00 0.  1.
         11    1    4    4    0    0 -0.67944906284E+02 -0.50720044814E+02 -0.39237225828E+03  0.40142872631E+03  0.00000000000E+00 0. -1.
        -13    1    3    3    0    0  0.58665661929E+02 -0.12218008727E+01 -0.16931666116E+02  0.61072366947E+02  0.00000000000E+00 0. -1.
         13    1    3    3    0    0  0.31682684416E+01  0.58463823750E+02  0.21439199017E+02  0.62351390256E+02  0.00000000000E+00 0.  1.
         21    1    1    2  502  501 -0.17592306114E+02 -0.17273821843E+02 -0.10781420742E+02  0.26909351324E+02  0.00000000000E+00 0. -1.
<scales pt_clust_5="13000.00000" pt_clust_6="13000.00000" pt_clust_7="13000.00000" pt_clust_8="13000.00000" pt_clust_9="24.65510"></scales>
<clustering>
<clus scale="   24.655">  1  9  2 -1</clus>
<clus scale="   90.072">  7  8 -1 -1</clus>
<clus scale="   93.411">  5  6 -1 -1</clus>
<clus scale="  109.186">  1  7  2 -1</clus>
<clus scale="  111.956">  2  5  1 -1</clus>
</clustering>
</event>
<event>
 9    1  0.1266593E-005  0.9461024E+02  0.7546771E-02  0.1296374E+00
          1   -1    0    0  502    0  0.00000000000E+00  0.00000000000E+00  0.39392537372E+03  0.39392537372E+03  0.00000000000E+00 0. -1.
         -1   -1    0    0    0  501 -0.00000000000E+00 -0.00000000000E+00 -0.68244440926E+02  0.68244440926E+02  0.00000000000E+00 0.  1.
         23    2    1    2    0    0 -0.53685125867E+02  0.33134834552E+02  0.76865408871E+02  0.13559247655E+03  0.92179274329E+02 0.  0.
         23    2    1    2    0    0  0.47936817349E+00  0.32247908480E+02  0.21927447925E+03  0.23725528562E+03  0.84667679259E+02 0.  0.
        -11    1    4    4    0    0 -0.28155931871E+02 -0.15508488764E+02  0.11015562049E+03  0.11474986034E+03  0.00000000000E+00 0.  1.
         11    1    4    4    0    0  0.28635300044E+02  0.47756397243E+02  0.10911885876E+03  0.12250542528E+03  0.00000000000E+00 0. -1.
        -11    1    3    3    0    0 -0.33670737787E+02 -0.17219843426E+02 -0.42357046980E+01  0.38054996847E+02  0.00000000000E+00 0.  1.
         11    1    3    3    0    0 -0.20014388080E+02  0.50354677979E+02  0.81101113569E+02  0.97537479702E+02  0.00000000000E+00 0. -1.
         21    1    1    2  502  501  0.53205757693E+02 -0.65382743032E+02  0.29541044678E+02  0.89322052477E+02  0.00000000000E+00 0.  1.
<scales pt_clust_5="13000.00000" pt_clust_6="13000.00000" pt_clust_7="13000.00000" pt_clust_8="13000.00000" pt_clust_9="84.29564"></scales>
<clustering>
<clus scale="   84.296">  2  9  1 -1</clus>
<clus scale="   84.668">  5  6 -1 -1</clus>
<clus scale="   87.308">  1  5  2 -1</clus>
<clus scale="   92.179">  7  8 -1 -1</clus>
<clus scale="   87.308">  1  5  2 -1</clus>
</clustering>
</event>
<event>
 9    1  0.1266593E-005  0.1287217E+03  0.7546771E-02  0.1231686E+00
         -2   -1    0    0    0  501 -0.00000000000E+00  0.00000000000E+00  0.25830351950E+03  0.25830351950E+03  0.00000000000E+00 0.  1.
          2   -1    0    0  502    0  0.00000000000E+00 -0.00000000000E+00 -0.12845366116E+03  0.12845366116E+03  0.00000000000E+00 0. -1.
         23    2    1    2    0    0  0.37665652078E+02  0.87228060166E+02  0.91327981393E+02  0.16590619067E+03  0.10078009769E+03 0.  0.
         23    2    1    2    0    0 -0.41509277881E+02 -0.63344818429E+02 -0.49379659922E+02  0.12968157143E+03  0.92969742300E+02 0.  0.
        -11    1    3    3    0    0 -0.16372475327E+02  0.54285957700E+02  0.85172662009E+02  0.10232011291E+03  0.00000000000E+00 0.  1.
         11    1    3    3    0    0  0.54038127405E+02  0.32942102466E+02  0.61553193832E+01  0.63586077761E+02  0.00000000000E+00 0. -1.
        -13    1    4    4    0    0 -0.67390447405E+02 -0.35051613081E+02 -0.13467641287E+02  0.77145740925E+02  0.00000000000E+00 0.  1.
         13    1    4    4    0    0  0.25881169524E+02 -0.28293205348E+02 -0.35912018634E+02  0.52535830508E+02  0.00000000000E+00 0. -1.
         21    1    1    2  502  501  0.38436258027E+01 -0.23883241737E+02  0.87901536873E+02  0.91169418555E+02  0.00000000000E+00 0.  1.
<scales pt_clust_5="13000.00000" pt_clust_6="13000.00000" pt_clust_7="13000.00000" pt_clust_8="13000.00000" pt_clust_9="24.19055"></scales>
<clustering>
<clus scale="   24.191">  1  9  2 -1</clus>
<clus scale="   92.970">  7  8 -1 -1</clus>
<clus scale="  100.780">  5  6 -1 -1</clus>
<clus scale="  122.703">  2  7  1 -1</clus>
<clus scale="  122.703">  2  5  1 -1</clus>
</clustering>
</event>
<event>
 9    1  0.1266593E-005  0.9793486E+02  0.7546771E-02  0.1285658E+00
          1   -1    0    0  502    0  0.00000000000E+00  0.00000000000E+00  0.28107295547E+03  0.28107295547E+03  0.00000000000E+00 0. -1.
         -1   -1    0    0    0  501 -0.00000000000E+00 -0.00000000000E+00 -0.52177039804E+02  0.52177039804E+02  0.00000000000E+00 0.  1.
         23    2    1    2    0    0  0.26685417806E+02 -0.22637314784E+01  0.38753770638E+02  0.10050453532E+03  0.88781027686E+02 0.  0.
         23    2    1    2    0    0 -0.36200104565E+02  0.21327486832E+02  0.18584096252E+03  0.21100940228E+03  0.90679629662E+02 0.  0.
        -11    1    4    4    0    0  0.28561711152E+02  0.17360640902E+02  0.46118392574E+02  0.56956732087E+02  0.00000000000E+00 0.  1.
         11    1    4    4    0    0 -0.64761815717E+02  0.39668459303E+01  0.13972256995E+03  0.15405267020E+03  0.00000000000E+00 0. -1.
        -13    1    3    3    0    0 -0.32817889750E+02 -0.25121825571E+01  0.98767113979E+01  0.34363852765E+02  0.00000000000E+00 0. -1.
         13    1    3    3    0    0  0.59503307556E+02  0.24845107871E+00  0.28877059240E+02  0.66140682552E+02  0.00000000000E+00 0.  1.
         21    1    1    2  502  501  0.95146867585E+01 -0.19063755354E+02  0.43011825087E+01  0.21736057675E+02  0.00000000000E+00 0. -1.
<scales pt_clust_5="13000.00000" pt_clust_6="13000.00000" pt_clust_7="13000.00000" pt_clust_8="13000.00000" pt_clust_9="21.30624"></scales>
<clustering>
<clus scale="   21.306">  2  9  1 -1</clus>
<clus scale="   88.781">  7  8 -1 -1</clus>
<clus scale="   90.680">  5  6 -1 -1</clus>
<clus scale="   96.180">  2  7  1 -1</clus>
<clus scale="   97.935">  1  5  2 -1</clus>
</clustering>
</event>
<event>
 9    1  0.1266593E-005  0.1650578E+03  0.7546771E-02  0.1183330E+00
         -1   -1    0    0    0  501 -0.00000000000E+00  0.00000000000E+00  0.11006038145E+03  0.11006038145E+03  0.00000000000E+00 0.  1.
          1   -1    0    0  502    0  0.00000000000E+00 -0.00000000000E+00 -0.85376619650E+03  0.85376619650E+03  0.00000000000E+00 0. -1.
         23    2    1    2    0    0  0.13809103267E+03 -0.98827379818E+01  0.25110703547E+02  0.16821621822E+03  0.92191902176E+02 0.  0.
         23    2    1    2    0    0 -0.11874135729E+03  0.34629377972E+02 -0.72866369656E+03  0.74462942952E+03  0.90683520371E+02 0.  0.
        -11    1    4    4    0    0 -0.12561131173E+03  0.98155120221E+01 -0.64088831443E+03  0.65315570692E+03  0.00000000000E+00 0. -1.
         11    1    4    4    0    0  0.68699544382E+01  0.24813865949E+02 -0.87775382133E+02  0.91473722598E+02  0.00000000000E+00 0.  1.
        -13    1    3    3    0    0  0.52261441028E+02  0.25695520638E+02 -0.24159617869E+02  0.63049227868E+02  0.00000000000E+00 0. -1.
         13    1    3    3    0    0  0.85829591640E+02 -0.35578258620E+02  0.49270321416E+02  0.10516699035E+03  0.00000000000E+00 0.  1.
         21    1    1    2  502  501 -0.19349675380E+02 -0.24746639990E+02 -0.40152822034E+02  0.50980930213E+02  0.00000000000E+00 0. -1.
<scales pt_clust_5="13000.00000" pt_clust_6="13000.00000" pt_clust_7="13000.00000" pt_clust_8="13000.00000" pt_clust_9="31.41347"></scales>
<clustering>
<clus scale="   31.413">  2  9  1 -1</clus>
<clus scale="   90.684">  5  6 -1 -1</clus>
<clus scale="   92.192">  7  8 -1 -1</clus>
<clus scale="  164.220">  2  5  1 -1</clus>
<clus scale="   31.413">  2  5  1 -1</clus>
</clustering>
</event>
<event>
 9    1  0.1266593E-005  0.1920964E+03  0.7546771E-02  0.1156941E+00
         -1   -1    0    0    0  501 -0.00000000000E+00  0.00000000000E+00  0.66474204285E+02  0.66474204285E+02  0.00000000000E+00 0.  1.
          1   -1    0    0  502    0  0.00000000000E+00 -0.00000000000E+00 -0.63538989440E+03  0.63538989440E+03  0.00000000000E+00 0. -1.
         23    2    1    2    0    0 -0.33745898861E+02  0.16257195930E+03 -0.21943350926E+03  0.29025126281E+03  0.92337982092E+02 0.  0.
         23    2    1    2    0    0  0.12809242327E+02 -0.17191958658E+03 -0.30299384347E+03  0.35977764285E+03  0.88962139013E+02 0.  0.
        -11    1    3    3    0    0 -0.51533505475E+01  0.83181588875E+02 -0.17735241557E+03  0.19595819211E+03  0.00000000000E+00 0. -1.
         11    1    3    3    0    0 -0.28592548313E+02  0.79390370421E+02 -0.42081093695E+02  0.94293070696E+02  0.00000000000E+00 0.  1.
        -13    1    4    4    0    0 -0.32244356989E+02 -0.83298483393E+02 -0.18537349016E+03  0.20577090841E+03  0.00000000000E+00 0.  1.
         13    1    4    4    0    0  0.45053599316E+02 -0.88621103191E+02 -0.11762035331E+03  0.15400673444E+03  0.00000000000E+00 0. -1.
         21    1    1    2  502  501  0.20936656534E+02  0.93476272874E+01 -0.46488337384E+02  0.51835193021E+02  0.00000000000E+00 0. -1.
<scales pt_clust_5="13000.00000" pt_clust_6="13000.00000" pt_clust_7="13000.00000" pt_clust_8="13000.00000" pt_clust_9="22.92862"></scales>
<clustering>
<clus scale="   22.929">  2  9  1 -1</clus>
<clus scale="   88.962">  7  8 -1 -1</clus>
<clus scale="   92.338">  5  6 -1 -1</clus>
<clus scale="  190.497">  2  7  1 -1</clus>
<clus scale="   22.929">  2  5  1 -1</clus>
</clustering>
</event>
<event>
 9    1  0.1266593E-005  0.1016478E+03  0.7546771E-02  0.1277138E+00
         -1   -1    0    0    0  501 -0.00000000000E+00  0.00000000000E+00  0.51843757074E+02  0.51843757074E+02  0.00000000000E+00 0.  1.
          1   -1    0    0  502    0  0.00000000000E+00 -0.00000000000E+00 -0.49965330166E+03  0.49965330166E+03  0.00000000000E+00 0. -1.
         23    2    1    2    0    0  0.39582314565E+02 -0.60623039203E+02 -0.25352001794E+03  0.28003119374E+03  0.94356544347E+02 0.  0.
         23    2    1    2    0    0  0.88745931569E+01  0.76574912511E+01 -0.17112024062E+03  0.19603220546E+03  0.94916243344E+02 0.  0.
        -13    1    3    3    0    0  0.12033334960E+02 -0.82609881286E+02 -0.17058551851E+03  0.18991738405E+03  0.00000000000E+00 0. -1.
         13    1    3    3    0    0  0.27548979605E+02  0.21986842082E+02 -0.82934499426E+02  0.90113809691E+02  0.00000000000E+00 0.  1.
        -13    1    4    4    0    0  0.22195837253E+02 -0.35148556518E+02 -0.12492429206E+03  0.13165923804E+03  0.00000000000E+00 0. -1.
         13    1    4    4    0    0 -0.13321244096E+02  0.42806047769E+02 -0.46195948566E+02  0.64372967415E+02  0.00000000000E+00 0.  1.
         21    1    1    2  502  501 -0.48456907722E+02  0.52965547952E+02 -0.23169286019E+02  0.75433659532E+02  0.00000000000E+00 0.  1.
<scales pt_clust_5="13000.00000" pt_clust_6="13000.00000" pt_clust_7="13000.00000" pt_clust_8="13000.00000" pt_clust_9="71.78733"></scales>
<clustering>
<clus scale="   71.787">  1  9  2 -1</clus>
<clus scale="   94.357">  5  6 -1 -1</clus>
<clus scale="   94.916">  7  8 -1 -1</clus>
<clus scale="  101.125">  1  5  2 -1</clus>
<clus scale="  101.648">  2  5  1 -1</clus>
</clustering>
</event>
<event>
 9    1  0.1266593E-005  0.1500518E+03  0.7546771E-02  0.1202101E+00
          2   -1    0    0  502    0  0.00000000000E+00  0.00000000000E+00  0.10922024325E+04  0.10922024325E+04  0.00000000000E+00 0. -1.
         -2   -1    0    0    0  501 -0.00000000000E+00 -0.00000000000E+00 -0.27159629483E+02  0.27159629483E+02  0.00000000000E+00 0.  1.
         23    2    1    2    0    0 -0.10671632860E+02 -0.11488246731E+03  0.29518042413E+03  0.32961255542E+03  0.90559863403E+02 0.  0.
         23    2    1    2    0    0 -0.16377841189E+02  0.10819020485E+03  0.67151886413E+03  0.68753450121E+03  0.98958331481E+02 0.  0.
        -11    1    4    4    0    0 -0.52167851955E+02  0.88799801629E+02  0.54444266902E+03  0.55409810449E+03  0.00000000000E+00 0. -1.
         11    1    4    4    0    0  0.35790010766E+02  0.19390403220E+02  0.12707619511E+03  0.13343639672E+03  0.00000000000E+00 0.  1.
        -11    1    3    3    0    0 -0.35935015447E+02 -0.10515227233E+03  0.18202573231E+03  0.21326437334E+03  0.00000000000E+00 0.  1.
         11    1    3    3    0    0  0.25263382587E+02 -0.97301949785E+01  0.11315469182E+03  0.11634818208E+03  0.00000000000E+00 0. -1.
         21    1    1    2  502  501  0.27049474050E+02  0.66922624596E+01  0.98343514747E+02  0.10221500534E+03  0.00000000000E+00 0. -1.
<scales pt_clust_5="13000.00000" pt_clust_6="13000.00000" pt_clust_7="13000.00000" pt_clust_8="13000.00000" pt_clust_9="27.86504"></scales>
<clustering>
<clus scale="   27.865">  1  9  2 -1</clus>
<clus scale="   90.560">  7  8 -1 -1</clus>
<clus scale="   98.958">  5  6 -1 -1</clus>
<clus scale="  144.651">  2  7  1 -1</clus>
<clus scale="   27.865">  1  5  2 -1</clus>
</clustering>
</event>
<event>
 9    1  0.1266593E-005  0.9971643E+02  0.7546771E-02  0.1281820E+00
          2   -1    0    0  502    0  0.00000000000E+00  0.00000000000E+00  0.50821188726E+03  0.50821188726E+03  0.00000000000E+00 0. -1.
         -2   -1    0    0    0  501 -0.00000000000E+00 -0.00000000000E+00 -0.25406200013E+02  0.25406200013E+02  0.00000000000E+00 0.  1.
         23    2    1    2    0    0 -0.42988375885E+01 -0.50051669735E+02  0.20420380409E+03  0.22948252928E+03  0.91866141711E+02 0.  0.
         23    2    1    2    0    0  0.14268984194E+02  0.28494224509E+02  0.24542274440E+03  0.26333136070E+03  0.89975315051E+02 0.  0.
        -11    1    4    4    0    0  0.20736042862E+02 -0.29890526491E+02  0.83407579268E+02  0.90995886318E+02  0.00000000000E+00 0.  1.
         11    1    4    4    0    0 -0.64670586679E+01  0.58384751001E+02  0.16201516514E+03  0.17233547439E+03  0.00000000000E+00 0. -1.
        -13    1    3    3    0    0 -0.18001022831E+02 -0.74502638770E+02  0.14708536612E+03  0.16585772497E+03  0.00000000000E+00 0.  1.
         13    1    3    3    0    0  0.13702185243E+02  0.24450969035E+02  0.57118437971E+02  0.63624804309E+02  0.00000000000E+00 0. -1.
         21    1    1    2  502  501 -0.99701466060E+01  0.21557445226E+02  0.33179138753E+02  0.40804197289E+02  0.00000000000E+00 0.  1.
<scales pt_clust_5="13000.00000" pt_clust_6="13000.00000" pt_clust_7="13000.00000" pt_clust_8="13000.00000" pt_clust_9="23.75136"></scales>
<clustering>
<clus scale="   23.751">  2  9  1 -1</clus>
<clus scale="   89.975">  5  6 -1 -1</clus>
<clus scale="   91.866">  7  8 -1 -1</clus>
<clus scale="   97.977">  1  5  2 -1</clus>
<clus scale="   97.977">  1  5  2 -1</clus>
</clustering>
</event>
<event>
 9    1  0.1266593E-005  0.1947081E+03  0.7546771E-02  0.1154344E+00
          1   -1    0    0  502    0  0.00000000000E+00  0.00000000000E+00  0.29878526888E+03  0.29878526888E+03  0.00000000000E+00 0. -1.
         -1   -1    0    0    0  501 -0.00000000000E+00 -0.00000000000E+00 -0.14896861565E+03  0.14896861565E+03  0.00000000000E+00 0.  1.
         23    2    1    2    0    0 -0.81703743273E+02 -0.13705432872E+03  0.58658730087E+02  0.19329022327E+03  0.91983004467E+02 0.  0.
         23    2    1    2    0    0  0.88300323451E+02  0.16255850168E+03  0.62623275368E+02  0.21562806119E+03  0.91386938711E+02 0.  0.
        -11    1    3    3    0    0 -0.99920550331E+02 -0.12456429378E+03  0.61290688353E+02  0.17104656717E+03  0.00000000000E+00 0. -1.
         11    1    3    3    0    0  0.18216807058E+02 -0.12490034939E+02 -0.26319582664E+01  0.22243656095E+02  0.00000000000E+00 0.  1.
        -13    1    4    4    0    0  0.62009045923E+02  0.83998432631E+02 -0.10756238442E+02  0.10495977861E+03  0.00000000000E+00 0.  1.
         13    1    4    4    0    0  0.26291277528E+02  0.78560069046E+02  0.73379513810E+02  0.11066828258E+03  0.00000000000E+00 0. -1.
         21    1    1    2  502  501 -0.65965801773E+01 -0.25504172961E+02  0.28534647776E+02  0.38835600061E+02  0.00000000000E+00 0. -1.
<scales pt_clust_5="13000.00000" pt_clust_6="13000.00000" pt_clust_7="13000.00000" pt_clust_8="13000.00000" pt_clust_9="26.34346"></scales>
<clustering>
<clus scale="   26.343">  1  9  2 -1</clus>
<clus scale="   91.387">  7  8 -1 -1</clus>
<clus scale="   91.983">  5  6 -1 -1</clus>
<clus scale="  194.427">  1  7  2 -1</clus>
<clus scale="   26.343">  1  5  2 -1</clus>
</clustering>
</event>
<event>
 9    1  0.1266593E-005  0.1764719E+03  0.7546771E-02  0.1171872E+00
         -1   -1    0    0    0  501 -0.00000000000E+00  0.00000000000E+00  0.30605956137E+03  0.30605956137E+03  0.00000000000E+00 0.  1.
          1   -1    0    0  502    0  0.00000000000E+00 -0.00000000000E+00 -0.18825550954E+03  0.18825550954E+03  0.00000000000E+00 0. -1.
         23    2    1    2    0    0 -0.98691435913E+02  0.11641379594E+03  0.16583667235E+03  0.24364081302E+03  0.92557400928E+02 0.  0.
         23    2    1    2    0    0  0.74188414551E+02 -0.13058208501E+03 -0.93202575587E+02  0.19736888001E+03  0.87818864267E+02 0.  0.
        -13    1    4    4    0    0  0.98911802224E+01 -0.66636540651E+02 -0.49953667215E-01  0.67366657120E+02  0.00000000000E+00 0.  1.
         13    1    4    4    0    0  0.64297234329E+02 -0.63945544357E+02 -0.93152621920E+02  0.13000222289E+03  0.00000000000E+00 0. -1.
        -13    1    3    3    0    0 -0.42451381448E+02  0.61771716503E+01  0.86741836148E+02  0.96769950784E+02  0.00000000000E+00 0. -1.
         13    1    3    3    0    0 -0.56240054465E+02  0.11023662429E+03  0.79094836204E+02  0.14687086224E+03  0.00000000000E+00 0.  1.
         21    1    1    2  502  501  0.24503021361E+02  0.14168289069E+02  0.45169955057E+02  0.53305377880E+02  0.00000000000E+00 0.  1.
<scales pt_clust_5="13000.00000" pt_clust_6="13000.00000" pt_clust_7="13000.00000" pt_clust_8="13000.00000" pt_clust_9="28.30439"></scales>
<clustering>
<clus scale="   28.304">  1  9  2 -1</clus>
<clus scale="   87.819">  5  6 -1 -1</clus>
<clus scale="   92.557">  7  8 -1 -1</clus>
<clus scale="  174.033">  2  5  1 -1</clus>
<clus scale="  174.033">  2  5  1 -1</clus>
</clustering>
</event>
<event>
 9    1  0.1266593E-005  0.1027210E+03  0.7546771E-02  0.1276071E+00
         -1   -1    0    0    0  501 -0.00000000000E+00  0.00000000000E+00  0.99701627727E+02  0.99701627727E+02  0.00000000000E+00 0.  1.
          1   -1    0    0  502    0  0.00000000000E+00 -0.00000000000E+00 -0.15000970689E+03  0.15000970689E+03  0.00000000000E+00 0. -1.
         23    2    1    2    0    0  0.38903436137E+02  0.32229301786E+02 -0.16175555229E+02  0.10644856160E+03  0.92289991019E+02 0.  0.
         23    2    1    2    0    0 -0.30399494446E+02 -0.90941947294E+01 -0.51789834758E+02  0.11294230422E+03  0.95220499153E+02 0.  0.
        -13    1    4    4    0    0  0.24454814379E+02  0.76430334249E+01  0.11017720177E+02  0.27889855936E+02  0.00000000000E+00 0. -1.
         13    1    4    4    0    0 -0.54854308825E+02 -0.16737228154E+02 -0.62807554935E+02  0.85052448288E+02  0.00000000000E+00 0.  1.
        -13    1    3    3    0    0  0.18308539907E+02 -0.12798021426E+02  0.30899406675E+02  0.38128274532E+02  0.00000000000E+00 0.  1.
         13    1    3    3    0    0  0.20594896230E+02  0.45027323212E+02 -0.47074961904E+02  0.68320287065E+02  0.00000000000E+00 0. -1.
         21    1    1    2  502  501 -0.85039416909E+01 -0.23135107056E+02  0.17657310821E+02  0.30320468800E+02  0.00000000000E+00 0.  1.
<scales pt_clust_5="13000.00000" pt_clust_6="13000.00000" pt_clust_7="13000.00000" pt_clust_8="13000.00000" pt_clust_9="24.64853"></scales>
<clustering>
<clus scale="   24.649">  1  9  2 -1</clus>
<clus scale="   92.290">  7  8 -1 -1</clus>
<clus scale="   95.220">  5  6 -1 -1</clus>
<clus scale="  100.010">  1  7  2 -1</clus>
<clus scale="  102.721">  2  5  1 -1</clus>
</clustering>
</event>
<event>
 9    1  0.1266593E-005  0.1032541E+03  0.7546771E-02  0.1274068E+00
         -3   -1    0    0    0  501 -0.00000000000E+00  0.00000000000E+00  0.48702314502E+03  0.48702314502E+03  0.00000000000E+00 0.  1.
          3   -1    0    0  502    0  0.00000000000E+00 -0.00000000000E+00 -0.52269804218E+02  0.52269804218E+02  0.00000000000E+00 0. -1.
         23    2    1    2    0    0 -0.35002329002E+02  0.18438248135E+02  0.30782205592E+03  0.32365551080E+03  0.91833215825E+02 0.  0.
         23    2    1    2    0    0  0.28166639551E+02 -0.40664203018E+02  0.18863297456E+02  0.10509599993E+03  0.90787709633E+02 0.  0.
        -11    1    3    3    0    0 -0.50374592854E+02  0.44638253883E+02  0.17730998602E+03  0.18965496160E+03  0.00000000000E+00 0.  1.
         11    1    3    3    0    0  0.15372263852E+02 -0.26200005748E+02  0.13051206990E+03  0.13400054920E+03  0.00000000000E+00 0. -1.
        -13    1    4    4    0    0  0.28427505784E+02  0.10952632884E+02 -0.23375400913E+02  0.38399122647E+02  0.00000000000E+00 0.  1.
         13    1    4    4    0    0 -0.26086623358E+00 -0.51616835903E+02  0.42238698370E+02  0.66696877286E+02  0.00000000000E+00 0. -1.
         21    1    1    2  502  501  0.68356894515E+01  0.22225954884E+02  0.10806798742E+03  0.11054143851E+03  0.00000000000E+00 0.  1.
<scales pt_clust_5="13000.00000" pt_clust_6="13000.00000" pt_clust_7="13000.00000" pt_clust_8="13000.00000" pt_clust_9="23.25338"></scales>
<clustering>
<clus scale="   23.253">  1  9  2 -1</clus>
<clus scale="   90.788">  7  8 -1 -1</clus>
<clus scale="   91.833">  5  6 -1 -1</clus>
<clus scale="  102.325">  2  7  1 -1</clus>
<clus scale="  102.325">  2  5  1 -1</clus>
</clustering>
</event>
<event>
 9    1  0.1266593E-005  0.9410971E+02  0.7546771E-02  0.1294699E+00
          1   -1    0    0  502    0  0.00000000000E+00  0.00000000000E+00  0.10055376537E+03  0.10055376537E+03  0.00000000000E+00 0. -1.
         -1   -1    0    0    0  501 -0.00000000000E+00 -0.00000000000E+00 -0.47487878872E+03  0.47487878872E+03  0.00000000000E+00 0.  1.
         23    2    1    2    0    0 -0.20391869274E+02  0.54434798236E+02 -0.20300087036E+03  0.22977104410E+03  0.90589203259E+02 0.  0.
         23    2    1    2    0    0  0.70886625053E+00  0.21396294865E+02  0.52091699210E+02  0.10890759070E+03  0.93214882183E+02 0.  0.
        -11    1    4    4    0    0 -0.24571068167E+02 -0.70234459189E+01 -0.16539919160E+02  0.30440681813E+02  0.00000000000E+00 0.  1.
         11    1    4    4    0    0  0.25279934417E+02  0.28419740784E+02  0.68631618370E+02  0.78466908888E+02  0.00000000000E+00 0. -1.
        -13    1    3    3    0    0 -0.16137271623E+02  0.78647866081E+02 -0.13053964460E+03  0.15325304952E+03  0.00000000000E+00 0. -1.
         13    1    3    3    0    0 -0.42545976504E+01 -0.24213067845E+02 -0.72461225761E+02  0.76517994579E+02  0.00000000000E+00 0.  1.
         21    1    1    2  502  501  0.19683003023E+02 -0.75831093101E+02 -0.22341585220E+03  0.23675391930E+03  0.00000000000E+00 0.  1.
<scales pt_clust_5="13000.00000" pt_clust_6="13000.00000" pt_clust_7="13000.00000" pt_clust_8="13000.00000" pt_clust_9="78.34396"></scales>
<clustering>
<clus scale="   78.344">  2  9  1 -1</clus>
<clus scale="   90.589">  7  8 -1 -1</clus>
<clus scale="   91.510">  2  7  1 -1</clus>
<clus scale="   93.215">  5  6 -1 -1</clus>
<clus scale="   94.110">  1  5  2 -1</clus>
</clustering>
</event>
<event>
 9    1  0.1266593E-005  0.1434213E+03  0.7546771E-02  0.1208861E+00
          1   -1    0    0  502    0  0.00000000000E+00  0.00000000000E+00  0.64805555683E+02  0.64805555683E+02  0.00000000000E+00 0. -1.
         -1   -1    0    0    0  501 -0.00000000000E+00 -0.00000000000E+00 -0.59638481156E+03  0.59638481156E+03  0.00000000000E+00 0.  1.
         23    2    1    2    0    0  0.11644206615E+03  0.74295244904E+02 -0.23297133408E+03  0.28589617182E+03  0.91555668144E+02 0.  0.
         23    2    1    2    0    0 -0.94229390627E+02 -0.26804399116E+02 -0.93621188337E+02  0.16370888336E+03  0.91858683399E+02 0.  0.
        -11    1    3    3    0    0  0.12304459482E+03  0.48140732639E+02 -0.21834809319E+03  0.25521244533E+03  0.00000000000E+00 0.  1.
         11    1    3    3    0    0 -0.66025286675E+01  0.26154512266E+02 -0.14623240895E+02  0.30683726484E+02  0.00000000000E+00 0. -1.
        -11    1    4    4    0    0 -0.10329295748E+03 -0.31016007809E+01 -0.53842325626E+02  0.11652489443E+03  0.00000000000E+00 0. -1.
         11    1    4    4    0    0  0.90635668544E+01 -0.23702798335E+02 -0.39778862712E+02  0.47183988933E+02  0.00000000000E+00 0.  1.
         21    1    1    2  502  501 -0.22212675527E+02 -0.47490845788E+02 -0.20498673346E+03  0.21158531207E+03  0.00000000000E+00 0. -1.
<scales pt_clust_5="13000.00000" pt_clust_6="13000.00000" pt_clust_7="13000.00000" pt_clust_8="13000.00000" pt_clust_9="52.42884"></scales>
<clustering>
<clus scale="   52.429">  2  9  1 -1</clus>
<clus scale="   91.556">  5  6 -1 -1</clus>
<clus scale="   91.859">  7  8 -1 -1</clus>
<clus scale="  143.227">  2  5  1 -1</clus>
<clus scale="  143.421">  1  5  2 -1</clus>
</clustering>
</event>
<event>
 9    1  0.1266593E-005  0.1060479E+03  0.7546771E-02  0.1268411E+00
         -2   -1    0    0    0  501 -0.00000000000E+00  0.00000000000E+00  0.21085261285E+03  0.21085261285E+03  0.00000000000E+00 0.  1.
          2   -1    0    0  502    0  0.00000000000E+00 -0.00000000000E+00 -0.10629522585E+03  0.10629522585E+03  0.00000000000E+00 0. -1.
         23    2    1    2    0    0  0.50847620640E+02 -0.15697032126E+02  0.11045867667E+02  0.10576298261E+03  0.90729928661E+02 0.  0.
         23    2    1    2    0    0 -0.55914453430E+02 -0.15490253533E+02 -0.44302661481E+01  0.10847269489E+03  0.91544110798E+02 0.  0.
        -11    1    4    4    0    0  0.68634411740E+01 -0.33510535574E+02  0.18945692086E+02  0.39102456033E+02  0.00000000000E+00 0. -1.
         11    1    4    4    0    0 -0.62777894604E+02  0.18020282041E+02 -0.23375958234E+02  0.69370238857E+02  0.00000000000E+00 0.  1.
        -13    1    3    3    0    0 -0.60986537899E+01  0.29304216922E+02  0.14165954643E+02  0.33115026474E+02  0.00000000000E+00 0.  1.
         13    1    3    3    0    0  0.56946274429E+02 -0.45001249048E+02 -0.31200869757E+01  0.72647956131E+02  0.00000000000E+00 0. -1.
         21    1    1    2  502  501  0.50668327904E+01  0.31187285659E+02  0.97941785483E+02  0.10291216121E+03  0.00000000000E+00 0.  1.
<scales pt_clust_5="13000.00000" pt_clust_6="13000.00000" pt_clust_7="13000.00000" pt_clust_8="13000.00000" pt_clust_9="31.59620"></scales>
<clustering>
<clus scale="   31.596">  1  9  2 -1</clus>
<clus scale="   90.730">  7  8 -1 -1</clus>
<clus scale="   91.544">  5  6 -1 -1</clus>
<clus scale="  105.346">  1  7  2 -1</clus>
<clus scale="  106.048">  2  5  1 -1</clus>
</clustering>
</event>
<event>
 9    1  0.1266593E-005  0.1001373E+03  0.7546771E-02  0.1280534E+00
          2   -1    0    0  502    0  0.00000000000E+00  0.00000000000E+00  0.17970795487E+03  0.17970795487E+03  0.00000000000E+00 0. -1.
         -2   -1    0    0    0  501 -0.00000000000E+00 -0.00000000000E+00 -0.16838233920E+03  0.16838233920E+03  0.00000000000E+00 0.  1.
         23    2    1    2    0    0  0.49000661232E+00 -0.99599435183E+01  0.11570640073E+02  0.91473781077E+02  0.90189424721E+02 0.  0.
         23    2    1    2    0    0  0.53178858643E+02  0.36414015793E+02  0.93298738688E+02  0.14557327524E+03  0.91285005726E+02 0.  0.
        -13    1    3    3    0    0  0.19626070541E+02  0.20091857167E+02  0.37900322132E+02  0.47173083289E+02  0.00000000000E+00 0. -1.
         13    1    3    3    0    0 -0.19136063929E+02 -0.30051800686E+02 -0.26329682059E+02  0.44300697788E+02  0.00000000000E+00 0.  1.
        -13    1    4    4    0    0  0.14095185142E+02  0.58826355223E+02  0.76414346318E+02  0.97459564109E+02  0.00000000000E+00 0. -1.
         13    1    4    4    0    0  0.39083673501E+02 -0.22412339430E+02  0.16884392370E+02  0.48113711131E+02  0.00000000000E+00 0.  1.
         21    1    1    2  502  501 -0.53668865255E+02 -0.26454072275E+02 -0.93543763095E+02  0.11104323776E+03  0.00000000000E+00 0.  1.
<scales pt_clust_5="13000.00000" pt_clust_6="13000.00000" pt_clust_7="13000.00000" pt_clust_8="13000.00000" pt_clust_9="59.83448"></scales>
<clustering>
<clus scale="   59.834">  2  9  1 -1</clus>
<clus scale="   90.189">  5  6 -1 -1</clus>
<clus scale="   91.285">  7  8 -1 -1</clus>
<clus scale="   99.140">  2  5  1 -1</clus>
<clus scale="  100.137">  1  5  2 -1</clus>
</clustering>
</event>
<event>
 9    1  0.1266593E-005  0.2755571E+03  0.7546771E-02  0.1098263E+00
         -1   -1    0    0    0  501 -0.00000000000E+00  0.00000000000E+00  0.47513328298E+03  0.47513328298E+03  0.00000000000E+00 0.  1.
          1   -1    0    0  502    0  0.00000000000E+00 -0.00000000000E+00 -0.29715449358E+03  0.29715449358E+03  0.00000000000E+00 0. -1.
         23    2    1    2    0    0  0.19212245445E+03  0.18089309950E+03  0.22815418513E+03  0.36001817865E+03  0.89024748318E+02 0.  0.
         23    2    1    2    0    0 -0.17272151997E+03 -0.19291782549E+03 -0.14785506633E+03  0.31195853999E+03  0.91689689592E+02 0.  0.
        -11    1    4    4    0    0 -0.29924831258E+02 -0.84969512200E+02 -0.20832087842E+02  0.92462367551E+02  0.00000000000E+00 0.  1.
         11    1    4    4    0    0 -0.14279668871E+03 -0.10794831330E+03 -0.12702297849E+03  0.21949617244E+03  0.00000000000E+00 0. -1.
        -13    1    3    3    0    0  0.21816024234E+02 -0.55310410143E+01  0.37047502514E+02  0.43347996154E+02  0.00000000000E+00 0. -1.
         13    1    3    3    0    0  0.17030643022E+03  0.18642414051E+03  0.19110668261E+03  0.31667018249E+03  0.00000000000E+00 0.  1.
         21    1    1    2  502  501 -0.19400934482E+02  0.12024725999E+02  0.97679670601E+02  0.10031105793E+03  0.00000000000E+00 0. -1.
<scales pt_clust_5="13000.00000" pt_clust_6="13000.00000" pt_clust_7="13000.00000" pt_clust_8="13000.00000" pt_clust_9="22.82521"></scales>
<clustering>
<clus scale="   22.825">  1  9  2 -1</clus>
<clus scale="   89.025">  7  8 -1 -1</clus>
<clus scale="   91.690">  5  6 -1 -1</clus>
<clus scale="  274.682">  1  7  2 -1</clus>
<clus scale="  275.557">  2  5  1 -1</clus>
</clustering>
</event>
<event>
 9    1  0.1266593E-005  0.2195144E+03  0.7546771E-02  0.1134754E+00
         -3   -1    0    0    0  501 -0.00000000000E+00  0.00000000000E+00  0.79267977223E+03  0.79267977223E+03  0.00000000000E+00 0.  1.
          3   -1    0    0  502    0  0.00000000000E+00 -0.00000000000E+00 -0.12592073385E+03  0.12592073385E+03  0.00000000000E+00 0. -1.
         23    2    1    2    0    0  0.20472536510E+03 -0.43811095149E+02  0.52064870808E+03  0.56869825781E+03  0.92253693899E+02 0.  0.
         23    2    1    2    0    0 -0.19571830958E+03  0.24065031497E+02  0.13369146822E+02  0.21539850902E+03  0.85632944341E+02 0.  0.
        -11    1    3    3    0    0  0.13042505663E+03 -0.45212493375E+02  0.42925737283E+03  0.45090659464E+03  0.00000000000E+00 0.  1.
         11    1    3    3    0    0  0.74300308466E+02  0.14013982260E+01  0.91391335249E+02  0.11779166318E+03  0.00000000000E+00 0. -1.
        -13    1    4    4    0    0 -0.13196772594E+03  0.33981992252E+02 -0.27508360172E+02  0.13902146009E+03  0.00000000000E+00 0. -1.
         13    1    4    4    0    0 -0.63750583645E+02 -0.99169607549E+01  0.40877506995E+02  0.76377048933E+02  0.00000000000E+00 0.  1.
         21    1    1    2  502  501 -0.90070555163E+01  0.19746063653E+02  0.13274118348E+03  0.13450373924E+03  0.00000000000E+00 0.  1.
<scales pt_clust_5="13000.00000" pt_clust_6="13000.00000" pt_clust_7="13000.00000" pt_clust_8="13000.00000" pt_clust_9="21.70332"></scales>
<clustering>
<clus scale="   21.703">  1  9  2 -1</clus>
<clus scale="   85.633">  7  8 -1 -1</clus>
<clus scale="   92.254">  5  6 -1 -1</clus>
<clus scale="  216.815">  2  7  1 -1</clus>
<clus scale="  216.815">  2  5  1 -1</clus>
</clustering>
</event>
<event>
 9    1  0.1266593E-005  0.9661141E+02  0.7546771E-02  0.1287728E+00
          1   -1    0    0  502    0  0.00000000000E+00  0.00000000000E+00  0.21974462893E+03  0.21974462893E+03  0.00000000000E+00 0. -1.
         -1   -1    0    0    0  501 -0.00000000000E+00 -0.00000000000E+00 -0.28264791102E+03  0.28264791102E+03  0.00000000000E+00 0.  1.
         23    2    1    2    0    0 -0.48176290869E+01  0.13108290210E+02 -0.34197374245E+02  0.99143275224E+02  0.92004846582E+02 0.  0.
         23    2    1    2    0    0 -0.23119155409E+02  0.30253785829E+02  0.17058269615E+03  0.19739329264E+03  0.91738044713E+02 0.  0.
        -11    1    3    3    0    0  0.26906846805E+02  0.41527729922E+02 -0.25520560914E+02  0.55676115048E+02  0.00000000000E+00 0. -1.
         11    1    3    3    0    0 -0.31724475892E+02 -0.28419439713E+02 -0.86768133313E+01  0.43467160176E+02  0.00000000000E+00 0.  1.
        -13    1    4    4    0    0 -0.55040451370E+02  0.37407937832E+02  0.11100830479E+03  0.12942816089E+03  0.00000000000E+00 0. -1.
         13    1    4    4    0    0  0.31921295962E+02 -0.71541520028E+01  0.59574391362E+02  0.67965131743E+02  0.00000000000E+00 0.  1.
         21    1    1    2  502  501  0.27936784496E+02 -0.43362076039E+02 -0.19928860400E+03  0.20585597210E+03  0.00000000000E+00 0.  1.
<scales pt_clust_5="13000.00000" pt_clust_6="13000.00000" pt_clust_7="13000.00000" pt_clust_8="13000.00000" pt_clust_9="51.58230"></scales>
<clustering>
<clus scale="   51.582">  2  9  1 -1</clus>
<clus scale="   91.738">  7  8 -1 -1</clus>
<clus scale="   92.005">  5  6 -1 -1</clus>
<clus scale="   96.357">  1  7  2 -1</clus>
<clus scale="   96.357">  1  5  2 -1</clus>
</clustering>
</event>
<event>
 9    1  0.1266593E-005  0.9264616E+02  0.7546771E-02  0.1296710E+00
         -1   -1    0    0    0  501 -0.00000000000E+00  0.00000000000E+00  0.86606027767E+02  0.86606027767E+02  0.00000000000E+00 0.  1.
          1   -1    0    0  502    0  0.00000000000E+00 -0.00000000000E+00 -0.29556632805E+03  0.29556632805E+03  0.00000000000E+00 0. -1.
         23    2    1    2    0    0  0.47220905303E+02 -0.38838317562E+02 -0.36884457248E+02  0.11664294717E+03  0.92232776866E+02 0.  0.
         23    2    1    2    0    0  0.85711219109E+01 -0.22196082943E+02 -0.15389429284E+03  0.18086231284E+03  0.91986915416E+02 0.  0.
        -13    1    4    4    0    0 -0.38938983157E+02 -0.53856241885E+01 -0.98069643163E+02  0.10565464622E+03  0.00000000000E+00 0. -1.
         13    1    4    4    0    0  0.47510105068E+02 -0.16810458754E+02 -0.55824649678E+02  0.75207666622E+02  0.00000000000E+00 0.  1.
        -13    1    3    3    0    0  0.46294501314E+02 -0.67513243854E+02 -0.29541623191E+02  0.87028308316E+02  0.00000000000E+00 0.  1.
         13    1    3    3    0    0  0.92640398882E+00  0.28674926292E+02 -0.73428340569E+01  0.29614638850E+02  0.00000000000E+00 0. -1.
         21    1    1    2  502  501 -0.55792027214E+02  0.61034400505E+02 -0.18181550193E+02  0.84667095811E+02  0.00000000000E+00 0. -1.
<scales pt_clust_5="13000.00000" pt_clust_6="13000.00000" pt_clust_7="13000.00000" pt_clust_8="13000.00000" pt_clust_9="82.69189"></scales>
<clustering>
<clus scale="   82.692">  1  9  2 -1</clus>
<clus scale="   91.987">  5  6 -1 -1</clus>
<clus scale="   92.233">  7  8 -1 -1</clus>
<clus scale="   92.401">  2  5  1 -1</clus>
<clus scale="   92.401">  2  5  1 -1</clus>
</clustering>
</event>
<event>
 9    1  0.1266593E-005  0.9812046E+02  0.7546771E-02  0.1284671E+00
         -2   -1    0    0    0  501 -0.00000000000E+00  0.00000000000E+00  0.94801951979E+02  0.94801951979E+02  0.00000000000E+00 0.  1.
          2   -1    0    0  502    0  0.00000000000E+00 -0.00000000000E+00 -0.20112260079E+03  0.20112260079E+03  0.00000000000E+00 0. -1.
         23    2    1    2    0    0  0.14769771295E+01 -0.47988889575E+02 -0.66642243624E+02  0.12090403160E+03  0.88721368559E+02 0.  0.
         23    2    1    2    0    0  0.20067614587E+02  0.34513730012E+02 -0.81298878982E+02  0.12625564450E+03  0.87960635116E+02 0.  0.
        -11    1    3    3    0    0  0.35605443419E+02  0.25638749426E+01 -0.86275291300E+01  0.36725404214E+02  0.00000000000E+00 0.  1.
         11    1    3    3    0    0 -0.34128466289E+02 -0.50552764517E+02 -0.58014714494E+02  0.84178627391E+02  0.00000000000E+00 0. -1.
        -13    1    4    4    0    0  0.17052701547E+02  0.13742708797E+02 -0.97381386647E+02  0.99813782317E+02  0.00000000000E+00 0. -1.
         13    1    4    4    0    0  0.30149130400E+01  0.20771021215E+02  0.16082507665E+02  0.26441862184E+02  0.00000000000E+00 0.  1.
         21    1    1    2  502  501 -0.21544591716E+02  0.13475159563E+02  0.41620473793E+02  0.48764876665E+02  0.00000000000E+00 0.  1.
<scales pt_clust_5="13000.00000" pt_clust_6="13000.00000" pt_clust_7="13000.00000" pt_clust_8="13000.00000" pt_clust_9="25.41160"></scales>
<clustering>
<clus scale="   25.412">  1  9  2 -1</clus>
<clus scale="   87.961">  7  8 -1 -1</clus>
<clus scale="   88.721">  5  6 -1 -1</clus>
<clus scale="   97.433">  2  7  1 -1</clus>
<clus scale="   97.433">  2  5  1 -1</clus>
</clustering>
</event>
<event>
 9    1  0.1266593E-005  0.1039232E+03  0.7546771E-02  0.1273374E+00
         -2   -1    0    0    0  501 -0.00000000000E+00  0.00000000000E+00  0.24806687326E+03  0.24806687326E+03  0.00000000000E+00 0.  1.
          2   -1    0    0  502    0  0.00000000000E+00 -0.00000000000E+00 -0.11241804028E+03  0.11241804028E+03  0.00000000000E+00 0. -1.
         23    2    1    2    0    0 -0.24655452663E+01 -0.11824834079E+02  0.79354015593E+02  0.12069686546E+03  0.90137494564E+02 0.  0.
         23    2    1    2    0    0  0.17433372615E+02  0.56725809355E+02 -0.51943050809E+02  0.12165435455E+03  0.92628081729E+02 0.  0.
        -11    1    3    3    0    0 -0.26522596289E+01 -0.51115154969E+02  0.38773475044E+02  0.64211960846E+02  0.00000000000E+00 0.  1.
         11    1    3    3    0    0  0.18671436257E+00  0.39290320890E+02  0.40580540549E+02  0.56484904612E+02  0.00000000000E+00 0. -1.
        -11    1    4    4    0    0  0.38050775090E+02  0.66212404555E+02 -0.60470906190E+02  0.97409827520E+02  0.00000000000E+00 0. -1.
         11    1    4    4    0    0 -0.20617402476E+02 -0.94865952004E+01  0.85278553805E+01  0.24244527026E+02  0.00000000000E+00 0.  1.
         21    1    1    2  502  501 -0.14967827348E+02 -0.44900975276E+02  0.10823786820E+03  0.11813369354E+03  0.00000000000E+00 0.  1.
<scales pt_clust_5="13000.00000" pt_clust_6="13000.00000" pt_clust_7="13000.00000" pt_clust_8="13000.00000" pt_clust_9="47.33005"></scales>
<clustering>
<clus scale="   47.330">  1  9  2 -1</clus>
<clus scale="   90.137">  5  6 -1 -1</clus>
<clus scale="   92.628">  7  8 -1 -1</clus>
<clus scale="  101.710">  1  5  2 -1</clus>
<clus scale="  103.923">  2  5  1 -1</clus>
</clustering>
</event>
<event>
 9    1  0.1266593E-005  0.1138401E+03  0.7546771E-02  0.1253973E+00
          1   -1    0    0  502    0  0.00000000000E+00  0.00000000000E+00  0.74803108980E+02  0.74803108980E+02  0.00000000000E+00 0. -1.
         -1   -1    0    0    0  501 -0.00000000000E+00 -0.00000000000E+00 -0.24179640193E+03  0.24179640193E+03  0.00000000000E+00 0.  1.
         23    2    1    2    0    0 -0.69094980343E+02  0.33345349439E+02 -0.10806930119E+03  0.16151824986E+03  0.92320867306E+02 0.  0.
         23    2    1    2    0    0  0.35798752194E+02 -0.44574442462E+02 -0.50213105379E+02  0.11887890090E+03  0.91336769965E+02 0.  0.
        -11    1    3    3    0    0 -0.68423920919E+02  0.57643119340E+02 -0.10345807996E+03  0.13677768996E+03  0.00000000000E+00 0.  1.
         11    1    3    3    0    0 -0.67105942442E+00 -0.24297769901E+02 -0.46112212255E+01  0.24740559899E+02  0.00000000000E+00 0. -1.
        -13    1    4    4    0    0 -0.29531558873E+02 -0.78065741633E+01 -0.39838004513E+01  0.30804646332E+02  0.00000000000E+00 0.  1.
         13    1    4    4    0    0  0.65330311067E+02 -0.36767868299E+02 -0.46229304928E+02  0.88074254566E+02  0.00000000000E+00 0. -1.
         21    1    1    2  502  501  0.33296228149E+02  0.11229093023E+02 -0.87108863833E+01  0.36202360153E+02  0.00000000000E+00 0.  1.
<scales pt_clust_5="13000.00000" pt_clust_6="13000.00000" pt_clust_7="13000.00000" pt_clust_8="13000.00000" pt_clust_9="35.13874"></scales>
<clustering>
<clus scale="   35.139">  1  9  2 -1</clus>
<clus scale="   91.337">  7  8 -1 -1</clus>
<clus scale="   92.321">  5  6 -1 -1</clus>
<clus scale="  113.044">  1  7  2 -1</clus>
<clus scale="   35.139">  1  5  2 -1</clus>
</clustering>
</event>
<event>
 9    1  0.1266593E-005  0.9991759E+02  0.7546771E-02  0.1282099E+00
          2   -1    0    0  502    0  0.00000000000E+00  0.00000000000E+00  0.46592044951E+02  0.46592044951E+02  0.00000000000E+00 0. -1.
         -2   -1    0    0    0  501 -0.00000000000E+00 -0.00000000000E+00 -0.40474890145E+03  0.40474890145E+03  0.00000000000E+00 0.  1.
         23    2    1    2    0    0 -0.16742474279E+02  0.25912710911E+02 -0.19921731717E+03  0.22078042098E+03  0.90025972899E+02 0.  0.
         23    2    1    2    0    0 -0.36950233338E+02 -0.31493556240E+02 -0.69396977438E+02  0.12600468830E+03  0.93295643885E+02 0.  0.
        -13    1    3    3    0    0 -0.34289148575E+02 -0.14420373416E+02 -0.36094100524E+02  0.51831235487E+02  0.00000000000E+00 0. -1.
         13    1    3    3    0    0  0.17546674297E+02  0.40333084326E+02 -0.16312321665E+03  0.16894918550E+03  0.00000000000E+00 0.  1.
        -13    1    4    4    0    0 -0.13900716260E+02  0.19030258805E+02 -0.66324082028E+02  0.70386536494E+02  0.00000000000E+00 0.  1.
         13    1    4    4    0    0 -0.23049517078E+02 -0.50523815045E+02 -0.30728954094E+01  0.55618151807E+02  0.00000000000E+00 0. -1.
         21    1    1    2  502  501  0.53692707616E+02  0.55808453291E+01 -0.89542561890E+02  0.10455583712E+03  0.00000000000E+00 0.  1.
<scales pt_clust_5="13000.00000" pt_clust_6="13000.00000" pt_clust_7="13000.00000" pt_clust_8="13000.00000" pt_clust_9="53.98197"></scales>
<clustering>
<clus scale="   53.982">  2  9  1 -1</clus>
<clus scale="   90.026">  5  6 -1 -1</clus>
<clus scale="   93.296">  7  8 -1 -1</clus>
<clus scale="   96.872">  2  5  1 -1</clus>
<clus scale="   99.918">  1  5  2 -1</clus>
</clustering>
</event>
<event>
 9    1  0.1266593E-005  0.1574072E+03  0.7546771E-02  0.1191788E+00
          3   -1    0    0  502    0  0.00000000000E+00  0.00000000000E+00  0.69492112733E+02  0.69492112733E+02  0.00000000000E+00 0. -1.
         -3   -1    0    0    0  501 -0.00000000000E+00 -0.00000000000E+00 -0.44562744971E+03  0.44562744971E+03  0.00000000000E+00 0.  1.
         23    2    1    2    0    0  0.58067621266E+02  0.10064849482E+03 -0.21664517623E+03  0.26287664950E+03  0.93096897477E+02 0.  0.
         23    2    1    2    0    0 -0.56998481236E+02 -0.12095036019E+03 -0.10342672477E+03  0.19260720508E+03  0.92318099853E+02 0.  0.
        -11    1    3    3    0    0  0.80657552217E+01  0.89082494026E+02 -0.17594039165E+03  0.19737215752E+03  0.00000000000E+00 0. -1.
         11    1    3    3    0    0  0.50001866044E+02  0.11566000793E+02 -0.40704784582E+02  0.65504491984E+02  0.00000000000E+00 0.  1.
        -13    1    4    4    0    0 -0.46315589963E+02 -0.41868935621E+02 -0.93164057920E+02  0.11215027121E+03  0.00000000000E+00 0.  1.
         13    1    4    4    0    0 -0.10682891273E+02 -0.79081424570E+02 -0.10262666846E+02  0.80456933876E+02  0.00000000000E+00 0. -1.
         21    1    1    2  502  501 -0.10691400298E+01  0.20301865372E+02 -0.56063435976E+02  0.59635707856E+02  0.00000000000E+00 0.  1.
<scales pt_clust_5="13000.00000" pt_clust_6="13000.00000" pt_clust_7="13000.00000" pt_clust_8="13000.00000" pt_clust_9="20.33000"></scales>
<clustering>
<clus scale="   20.330">  2  9  1 -1</clus>
<clus scale="   92.318">  7  8 -1 -1</clus>
<clus scale="   93.097">  5  6 -1 -1</clus>
<clus scale="  156.948">  1  7  2 -1</clus>
<clus scale="  156.948">  1  5  2 -1</clus>
</clustering>
</event>
<event>
 9    1  0.1266593E-005  0.3128819E+03  0.7546771E-02  0.1078977E+00
         -2   -1    0    0    0  501 -0.00000000000E+00  0.00000000000E+00  0.10155256364E+04  0.10155256364E+04  0.00000000000E+00 0.  1.
          2   -1    0    0  502    0  0.00000000000E+00 -0.00000000000E+00 -0.54422639462E+03  0.54422639462E+03  0.00000000000E+00 0. -1.
         23    2    1    2    0    0 -0.23853444919E+03  0.14673052838E+03  0.92071755542E+03  0.96653139587E+03  0.89630301359E+02 0.  0.
         23    2    1    2    0    0  0.24128159142E+03 -0.17960664063E+03 -0.46145927062E+03  0.55810126457E+03  0.89760856440E+02 0.  0.
        -11    1    4    4    0    0  0.19196701921E+03 -0.91960288858E+02 -0.32746347878E+03  0.39056415750E+03  0.00000000000E+00 0. -1.
         11    1    4    4    0    0  0.49314572212E+02 -0.87646351775E+02 -0.13399579185E+03  0.16753710707E+03  0.00000000000E+00 0.  1.
        -13    1    3    3    0    0 -0.20976742432E+03  0.10158572509E+03  0.81989513664E+03  0.85237906294E+03  0.00000000000E+00 0.  1.
         13    1    3    3    0    0 -0.28767024868E+02  0.45144803288E+02  0.10082241878E+03  0.11415233293E+03  0.00000000000E+00 0. -1.
         21    1    1    2  502  501 -0.27471422302E+01  0.32876112254E+02  0.12040957017E+02  0.35119370628E+02  0.00000000000E+00 0.  1.
<scales pt_clust_5="13000.00000" pt_clust_6="13000.00000" pt_clust_7="13000.00000" pt_clust_8="13000.00000" pt_clust_9="32.99069"></scales>
<clustering>
<clus scale="   32.991">  1  9  2 -1</clus>
<clus scale="   89.630">  7  8 -1 -1</clus>
<clus scale="   89.761">  5  6 -1 -1</clus>
<clus scale="  312.844">  1  7  2 -1</clus>
<clus scale="  312.882">  2  5  1 -1</clus>
</clustering>
</event>
<event>
 9    1  0.1266593E-005  0.1196541E+03  0.7546771E-02  0.1244351E+00
          1   -1    0    0  502    0  0.00000000000E+00  0.00000000000E+00  0.96404696168E+03  0.96404696168E+03  0.00000000000E+00 0. -1.
         -1   -1    0    0    0  501 -0.00000000000E+00 -0.00000000000E+00 -0.19125873981E+02  0.19125873981E+02  0.00000000000E+00 0.  1.
         23    2    1    2    0    0  0.45285558082E+02  0.52759147442E+02  0.30686613190E+03  0.32749617357E+03  0.90843884685E+02 0.  0.
         23    2    1    2    0    0 -0.71806458881E+02 -0.45033444119E+02  0.54334018718E+03  0.55701597050E+03  0.88679500228E+02 0.  0.
        -11    1    3    3    0    0  0.73019527244E+02  0.33090771214E+02  0.20572986317E+03  0.22079770628E+03  0.00000000000E+00 0. -1.
         11    1    3    3    0    0 -0.27733969163E+02  0.19668376228E+02  0.10113626872E+03  0.10669846728E+03  0.00000000000E+00 0.  1.
        -11    1    4    4    0    0 -0.47423953297E+02  0.21159710024E+02  0.24622697379E+03  0.25164357193E+03  0.00000000000E+00 0.  1.
         11    1    4    4    0    0 -0.24382505584E+02 -0.66193154143E+02  0.29711321339E+03  0.30537239857E+03  0.00000000000E+00 0. -1.
         21    1    1    2  502  501  0.26520900800E+02 -0.77257033230E+01  0.94714768624E+02  0.98660691597E+02  0.00000000000E+00 0. -1.
<scales pt_clust_5="13000.00000" pt_clust_6="13000.00000" pt_clust_7="13000.00000" pt_clust_8="13000.00000" pt_clust_9="27.62326"></scales>
<clustering>
<clus scale="   27.623">  2  9  1 -1</clus>
<clus scale="   88.680">  7  8 -1 -1</clus>
<clus scale="   90.844">  5  6 -1 -1</clus>
<clus scale="  118.019">  1  7  2 -1</clus>
<clus scale="  118.019">  1  5  2 -1</clus>
</clustering>
</event>
<event>
 9    1  0.1266593E-005  0.1004457E+03  0.7546771E-02  0.1283507E+00
         -1   -1    0    0    0  501 -0.00000000000E+00  0.00000000000E+00  0.79783669882E+02  0.79783669882E+02  0.00000000000E+00 0.  1.
          1   -1    0    0  502    0  0.00000000000E+00 -0.00000000000E+00 -0.20735549515E+03  0.20735549515E+03  0.00000000000E+00 0. -1.
         23    2    1    2    0    0  0.96029315684E+01  0.92598370072E+01 -0.54537713787E+02  0.11253051772E+03  0.97523301408E+02 0.  0.
         23    2    1    2    0    0 -0.58141865539E+01 -0.31854098964E+02 -0.10071071480E+03  0.13868025140E+03  0.89672045067E+02 0.  0.
        -11    1    4    4    0    0  0.13510826559E+01  0.30493288528E+02 -0.20211230340E+02  0.36608194458E+02  0.00000000000E+00 0.  1.
         11    1    4    4    0    0 -0.71652692098E+01 -0.62347387492E+02 -0.80499484458E+02  0.10207205694E+03  0.00000000000E+00 0. -1.
        -13    1    3    3    0    0  0.10014194209E+02 -0.25275229689E+02 -0.69697635547E+02  0.74812309965E+02  0.00000000000E+00 0. -1.
         13    1    3    3    0    0 -0.41126264108E+00  0.34535066696E+02  0.15159921759E+02  0.37718207757E+02  0.00000000000E+00 0.  1.
         21    1    1    2  502  501 -0.37887450145E+01  0.22594261957E+02  0.27676603314E+02  0.35928395917E+02  0.00000000000E+00 0.  1.
<scales pt_clust_5="13000.00000" pt_clust_6="13000.00000" pt_clust_7="13000.00000" pt_clust_8="13000.00000" pt_clust_9="22.90972"></scales>
<clustering>
<clus scale="   22.910">  1  9  2 -1</clus>
<clus scale="   89.672">  5  6 -1 -1</clus>
<clus scale="   92.842">  2  5  1 -1</clus>
<clus scale="   97.523">  7  8 -1 -1</clus>
<clus scale="   92.842">  2  5  1 -1</clus>
</clustering>
</event>
<event>
 9    1  0.1266593E-005  0.1005277E+03  0.7546771E-02  0.1282811E+00
         -1   -1    0    0    0  501 -0.00000000000E+00  0.00000000000E+00  0.59038657041E+02  0.59038657041E+02  0.00000000000E+00 0.  1.
          1   -1    0    0  502    0  0.00000000000E+00 -0.00000000000E+00 -0.32739590564E+03  0.32739590564E+03  0.00000000000E+00 0. -1.
         23    2    1    2    0    0 -0.43924474052E+02 -0.40137596826E+02 -0.16053754514E+03  0.19410590162E+03  0.91457156893E+02 0.  0.
         23    2    1    2    0    0  0.26952568015E+02  0.87894244416E+01 -0.12458148171E+03  0.15293690155E+03  0.84056263108E+02 0.  0.
        -11    1    4    4    0    0 -0.21089909080E+02  0.29275636621E+02 -0.43878940044E+02  0.56808525275E+02  0.00000000000E+00 0.  1.
         11    1    4    4    0    0  0.48042477095E+02 -0.20486212179E+02 -0.80702541665E+02  0.96128376279E+02  0.00000000000E+00 0. -1.
        -13    1    3    3    0    0 -0.64964264342E+02 -0.39819811521E+02 -0.15441407550E+03  0.17219082363E+03  0.00000000000E+00 0. -1.
         13    1    3    3    0    0  0.21039790290E+02 -0.31778530502E+00 -0.61234696374E+01  0.21915077991E+02  0.00000000000E+00 0.  1.
         21    1    1    2  502  501  0.16971906037E+02  0.31348172385E+02  0.16761778250E+02  0.39391759500E+02  0.00000000000E+00 0.  1.
<scales pt_clust_5="13000.00000" pt_clust_6="13000.00000" pt_clust_7="13000.00000" pt_clust_8="13000.00000" pt_clust_9="35.64763"></scales>
<clustering>
<clus scale="   35.648">  1  9  2 -1</clus>
<clus scale="   84.056">  5  6 -1 -1</clus>
<clus scale="   91.457">  7  8 -1 -1</clus>
<clus scale="   93.845">  2  5  1 -1</clus>
<clus scale="   93.845">  2  5  1 -1</clus>
</clustering>
</event>
<event>
 9    1  0.1266593E-005  0.1001766E+03  0.7546771E-02  0.1282676E+00
          1   -1    0    0  502    0  0.00000000000E+00  0.00000000000E+00  0.65735221388E+03  0.65735221388E+03  0.00000000000E+00 0. -1.
         -1   -1    0    0    0  501 -0.00000000000E+00 -0.00000000000E+00 -0.29450197694E+02  0.29450197694E+02  0.00000000000E+00 0.  1.
         23    2    1    2    0    0  0.46170477824E+02  0.16992215102E+02  0.27770753764E+03  0.29846454142E+03  0.97668611271E+02 0.  0.
         23    2    1    2    0    0  0.29503883935E+01 -0.13547133948E+02  0.31291808176E+03  0.32657819205E+03  0.92430298056E+02 0.  0.
        -11    1    4    4    0    0  0.37549715696E+02  0.22122665192E+02  0.13589753037E+03  0.14271486336E+03  0.00000000000E+00 0.  1.
         11    1    4    4    0    0 -0.34599327303E+02 -0.35669799139E+02  0.17702055139E+03  0.18386332869E+03  0.00000000000E+00 0. -1.
        -11    1    3    3    0    0  0.36556875057E+02 -0.27519058252E+02  0.22124457784E+03  0.22592668480E+03  0.00000000000E+00 0. -1.
         11    1    3    3    0    0  0.96136027673E+01  0.44511273355E+02  0.56462959795E+02  0.72537856617E+02  0.00000000000E+00 0.  1.
         21    1    1    2  502  501 -0.49120866218E+02 -0.34450811546E+01  0.37276396786E+02  0.61759678104E+02  0.00000000000E+00 0. -1.
<scales pt_clust_5="13000.00000" pt_clust_6="13000.00000" pt_clust_7="13000.00000" pt_clust_8="13000.00000" pt_clust_9="49.24153"></scales>
<clustering>
<clus scale="   49.242">  2  9  1 -1</clus>
<clus scale="   92.430">  5  6 -1 -1</clus>
<clus scale="   95.077">  1  5  2 -1</clus>
<clus scale="   97.669">  7  8 -1 -1</clus>
<clus scale="   95.077">  1  5  2 -1</clus>
</clustering>
</event>
<event>
 9    1  0.1266593E-005  0.9951316E+02  0.7546771E-02  0.1283257E+00
          1   -1    0    0  502    0  0.00000000000E+00  0.00000000000E+00  0.20576221292E+03  0.20576221292E+03  0.00000000000E+00 0. -1.
         -1   -1    0    0    0  501 -0.00000000000E+00 -0.00000000000E+00 -0.13978401135E+03  0.13978401135E+03  0.00000000000E+00 0.  1.
         23    2    1    2    0    0  0.57585947110E+02  0.30545761319E+02 -0.12589397296E+02  0.11609089233E+03  0.95233489484E+02 0.  0.
         23    2    1    2    0    0 -0.15124743503E+02  0.28286745682E+02  0.11321728218E+03  0.14905123847E+03  0.91483445825E+02 0.  0.
        -11    1    3    3    0    0 -0.61216297160E+01 -0.21772023114E+02 -0.23873798863E+02  0.32885462031E+02  0.00000000000E+00 0.  1.
         11    1    3    3    0    0  0.63707576826E+02  0.52317784433E+02  0.11284401567E+02  0.83205430302E+02  0.00000000000E+00 0. -1.
        -13    1    4    4    0    0 -0.47330774080E+02  0.40704740727E+02  0.73028522549E+02  0.96074154685E+02  0.00000000000E+00 0. -1.
         13    1    4    4    0    0  0.32206030577E+02 -0.12417995045E+02  0.40188759628E+02  0.52977083790E+02  0.00000000000E+00 0.  1.
         21    1    1    2  502  501 -0.42461203606E+02 -0.58832507001E+02 -0.34649683306E+02  0.80404093458E+02  0.00000000000E+00 0.  1.
<scales pt_clust_5="13000.00000" pt_clust_6="13000.00000" pt_clust_7="13000.00000" pt_clust_8="13000.00000" pt_clust_9="72.55493"></scales>
<clustering>
<clus scale="   72.555">  2  9  1 -1</clus>
<clus scale="   91.483">  7  8 -1 -1</clus>
<clus scale="   95.233">  5  6 -1 -1</clus>
<clus scale="   95.931">  1  7  2 -1</clus>
<clus scale="   95.931">  1  5  2 -1</clus>
</clustering>
</event>
<event>
 9    1  0.1266593E-005  0.9243121E+02  0.7546771E-02  0.1297964E+00
         -1   -1    0    0    0  501 -0.00000000000E+00  0.00000000000E+00  0.98594997003E+02  0.98594997003E+02  0.00000000000E+00 0.  1.
          1   -1    0    0  502    0  0.00000000000E+00 -0.00000000000E+00 -0.12874457965E+03  0.12874457965E+03  0.00000000000E+00 0. -1.
         23    2    1    2    0    0  0.13834010238E+02  0.15832417196E+02 -0.63042809686E+01  0.93231195249E+02  0.90610521109E+02 0.  0.
         23    2    1    2    0    0 -0.28986509769E+01  0.10338821694E+02 -0.40502839748E+02  0.10121477409E+03  0.92133908282E+02 0.  0.
        -11    1    3    3    0    0 -0.36382457476E+02  0.62433377208E+01 -0.17567630847E+02  0.40881342095E+02  0.00000000000E+00 0.  1.
         11    1    3    3    0    0  0.50216467714E+02  0.95890794751E+01  0.11263349878E+02  0.52349853155E+02  0.00000000000E+00 0. -1.
        -13    1    4    4    0    0  0.36055170274E+02  0.13217263489E+02 -0.47969921193E+02  0.61447414078E+02  0.00000000000E+00 0. -1.
         13    1    4    4    0    0 -0.38953821251E+02 -0.28784417949E+01  0.74670814450E+01  0.39767360014E+02  0.00000000000E+00 0.  1.
         21    1    1    2  502  501 -0.10935359261E+02 -0.26171238890E+02  0.16657538071E+02  0.32893607309E+02  0.00000000000E+00 0.  1.
<scales pt_clust_5="13000.00000" pt_clust_6="13000.00000" pt_clust_7="13000.00000" pt_clust_8="13000.00000" pt_clust_9="28.36399"></scales>
<clustering>
<clus scale="   28.364">  1  9  2 -1</clus>
<clus scale="   90.611">  5  6 -1 -1</clus>
<clus scale="   90.913">  1  5  2 -1</clus>
<clus scale="   92.134">  7  8 -1 -1</clus>
<clus scale="   92.431">  2  5  1 -1</clus>
</clustering>
</event>
<event>
 9    1  0.1266593E-005  0.1819865E+03  0.7546771E-02  0.1166139E+00
         -2   -1    0    0    0  501 -0.00000000000E+00  0.00000000000E+00  0.23761468818E+03  0.23761468818E+03  0.00000000000E+00 0.  1.
          2   -1    0    0  502    0  0.00000000000E+00 -0.00000000000E+00 -0.54578299346E+03  0.54578299346E+03  0.00000000000E+00 0. -1.
         23    2    1    2    0    0  0.13324987207E+03 -0.12217275592E+02 -0.35286432483E+02  0.16680361542E+03  0.93131753821E+02 0.  0.
         23    2    1    2    0    0 -0.16121080575E+03 -0.19634519867E+02 -0.42173631407E+03  0.46182328290E+03  0.95104089108E+02 0.  0.
        -13    1    3    3    0    0  0.44941526012E+02  0.40128121521E+02 -0.99385978649E+01  0.61063758684E+02  0.00000000000E+00 0.  1.
         13    1    3    3    0    0  0.88308346055E+02 -0.52345397113E+02 -0.25347834618E+02  0.10573985673E+03  0.00000000000E+00 0. -1.
        -13    1    4    4    0    0 -0.69365456572E+02 -0.17015360883E+02 -0.76879848603E+02  0.10493617199E+03  0.00000000000E+00 0.  1.
         13    1    4    4    0    0 -0.91845349182E+02 -0.26191589836E+01 -0.34485646546E+03  0.35688711091E+03  0.00000000000E+00 0. -1.
         21    1    1    2  502  501  0.27960933687E+02  0.31851795458E+02  0.14885444126E+03  0.15477078332E+03  0.00000000000E+00 0. -1.
<scales pt_clust_5="13000.00000" pt_clust_6="13000.00000" pt_clust_7="13000.00000" pt_clust_8="13000.00000" pt_clust_9="42.38338"></scales>
<clustering>
<clus scale="   42.383">  1  9  2 -1</clus>
<clus scale="   93.132">  5  6 -1 -1</clus>
<clus scale="   95.104">  7  8 -1 -1</clus>
<clus scale="  180.964">  1  5  2 -1</clus>
<clus scale="  181.987">  2  5  1 -1</clus>
</clustering>
</event>
<event>
 9    1  0.1266593E-005  0.1050844E+03  0.7546771E-02  0.1270362E+00
          1   -1    0    0  502    0  0.00000000000E+00  0.00000000000E+00  0.16970252075E+03  0.16970252075E+03  0.00000000000E+00 0. -1.
         -1   -1    0    0    0  501 -0.00000000000E+00 -0.00000000000E+00 -0.29687139141E+03  0.29687139141E+03  0.00000000000E+00 0.  1.
         23    2    1    2    0    0 -0.56974105241E+02  0.12916457474E+02 -0.65523225244E+02  0.12571751873E+03  0.89992877100E+02 0.  0.
         23    2    1    2    0    0 -0.67883647442E+01 -0.61927217821E+02  0.10724268952E+03  0.15379764093E+03  0.90948654185E+02 0.  0.
        -11    1    3    3    0    0 -0.27937398705E+02 -0.31016725269E+02 -0.59542109207E+02  0.72717248722E+02  0.00000000000E+00 0. -1.
         11    1    3    3    0    0 -0.29036706536E+02  0.43933182743E+02 -0.59811160371E+01  0.53000270013E+02  0.00000000000E+00 0.  1.
        -13    1    4    4    0    0 -0.15173109265E+02 -0.20422158113E+02 -0.11360012678E+02  0.27862836805E+02  0.00000000000E+00 0.  1.
         13    1    4    4    0    0  0.83847445205E+01 -0.41505059708E+02  0.11860270220E+03  0.12593480413E+03  0.00000000000E+00 0. -1.
         21    1    1    2  502  501  0.63762469985E+02  0.49010760346E+02 -0.16888833494E+03  0.18705875250E+03  0.00000000000E+00 0.  1.
<scales pt_clust_5="13000.00000" pt_clust_6="13000.00000" pt_clust_7="13000.00000" pt_clust_8="13000.00000" pt_clust_9="80.42206"></scales>
<clustering>
<clus scale="   80.422">  2  9  1 -1</clus>
<clus scale="   89.993">  5  6 -1 -1</clus>
<clus scale="   90.949">  7  8 -1 -1</clus>
<clus scale="  104.258">  2  5  1 -1</clus>
<clus scale="  105.084">  1  5  2 -1</clus>
</clustering>
</event>
<event>
 9    1  0.1266593E-005  0.1267642E+03  0.7546771E-02  0.1233605E+00
          3   -1    0    0  502    0  0.00000000000E+00  0.00000000000E+00  0.13167907570E+03  0.13167907570E+03  0.00000000000E+00 0. -1.
         -3   -1    0    0    0  501 -0.00000000000E+00 -0.00000000000E+00 -0.21733704964E+03  0.21733704964E+03  0.00000000000E+00 0.  1.
         23    2    1    2    0    0 -0.46370970652E+02 -0.91835481629E+01 -0.69128668148E+02  0.12690717930E+03  0.95352267525E+02 0.  0.
         23    2    1    2    0    0  0.89873900754E+02  0.55288847071E+02  0.31182877110E+02  0.14277007843E+03  0.90976638889E+02 0.  0.
        -11    1    4    4    0    0  0.39334578295E+01  0.52732061776E+02  0.17566653672E+02  0.55720101856E+02  0.00000000000E+00 0. -1.
         11    1    4    4    0    0  0.85940442925E+02  0.25567852948E+01  0.13616223437E+02  0.87049976576E+02  0.00000000000E+00 0.  1.
        -11    1    3    3    0    0 -0.21837944942E+02 -0.48041981581E+02 -0.60265754387E+02  0.80105486612E+02  0.00000000000E+00 0.  1.
         11    1    3    3    0    0 -0.24533025710E+02  0.38858433418E+02 -0.88629137611E+01  0.46801692689E+02  0.00000000000E+00 0. -1.
         21    1    1    2  502  501 -0.43502930102E+02 -0.46105298908E+02 -0.47712182905E+02  0.79338867602E+02  0.00000000000E+00 0. -1.
<scales pt_clust_5="13000.00000" pt_clust_6="13000.00000" pt_clust_7="13000.00000" pt_clust_8="13000.00000" pt_clust_9="63.38930"></scales>
<clustering>
<clus scale="   63.389">  2  9  1 -1</clus>
<clus scale="   90.977">  5  6 -1 -1</clus>
<clus scale="   95.352">  7  8 -1 -1</clus>
<clus scale="  123.506">  1  5  2 -1</clus>
<clus scale="  123.506">  1  5  2 -1</clus>
</clustering>
</event>
<event>
 9    1  0.1266593E-005  0.1186155E+03  0.7546771E-02  0.1245579E+00
         -1   -1    0    0    0  501 -0.00000000000E+00  0.00000000000E+00  0.22185443261E+02  0.22185443261E+02  0.00000000000E+00 0.  1.
          1   -1    0    0  502    0  0.00000000000E+00 -0.00000000000E+00 -0.82488429776E+03  0.82488429776E+03  0.00000000000E+00 0. -1.
         23    2    1    2    0    0 -0.65495667718E+02 -0.33766467282E+02 -0.34517267986E+03  0.36468993022E+03  0.91786216170E+02 0.  0.
         23    2    1    2    0    0  0.54708576128E+02  0.55786627199E+02 -0.42498968241E+03  0.44163828267E+03  0.91230293708E+02 0.  0.
        -11    1    4    4    0    0 -0.19490234530E+02  0.37365940204E+02 -0.11898597059E+03  0.12622893458E+03  0.00000000000E+00 0.  1.
         11    1    4    4    0    0  0.74198810658E+02  0.18420686996E+02 -0.30600371182E+03  0.31540934809E+03  0.00000000000E+00 0. -1.
        -13    1    3    3    0    0 -0.75980310920E+02 -0.55045001585E+02 -0.28286894726E+03  0.29802315543E+03  0.00000000000E+00 0. -1.
         13    1    3    3    0    0  0.10484643202E+02  0.21278534304E+02 -0.62303732600E+02  0.66666774791E+02  0.00000000000E+00 0.  1.
         21    1    1    2  502  501  0.10787091590E+02 -0.22020159918E+02 -0.32536492225E+02  0.40741528127E+02  0.00000000000E+00 0. -1.
<scales pt_clust_5="13000.00000" pt_clust_6="13000.00000" pt_clust_7="13000.00000" pt_clust_8="13000.00000" pt_clust_9="24.52037"></scales>
<clustering>
<clus scale="   24.520">  1  9  2 -1</clus>
<clus scale="   91.230">  5  6 -1 -1</clus>
<clus scale="   91.786">  7  8 -1 -1</clus>
<clus scale="  118.186">  2  5  1 -1</clus>
<clus scale="  118.186">  2  5  1 -1</clus>
</clustering>
</event>
<event>
 9    1  0.1266593E-005  0.9569766E+02  0.7546771E-02  0.1291351E+00
          1   -1    0    0  502    0  0.00000000000E+00  0.00000000000E+00  0.49750354062E+02  0.49750354062E+02  0.00000000000E+00 0. -1.
         -1   -1    0    0    0  501 -0.00000000000E+00 -0.00000000000E+00 -0.30514778355E+03  0.30514778355E+03  0.00000000000E+00 0.  1.
         23    2    1    2    0    0 -0.54984366441E+01  0.35298054353E+02 -0.10124010336E+03  0.14343708200E+03  0.95123354212E+02 0.  0.
         23    2    1    2    0    0 -0.30478594281E+00  0.85602111584E+01 -0.68496318561E+02  0.11505030381E+03  0.92040516302E+02 0.  0.
        -13    1    3    3    0    0 -0.47772548792E+02  0.29332277090E+02 -0.40346953519E+02  0.69068629317E+02  0.00000000000E+00 0. -1.
         13    1    3    3    0    0  0.42274112148E+02  0.59657772628E+01 -0.60893149845E+02  0.74368452682E+02  0.00000000000E+00 0.  1.
        -13    1    4    4    0    0 -0.70405813463E+01  0.49606525593E+02 -0.44605027844E+02  0.67081932560E+02  0.00000000000E+00 0.  1.
         13    1    4    4    0    0  0.67357954035E+01 -0.41046314434E+02 -0.23891290718E+02  0.47968371252E+02  0.00000000000E+00 0. -1.
         21    1    1    2  502  501  0.58032225869E+01 -0.43858265511E+02 -0.85661007559E+02  0.96410751798E+02  0.00000000000E+00 0. -1.
<scales pt_clust_5="13000.00000" pt_clust_6="13000.00000" pt_clust_7="13000.00000" pt_clust_8="13000.00000" pt_clust_9="44.24053"></scales>
<clustering>
<clus scale="   44.241">  2  9  1 -1</clus>
<clus scale="   92.041">  7  8 -1 -1</clus>
<clus scale="   92.634">  1  7  2 -1</clus>
<clus scale="   95.123">  5  6 -1 -1</clus>
<clus scale="   92.634">  1  5  2 -1</clus>
</clustering>
</event>
<event>
 9    1  0.1266593E-005  0.9817806E+02  0.7546771E-02  0.1287302E+00
          2   -1    0    0  502    0  0.00000000000E+00  0.00000000000E+00  0.38741237341E+02  0.38741237341E+02  0.00000000000E+00 0. -1.
         -2   -1    0    0    0  501 -0.00000000000E+00 -0.00000000000E+00 -0.42561291665E+03  0.42561291665E+03  0.00000000000E+00 0.  1.
         23    2    1    2    0    0  0.83282753883E+01  0.18673576173E+02 -0.25537194432E+03  0.27019289875E+03  0.85856333329E+02 0.  0.
         23    2    1    2    0    0 -0.35440914177E+01 -0.39197878175E+02 -0.53531445483E+02  0.11339499027E+03  0.91890009928E+02 0.  0.
        -11    1    3    3    0    0  0.39889624831E+02  0.34633404560E+02 -0.14789959069E+03  0.15705076825E+03  0.00000000000E+00 0.  1.
         11    1    3    3    0    0 -0.31561349442E+02 -0.15959828387E+02 -0.10747235363E+03  0.11314213051E+03  0.00000000000E+00 0. -1.
        -11    1    4    4    0    0  0.41470176287E+02 -0.26175378827E+01 -0.17332386285E+02  0.45022645859E+02  0.00000000000E+00 0.  1.
         11    1    4    4    0    0 -0.45014267705E+02 -0.36580340292E+02 -0.36199059198E+02  0.68372344407E+02  0.00000000000E+00 0. -1.
         21    1    1    2  502  501 -0.47841839706E+01  0.20524302001E+02 -0.77968289508E+02  0.80766264973E+02  0.00000000000E+00 0.  1.
<scales pt_clust_5="13000.00000" pt_clust_6="13000.00000" pt_clust_7="13000.00000" pt_clust_8="13000.00000" pt_clust_9="21.07452"></scales>
<clustering>
<clus scale="   21.075">  2  9  1 -1</clus>
<clus scale="   85.856">  5  6 -1 -1</clus>
<clus scale="   91.890">  7  8 -1 -1</clus>
<clus scale="   92.555">  2  5  1 -1</clus>
<clus scale="   98.178">  1  5  2 -1</clus>
</clustering>
</event>
<event>
 9    1  0.1266593E-005  0.1549222E+03  0.7546771E-02  0.1194614E+00
          1   -1    0    0  502    0  0.00000000000E+00  0.00000000000E+00  0.45591781354E+02  0.45591781354E+02  0.00000000000E+00 0. -1.
         -1   -1    0    0    0  501 -0.00000000000E+00 -0.00000000000E+00 -0.65891624983E+03  0.65891624983E+03  0.00000000000E+00 0.  1.
         23    2    1    2    0    0  0.23988096123E+02  0.13725556988E+03 -0.25943650986E+03  0.30821325682E+03  0.90959270056E+02 0.  0.
         23    2    1    2    0    0 -0.78133204419E+01 -0.11200598729E+03 -0.25527165667E+03  0.29322033623E+03  0.90598883605E+02 0.  0.
        -11    1    3    3    0    0  0.46720039239E+02  0.48170666972E+02 -0.15600931499E+03  0.16982956629E+03  0.00000000000E+00 0.  1.
         11    1    3    3    0    0 -0.22731943116E+02  0.89084902913E+02 -0.10342719487E+03  0.13838369053E+03  0.00000000000E+00 0. -1.
        -11    1    4    4    0    0  0.39787708078E+01 -0.73519777947E+02 -0.23851336418E+03  0.24961893610E+03  0.00000000000E+00 0.  1.
         11    1    4    4    0    0 -0.11792091250E+02 -0.38486209345E+02 -0.16758292492E+02  0.43601400127E+02  0.00000000000E+00 0. -1.
         21    1    1    2  502  501 -0.16174775681E+02 -0.25249582593E+02 -0.98616301947E+02  0.10307443815E+03  0.00000000000E+00 0.  1.
<scales pt_clust_5="13000.00000" pt_clust_6="13000.00000" pt_clust_7="13000.00000" pt_clust_8="13000.00000" pt_clust_9="29.98608"></scales>
<clustering>
<clus scale="   29.986">  2  9  1 -1</clus>
<clus scale="   90.599">  7  8 -1 -1</clus>
<clus scale="   90.959">  5  6 -1 -1</clus>
<clus scale="  154.711">  1  7  2 -1</clus>
<clus scale="  154.711">  1  5  2 -1</clus>
</clustering>
</event>
<event>
 9    1  0.1266593E-005  0.9950455E+02  0.7546771E-02  0.1281931E+00
          3   -1    0    0  502    0  0.00000000000E+00  0.00000000000E+00  0.25481736992E+02  0.25481736992E+02  0.00000000000E+00 0. -1.
         -3   -1    0    0    0  501 -0.00000000000E+00 -0.00000000000E+00 -0.68904072380E+03  0.68904072380E+03  0.00000000000E+00 0.  1.
         23    2    1    2    0    0  0.48847334992E+02 -0.21859587553E+02 -0.47407115507E+03  0.48543136703E+03  0.89645124368E+02 0.  0.
         23    2    1    2    0    0 -0.28780831087E+02  0.23942387852E+02 -0.11190702828E+03  0.14893010760E+03  0.90859340737E+02 0.  0.
        -13    1    4    4    0    0  0.27415679049E+02 -0.13052329466E+02 -0.27294311024E+02  0.40828448127E+02  0.00000000000E+00 0.  1.
         13    1    4    4    0    0 -0.56196510136E+02  0.36994717318E+02 -0.84612717252E+02  0.10810165948E+03  0.00000000000E+00 0. -1.
        -13    1    3    3    0    0 -0.12145805230E+02  0.23113558895E+02 -0.80426164041E+02  0.84558412070E+02  0.00000000000E+00 0. -1.
         13    1    3    3    0    0  0.60993140223E+02 -0.44973146448E+02 -0.39364499103E+03  0.40087295496E+03  0.00000000000E+00 0.  1.
         21    1    1    2  502  501 -0.20066503905E+02 -0.20828002989E+01 -0.77580803466E+02  0.80160986162E+02  0.00000000000E+00 0. -1.
<scales pt_clust_5="13000.00000" pt_clust_6="13000.00000" pt_clust_7="13000.00000" pt_clust_8="13000.00000" pt_clust_9="20.17431"></scales>
<clustering>
<clus scale="   20.174">  2  9  1 -1</clus>
<clus scale="   89.645">  7  8 -1 -1</clus>
<clus scale="   90.859">  5  6 -1 -1</clus>
<clus scale="   98.397">  2  7  1 -1</clus>
<clus scale="   99.505">  1  5  2 -1</clus>
</clustering>
</event>
<event>
 9    1  0.1266593E-005  0.2910819E+03  0.7546771E-02  0.1122658E+00
          1   -1    0    0  502    0  0.00000000000E+00  0.00000000000E+00  0.92220354031E+03  0.92220354031E+03  0.00000000000E+00 0. -1.
         -1   -1    0    0    0  501 -0.00000000000E+00 -0.00000000000E+00 -0.26851608233E+03  0.26851608233E+03  0.00000000000E+00 0.  1.
         23    2    1    2    0    0  0.20414457396E+02 -0.81893069649E+02 -0.15054950849E+03  0.19583288059E+03  0.92531819855E+02 0.  0.
         23    2    1    2    0    0  0.26282650394E+03  0.28596969024E+02  0.27554774747E+03  0.39274206940E+03  0.91783517752E+02 0.  0.
        -11    1    4    4    0    0  0.11599987881E+03 -0.28907935682E+02  0.92601467222E+02  0.15121730179E+03  0.00000000000E+00 0.  1.
         11    1    4    4    0    0  0.14682662513E+03  0.57504904706E+02  0.18294628025E+03  0.24152476761E+03  0.00000000000E+00 0. -1.
        -11    1    3    3    0    0 -0.16900328436E+01 -0.96491321430E+02 -0.13190618211E+03  0.16344011809E+03  0.00000000000E+00 0.  1.
         11    1    3    3    0    0  0.22104490240E+02  0.14598251781E+02 -0.18643326380E+02  0.32392762499E+02  0.00000000000E+00 0. -1.
         21    1    1    2  502  501 -0.28324096133E+03  0.53296100625E+02  0.52868921900E+03  0.60214467265E+03  0.00000000000E+00 0.  1.
<scales pt_clust_5="13000.00000" pt_clust_6="13000.00000" pt_clust_7="13000.00000" pt_clust_8="13000.00000" pt_clust_9="276.23257"></scales>
<clustering>
<clus scale="   91.784">  5  6 -1 -1</clus>
<clus scale="   92.532">  7  8 -1 -1</clus>
<clus scale="  125.241">  2  7  1 -1</clus>
<clus scale="  276.233">  1  9  2 -1</clus>
<clus scale="  276.233">  1  5  2 -1</clus>
</clustering>
</event>
<event>
 9    1  0.1950569E-005  0.9261970E+02  0.7546771E-02  0.1297409E+00
          1   -1    0    0  502    0  0.00000000000E+00  0.00000000000E+00  0.13767646616E+03  0.13767646616E+03  0.00000000000E+00 0. -1.
         -1   -1    0    0    0  501 -0.00000000000E+00 -0.00000000000E+00 -0.24499149409E+03  0.24499149409E+03  0.00000000000E+00 0.  1.
         23    2    1    2    0    0  0.30861015508E+02 -0.10471881823E+02 -0.19024131374E+03  0.21331203980E+03  0.90819635989E+02 0.  0.
         23    2    1    2    0    0 -0.14926653255E+02 -0.98631698113E+01  0.10229275439E+03  0.13706848745E+03  0.89464381482E+02 0.  0.
        -11    1    3    3    0    0  0.56782137029E+02  0.10947214596E+02 -0.84813751778E+02  0.10265196093E+03  0.00000000000E+00 0.  1.
         11    1    3    3    0    0 -0.25921121521E+02 -0.21419096418E+02 -0.10542756197E+03  0.11066007886E+03  0.00000000000E+00 0. -1.
        -11    1    4    4    0    0  0.27706807314E+02  0.13067507089E+02  0.76085245148E+02  0.82020676919E+02  0.00000000000E+00 0. -1.
         11    1    4    4    0    0 -0.42633460569E+02 -0.22930676900E+02  0.26207509243E+02  0.55047810528E+02  0.00000000000E+00 0.  1.
         21    1    1    2  502  501 -0.15934362252E+02  0.20335051634E+02 -0.19366468574E+02  0.32287433010E+02  0.00000000000E+00 0.  1.
<scales pt_clust_5="13000.00000" pt_clust_6="13000.00000" pt_clust_7="13000.00000" pt_clust_8="13000.00000" pt_clust_9="25.83444"></scales>
<clustering>
<clus scale="   25.834">  2  9  1 -1</clus>
<clus scale="   89.464">  7  8 -1 -1</clus>
<clus scale="   90.820">  5  6 -1 -1</clus>
<clus scale="   91.291">  1  7  2 -1</clus>
<clus scale="   91.291">  1  5  2 -1</clus>
</clustering>
</event>
<event>
 9    1  0.1266593E-005  0.1954032E+03  0.7546771E-02  0.1155445E+00
         -1   -1    0    0    0  501 -0.00000000000E+00  0.00000000000E+00  0.57456768958E+02  0.57456768958E+02  0.00000000000E+00 0.  1.
          1   -1    0    0  502    0  0.00000000000E+00 -0.00000000000E+00 -0.13348080516E+04  0.13348080516E+04  0.00000000000E+00 0. -1.
         23    2    1    2    0    0 -0.13185566823E+03 -0.12839788521E+03 -0.46959054056E+03  0.50991333316E+03  0.74995982399E+02 0.  0.
         23    2    1    2    0    0  0.13233400025E+03  0.99765157822E+02 -0.82653256797E+03  0.84811052760E+03  0.93112871207E+02 0.  0.
        -13    1    3    3    0    0 -0.12249013448E+03 -0.77534626526E+02 -0.31155908485E+03  0.34363427464E+03  0.00000000000E+00 0.  1.
         13    1    3    3    0    0 -0.93655337455E+01 -0.50863258683E+02 -0.15803145571E+03  0.16627905851E+03  0.00000000000E+00 0. -1.
        -13    1    4    4    0    0  0.37596630645E+02  0.93910808882E+01 -0.67201086151E+02  0.77573739217E+02  0.00000000000E+00 0.  1.
         13    1    4    4    0    0  0.94737369601E+02  0.90374076934E+02 -0.75933148181E+03  0.77053678839E+03  0.00000000000E+00 0. -1.
         21    1    1    2  502  501 -0.47833201718E+00  0.28632727387E+02  0.18771825902E+02  0.34240959782E+02  0.00000000000E+00 0. -1.
<scales pt_clust_5="13000.00000" pt_clust_6="13000.00000" pt_clust_7="13000.00000" pt_clust_8="13000.00000" pt_clust_9="28.63672"></scales>
<clustering>
<clus scale="   28.637">  1  9  2 -1</clus>
<clus scale="   74.996">  5  6 -1 -1</clus>
<clus scale="   93.113">  7  8 -1 -1</clus>
<clus scale="  187.448">  1  5  2 -1</clus>
<clus scale="  195.403">  2  5  1 -1</clus>
</clustering>
</event>
<event>
 9    1  0.1266593E-005  0.1230988E+03  0.7546771E-02  0.1238360E+00
         -2   -1    0    0    0  501 -0.00000000000E+00  0.00000000000E+00  0.58353760474E+02  0.58353760474E+02  0.00000000000E+00 0.  1.
          2   -1    0    0  502    0  0.00000000000E+00 -0.00000000000E+00 -0.42073280885E+03  0.42073280885E+03  0.00000000000E+00 0. -1.
         23    2    1    2    0    0  0.61336666007E+02  0.78617982337E+02 -0.74887167046E+02  0.15422232272E+03  0.90738433394E+02 0.  0.
         23    2    1    2    0    0 -0.53765898813E+02 -0.56657711761E+02 -0.27215944089E+03  0.29703164468E+03  0.89756161351E+02 0.  0.
        -11    1    4    4    0    0  0.24072530738E+02 -0.21270450184E+02 -0.55749127264E+02  0.64341930169E+02  0.00000000000E+00 0.  1.
         11    1    4    4    0    0 -0.77838429551E+02 -0.35387261577E+02 -0.21641031362E+03  0.23268971451E+03  0.00000000000E+00 0. -1.
        -13    1    3    3    0    0  0.31789635792E+02  0.60199918204E+02 -0.92779420893E+02  0.11507663549E+03  0.00000000000E+00 0.  1.
         13    1    3    3    0    0  0.29547030215E+02  0.18418064133E+02  0.17892253847E+02  0.39145687230E+02  0.00000000000E+00 0. -1.
         21    1    1    2  502  501 -0.75707671943E+01 -0.21960270576E+02 -0.15332440443E+02  0.27832601920E+02  0.00000000000E+00 0. -1.
<scales pt_clust_5="13000.00000" pt_clust_6="13000.00000" pt_clust_7="13000.00000" pt_clust_8="13000.00000" pt_clust_9="23.22865"></scales>
<clustering>
<clus scale="   23.229">  1  9  2 -1</clus>
<clus scale="   89.756">  5  6 -1 -1</clus>
<clus scale="   90.738">  7  8 -1 -1</clus>
<clus scale="  122.377">  2  5  1 -1</clus>
<clus scale="  122.377">  2  5  1 -1</clus>
</clustering>
</event>
<event>
 9    1  0.1266593E-005  0.1062582E+03  0.7546771E-02  0.1267685E+00
         -1   -1    0    0    0  501 -0.00000000000E+00  0.00000000000E+00  0.62673341996E+02  0.62673341996E+02  0.00000000000E+00 0.  1.
          1   -1    0    0  502    0  0.00000000000E+00 -0.00000000000E+00 -0.30026775441E+03  0.30026775441E+03  0.00000000000E+00 0. -1.
         23    2    1    2    0    0  0.20366403664E+01 -0.30295653906E+02 -0.30502843310E+02  0.99320659636E+02  0.89510867669E+02 0.  0.
         23    2    1    2    0    0 -0.38472206967E+01  0.69381156624E+02 -0.18938560405E+03  0.22067330738E+03  0.89449737668E+02 0.  0.
        -11    1    4    4    0    0 -0.24272835558E+02  0.69642496010E+02 -0.77675268078E+02  0.10711066738E+03  0.00000000000E+00 0. -1.
         11    1    4    4    0    0  0.20425614861E+02 -0.26133938583E+00 -0.11171033597E+03  0.11356264000E+03  0.00000000000E+00 0.  1.
        -13    1    3    3    0    0 -0.78723971483E+00  0.27827538557E+02  0.86872796900E+01  0.29162655519E+02  0.00000000000E+00 0. -1.
         13    1    3    3    0    0  0.28238800812E+01 -0.58123192464E+02 -0.39190123000E+02  0.70158004116E+02  0.00000000000E+00 0.  1.
         21    1    1    2  502  501  0.18105803304E+01 -0.39085502718E+02 -0.17705965052E+02  0.42947129384E+02  0.00000000000E+00 0.  1.
<scales pt_clust_5="13000.00000" pt_clust_6="13000.00000" pt_clust_7="13000.00000" pt_clust_8="13000.00000" pt_clust_9="39.12742"></scales>
<clustering>
<clus scale="   39.127">  1  9  2 -1</clus>
<clus scale="   89.450">  5  6 -1 -1</clus>
<clus scale="   89.511">  7  8 -1 -1</clus>
<clus scale="  106.207">  2  5  1 -1</clus>
<clus scale="  106.207">  2  5  1 -1</clus>
</clustering>
</event>
<event>
 9    1  0.1266593E-005  0.1632529E+03  0.7546771E-02  0.1185453E+00
          1   -1    0    0  502    0  0.00000000000E+00  0.00000000000E+00  0.45303644552E+03  0.45303644552E+03  0.00000000000E+00 0. -1.
         -1   -1    0    0    0  501 -0.00000000000E+00 -0.00000000000E+00 -0.10090469958E+03  0.10090469958E+03  0.00000000000E+00 0.  1.
         23    2    1    2    0    0 -0.37860942716E+02  0.15126969494E+03  0.16930522543E+03  0.24588695177E+03  0.86487930394E+02 0.  0.
         23    2    1    2    0    0  0.43705214338E+02 -0.11693591644E+03  0.21267337745E+03  0.26218700761E+03  0.89038795842E+02 0.  0.
        -13    1    3    3    0    0  0.37029781830E+01  0.99862119247E+02  0.55590340467E+02  0.11435226653E+03  0.00000000000E+00 0.  1.
         13    1    3    3    0    0 -0.41563920899E+02  0.51407575690E+02  0.11371488496E+03  0.13153468524E+03  0.00000000000E+00 0. -1.
        -13    1    4    4    0    0  0.25231022758E+01 -0.84534909120E+02  0.18388090661E+03  0.20239739306E+03  0.00000000000E+00 0. -1.
         13    1    4    4    0    0  0.41182112062E+02 -0.32401007322E+02  0.28792470847E+02  0.59789614540E+02  0.00000000000E+00 0.  1.
         21    1    1    2  502  501 -0.58442716220E+01 -0.34333778495E+02 -0.29846856941E+02  0.45867185719E+02  0.00000000000E+00 0.  1.
<scales pt_clust_5="13000.00000" pt_clust_6="13000.00000" pt_clust_7="13000.00000" pt_clust_8="13000.00000" pt_clust_9="34.82763"></scales>
<clustering>
<clus scale="   34.828">  2  9  1 -1</clus>
<clus scale="   86.488">  5  6 -1 -1</clus>
<clus scale="   89.039">  7  8 -1 -1</clus>
<clus scale="  161.876">  2  5  1 -1</clus>
<clus scale="  163.253">  1  5  2 -1</clus>
</clustering>
</event>
<event>
 9    1  0.1266593E-005  0.9880340E+02  0.7546771E-02  0.1284581E+00
         -1   -1    0    0    0  501 -0.00000000000E+00  0.00000000000E+00  0.47338467540E+02  0.47338467540E+02  0.00000000000E+00 0.  1.
          1   -1    0    0  502    0  0.00000000000E+00 -0.00000000000E+00 -0.67442333564E+03  0.67442333564E+03  0.00000000000E+00 0. -1.
         23    2    1    2    0    0  0.40972996441E+02  0.14649532849E+02 -0.62938585895E+02  0.11578676881E+03  0.86901754799E+02 0.  0.
         23    2    1    2    0    0 -0.37908327290E+02  0.14889823112E+02 -0.56748901673E+03  0.57608959274E+03  0.90425033286E+02 0.  0.
        -11    1    3    3    0    0  0.65921163262E+02 -0.14804306645E+01 -0.33486468081E+02  0.73953600219E+02  0.00000000000E+00 0.  1.
         11    1    3    3    0    0 -0.24948166822E+02  0.16129963514E+02 -0.29452117814E+02  0.41833168592E+02  0.00000000000E+00 0. -1.
        -13    1    4    4    0    0  0.21539728097E+02  0.30787659170E+02 -0.20532890510E+03  0.20873859038E+03  0.00000000000E+00 0.  1.
         13    1    4    4    0    0 -0.59448055387E+02 -0.15897836058E+02 -0.36216011163E+03  0.36735100236E+03  0.00000000000E+00 0. -1.
         21    1    1    2  502  501 -0.30646691503E+01 -0.29539355961E+02  0.33427345197E+01  0.29885441634E+02  0.00000000000E+00 0.  1.
<scales pt_clust_5="13000.00000" pt_clust_6="13000.00000" pt_clust_7="13000.00000" pt_clust_8="13000.00000" pt_clust_9="29.69791"></scales>
<clustering>
<clus scale="   29.698">  1  9  2 -1</clus>
<clus scale="   86.902">  5  6 -1 -1</clus>
<clus scale="   90.425">  7  8 -1 -1</clus>
<clus scale="   95.589">  1  5  2 -1</clus>
<clus scale="   98.803">  2  5  1 -1</clus>
</clustering>
</event>
<event>
 9    1  0.1266593E-005  0.2682944E+03  0.7546771E-02  0.1102464E+00
          1   -1    0    0  502    0  0.00000000000E+00  0.00000000000E+00  0.57723935318E+03  0.57723935318E+03  0.00000000000E+00 0. -1.
         -1   -1    0    0    0  501 -0.00000000000E+00 -0.00000000000E+00 -0.21780446808E+03  0.21780446808E+03  0.00000000000E+00 0.  1.
         23    2    1    2    0    0  0.20910609659E+03  0.17909731864E+03  0.79773069164E+01  0.28878929928E+03  0.86800995244E+02 0.  0.
         23    2    1    2    0    0 -0.21547000692E+03 -0.56213906717E+02  0.24769137571E+03  0.34529410121E+03  0.91047633343E+02 0.  0.
        -13    1    4    4    0    0 -0.15012400954E+02 -0.15342946124E+02 -0.30504926562E+01  0.21681413322E+02  0.00000000000E+00 0.  1.
         13    1    4    4    0    0 -0.20045760597E+03 -0.40870960593E+02  0.25074186836E+03  0.32361268789E+03  0.00000000000E+00 0. -1.
        -13    1    3    3    0    0  0.31048755170E+02  0.77562818844E+02 -0.20523368605E+01  0.83571694677E+02  0.00000000000E+00 0. -1.
         13    1    3    3    0    0  0.17805734142E+03  0.10153449979E+03  0.10029643777E+02  0.20521760460E+03  0.00000000000E+00 0.  1.
         21    1    1    2  502  501  0.63639103294E+01 -0.12288341192E+03  0.10376620248E+03  0.16096042078E+03  0.00000000000E+00 0.  1.
<scales pt_clust_5="13000.00000" pt_clust_6="13000.00000" pt_clust_7="13000.00000" pt_clust_8="13000.00000" pt_clust_9="123.04809"></scales>
<clustering>
<clus scale="   86.801">  7  8 -1 -1</clus>
<clus scale="   91.048">  5  6 -1 -1</clus>
<clus scale="  123.048">  1  9  2 -1</clus>
<clus scale="  266.883">  2  7  1 -1</clus>
<clus scale="  123.048">  1  5  2 -1</clus>
</clustering>
</event>
<event>
 9    1  0.1266593E-005  0.1394855E+03  0.7546771E-02  0.1214086E+00
          1   -1    0    0  502    0  0.00000000000E+00  0.00000000000E+00  0.45170730960E+03  0.45170730960E+03  0.00000000000E+00 0. -1.
         -1   -1    0    0    0  501 -0.00000000000E+00 -0.00000000000E+00 -0.97977219630E+02  0.97977219630E+02  0.00000000000E+00 0.  1.
         23    2    1    2    0    0 -0.11649866217E+03  0.28637762323E+02  0.10532562291E+03  0.18405945592E+03  0.91609697940E+02 0.  0.
         23    2    1    2    0    0  0.98974759637E+02 -0.99952127696E+01  0.28813244329E+03  0.31837103740E+03  0.91890724551E+02 0.  0.
        -11    1    4    4    0    0  0.35749028823E+02 -0.33136090859E+02  0.20835224984E+03  0.21397816149E+03  0.00000000000E+00 0. -1.
         11    1    4    4    0    0  0.63225730814E+02  0.23140878089E+02  0.79780193445E+02  0.10439287592E+03  0.00000000000E+00 0.  1.
        -11    1    3    3    0    0 -0.91569183119E+02  0.52629130430E+02  0.45607243758E+02  0.11504243282E+03  0.00000000000E+00 0.  1.
         11    1    3    3    0    0 -0.24929479047E+02 -0.23991368107E+02  0.59718379150E+02  0.69017023100E+02  0.00000000000E+00 0. -1.
         21    1    1    2  502  501  0.17523902529E+02 -0.18642549553E+02 -0.39727976229E+02  0.47254035901E+02  0.00000000000E+00 0.  1.
<scales pt_clust_5="13000.00000" pt_clust_6="13000.00000" pt_clust_7="13000.00000" pt_clust_8="13000.00000" pt_clust_9="25.58577"></scales>
<clustering>
<clus scale="   25.586">  2  9  1 -1</clus>
<clus scale="   91.610">  7  8 -1 -1</clus>
<clus scale="   91.891">  5  6 -1 -1</clus>
<clus scale="  139.300">  2  7  1 -1</clus>
<clus scale="  139.485">  1  5  2 -1</clus>
</clustering>
</event>
<event>
 9    1  0.1266593E-005  0.1090195E+03  0.7546771E-02  0.1263406E+00
          1   -1    0    0  502    0  0.00000000000E+00  0.00000000000E+00  0.36282369627E+03  0.36282369627E+03  0.00000000000E+00 0. -1.
         -1   -1    0    0    0  501 -0.00000000000E+00 -0.00000000000E+00 -0.44055415302E+02  0.44055415302E+02  0.00000000000E+00 0.  1.
         23    2    1    2    0    0 -0.52642428774E+02  0.53155171491E+02  0.15678352689E+03  0.19702436345E+03  0.92956053729E+02 0.  0.
         23    2    1    2    0    0  0.32374246756E+02 -0.26235233742E+02  0.12505209791E+03  0.15985971495E+03  0.90447343401E+02 0.  0.
        -11    1    4    4    0    0  0.30617362448E+02 -0.47426949514E+01 -0.19462503701E+01  0.31043581127E+02  0.00000000000E+00 0.  1.
         11    1    4    4    0    0  0.17568843081E+01 -0.21492538791E+02  0.12699834828E+03  0.12881613382E+03  0.00000000000E+00 0. -1.
        -13    1    3    3    0    0 -0.18882021461E+02  0.75555899826E+02  0.91118988439E+02  0.11986615363E+03  0.00000000000E+00 0.  1.
         13    1    3    3    0    0 -0.33760407313E+02 -0.22400728334E+02  0.65664538450E+02  0.77158209815E+02  0.00000000000E+00 0. -1.
         21    1    1    2  502  501  0.20268182018E+02 -0.26919937749E+02  0.36932656171E+02  0.49995033179E+02  0.00000000000E+00 0.  1.
<scales pt_clust_5="13000.00000" pt_clust_6="13000.00000" pt_clust_7="13000.00000" pt_clust_8="13000.00000" pt_clust_9="33.69692"></scales>
<clustering>
<clus scale="   33.697">  2  9  1 -1</clus>
<clus scale="   90.447">  5  6 -1 -1</clus>
<clus scale="   92.956">  7  8 -1 -1</clus>
<clus scale="  106.888">  1  5  2 -1</clus>
<clus scale="  106.888">  1  5  2 -1</clus>
</clustering>
</event>
<event>
 9    1  0.1266593E-005  0.9613644E+02  0.7546771E-02  0.1288822E+00
         -2   -1    0    0    0  501 -0.00000000000E+00  0.00000000000E+00  0.88144131230E+03  0.88144131230E+03  0.00000000000E+00 0.  1.
          2   -1    0    0  502    0  0.00000000000E+00 -0.00000000000E+00 -0.20473901696E+02  0.20473901696E+02  0.00000000000E+00 0. -1.
         23    2    1    2    0    0 -0.39500655363E+02 -0.44083863666E+02  0.29960930922E+03  0.31844981130E+03  0.90226688584E+02 0.  0.
         23    2    1    2    0    0 -0.46726612275E+01  0.17207276236E+02  0.22574282340E+03  0.24389030398E+03  0.90579986440E+02 0.  0.
        -11    1    4    4    0    0  0.25864087070E+02 -0.13306346846E+02  0.24381394493E+02  0.37953422293E+02  0.00000000000E+00 0. -1.
         11    1    4    4    0    0 -0.30536748297E+02  0.30513623081E+02  0.20136142890E+03  0.20593688169E+03  0.00000000000E+00 0.  1.
        -11    1    3    3    0    0  0.21017385891E+02 -0.27679183652E+02  0.48731135178E+02  0.59854751299E+02  0.00000000000E+00 0. -1.
         11    1    3    3    0    0 -0.60518041255E+02 -0.16404680014E+02  0.25087817404E+03  0.25859506000E+03  0.00000000000E+00 0.  1.
         21    1    1    2  502  501  0.44173316591E+02  0.26876587430E+02  0.33561527799E+03  0.33957509872E+03  0.00000000000E+00 0.  1.
<scales pt_clust_5="13000.00000" pt_clust_6="13000.00000" pt_clust_7="13000.00000" pt_clust_8="13000.00000" pt_clust_9="51.70718"></scales>
<clustering>
<clus scale="   51.707">  1  9  2 -1</clus>
<clus scale="   90.227">  7  8 -1 -1</clus>
<clus scale="   90.580">  5  6 -1 -1</clus>
<clus scale="   95.804">  1  7  2 -1</clus>
<clus scale="   96.136">  2  5  1 -1</clus>
</clustering>
</event>
<event>
 9    1  0.1266593E-005  0.1044529E+03  0.7546771E-02  0.1271719E+00
          1   -1    0    0  502    0  0.00000000000E+00  0.00000000000E+00  0.28539199131E+03  0.28539199131E+03  0.00000000000E+00 0. -1.
         -1   -1    0    0    0  501 -0.00000000000E+00 -0.00000000000E+00 -0.13946180720E+03  0.13946180720E+03  0.00000000000E+00 0.  1.
         23    2    1    2    0    0  0.21001419852E+01  0.18170352595E+02 -0.86904807331E+02  0.12882008794E+03  0.93314506960E+02 0.  0.
         23    2    1    2    0    0 -0.37632529440E+01 -0.47099725902E+02  0.24328997945E+03  0.26522816963E+03  0.94463864059E+02 0.  0.
        -11    1    3    3    0    0 -0.18943563695E+02  0.20142790447E+02  0.10176657562E+02  0.29464469648E+02  0.00000000000E+00 0. -1.
         11    1    3    3    0    0  0.21043705680E+02 -0.19724378527E+01 -0.97081464894E+02  0.99355618290E+02  0.00000000000E+00 0.  1.
        -13    1    4    4    0    0 -0.65400239247E+00  0.26402995409E+02  0.31970116772E+02  0.41468472990E+02  0.00000000000E+00 0.  1.
         13    1    4    4    0    0 -0.31092505515E+01 -0.73502721311E+02  0.21131986268E+03  0.22375969664E+03  0.00000000000E+00 0. -1.
         21    1    1    2  502  501  0.16631109588E+01  0.28929373307E+02 -0.10454988018E+02  0.30805540937E+02  0.00000000000E+00 0.  1.
<scales pt_clust_5="13000.00000" pt_clust_6="13000.00000" pt_clust_7="13000.00000" pt_clust_8="13000.00000" pt_clust_9="28.97714"></scales>
<clustering>
<clus scale="   28.977">  2  9  1 -1</clus>
<clus scale="   93.315">  5  6 -1 -1</clus>
<clus scale="   94.464">  7  8 -1 -1</clus>
<clus scale="  103.415">  2  5  1 -1</clus>
<clus scale="  104.453">  1  5  2 -1</clus>
</clustering>
</event>
<event>
 9    1  0.1266593E-005  0.2056284E+03  0.7546771E-02  0.1145146E+00
         -1   -1    0    0    0  501 -0.00000000000E+00  0.00000000000E+00  0.31979403620E+02  0.31979403620E+02  0.00000000000E+00 0.  1.
          1   -1    0    0  502    0  0.00000000000E+00 -0.00000000000E+00 -0.20776291617E+04  0.20776291617E+04  0.00000000000E+00 0. -1.
         23    2    1    2    0    0  0.21463774659E+03 -0.59722639309E+02 -0.81349267006E+03  0.84816705117E+03  0.89335695765E+02 0.  0.
         23    2    1    2    0    0 -0.16574558850E+03  0.23720053199E+02 -0.10958195996E+04  0.11121949393E+04  0.90126285343E+02 0.  0.
        -11    1    3    3    0    0  0.20225437704E+03 -0.38760172593E+02 -0.78020577761E+03  0.80692641512E+03  0.00000000000E+00 0.  1.
         11    1    3    3    0    0  0.12383369555E+02 -0.20962466716E+02 -0.33286892456E+02  0.41240636049E+02  0.00000000000E+00 0. -1.
        -13    1    4    4    0    0 -0.11278187707E+02  0.33130931261E+02 -0.17562189028E+03  0.17907513638E+03  0.00000000000E+00 0.  1.
         13    1    4    4    0    0 -0.15446740079E+03 -0.94108780626E+01 -0.92019770927E+03  0.93311980296E+03  0.00000000000E+00 0. -1.
         21    1    1    2  502  501 -0.48892158097E+02  0.36002586110E+02 -0.13633748846E+03  0.14924657480E+03  0.00000000000E+00 0. -1.
<scales pt_clust_5="13000.00000" pt_clust_6="13000.00000" pt_clust_7="13000.00000" pt_clust_8="13000.00000" pt_clust_9="60.71762"></scales>
<clustering>
<clus scale="   60.718">  1  9  2 -1</clus>
<clus scale="   89.336">  5  6 -1 -1</clus>
<clus scale="   90.126">  7  8 -1 -1</clus>
<clus scale="  205.283">  1  5  2 -1</clus>
<clus scale="  205.628">  2  5  1 -1</clus>
</clustering>
</event>
<event>
 9    1  0.1266593E-005  0.9192265E+02  0.7546771E-02  0.1298588E+00
         -4   -1    0    0    0  501 -0.00000000000E+00  0.00000000000E+00  0.97289247640E+02  0.97289247640E+02  0.00000000000E+00 0.  1.
          4   -1    0    0  502    0  0.00000000000E+00 -0.00000000000E+00 -0.17058495126E+03  0.17058495126E+03  0.00000000000E+00 0. -1.
         23    2    1    2    0    0  0.34508751294E+02  0.24783241572E+02 -0.17575988445E+02  0.10210957582E+03  0.91172293633E+02 0.  0.
         23    2    1    2    0    0  0.17673582776E+01  0.53519675005E+01 -0.71999884179E+02  0.11587343293E+03  0.90614027759E+02 0.  0.
        -11    1    3    3    0    0  0.55508971490E+02 -0.11320146698E+02 -0.20485510214E+02  0.60241578381E+02  0.00000000000E+00 0. -1.
         11    1    3    3    0    0 -0.21000220196E+02  0.36103388271E+02  0.29095217695E+01  0.41867997442E+02  0.00000000000E+00 0.  1.
        -13    1    4    4    0    0 -0.26756769635E+02 -0.28155112400E+02 -0.57794049732E+02  0.69633233876E+02  0.00000000000E+00 0.  1.
         13    1    4    4    0    0  0.28524127913E+02  0.33507079900E+02 -0.14205834447E+02  0.46240199058E+02  0.00000000000E+00 0. -1.
         21    1    1    2  502  501 -0.36276109571E+02 -0.30135209073E+02  0.16280169001E+02  0.49891190146E+02  0.00000000000E+00 0.  1.
<scales pt_clust_5="13000.00000" pt_clust_6="13000.00000" pt_clust_7="13000.00000" pt_clust_8="13000.00000" pt_clust_9="47.16023"></scales>
<clustering>
<clus scale="   47.160">  1  9  2 -1</clus>
<clus scale="   90.614">  7  8 -1 -1</clus>
<clus scale="   91.172">  5  6 -1 -1</clus>
<clus scale="   91.369">  2  7  1 -1</clus>
<clus scale="   91.369">  2  5  1 -1</clus>
</clustering>
</event>
<event>
 9    1  0.1266593E-005  0.9367857E+02  0.7546771E-02  0.1296780E+00
          1   -1    0    0  502    0  0.00000000000E+00  0.00000000000E+00  0.28299107031E+02  0.28299107031E+02  0.00000000000E+00 0. -1.
         -1   -1    0    0    0  501 -0.00000000000E+00 -0.00000000000E+00 -0.48516312159E+03  0.48516312159E+03  0.00000000000E+00 0.  1.
         23    2    1    2    0    0  0.23382692308E+02  0.78744100056E+01 -0.25601870270E+03  0.27206772793E+03  0.88693380907E+02 0.  0.
         23    2    1    2    0    0  0.12080034562E+02  0.48785642130E+01 -0.16168884740E+03  0.18704864476E+03  0.93135302155E+02 0.  0.
        -11    1    3    3    0    0  0.48683901054E+02 -0.20570894811E+02 -0.16937562990E+03  0.17742995220E+03  0.00000000000E+00 0.  1.
         11    1    3    3    0    0 -0.25301208747E+02  0.28445304817E+02 -0.86643072798E+02  0.94637775724E+02  0.00000000000E+00 0. -1.
        -13    1    4    4    0    0  0.24619188801E+02  0.42519666312E+02 -0.11913403170E+03  0.12886793235E+03  0.00000000000E+00 0.  1.
         13    1    4    4    0    0 -0.12539154239E+02 -0.37641102098E+02 -0.42554815705E+02  0.58180712404E+02  0.00000000000E+00 0. -1.
         21    1    1    2  502  501 -0.35462726870E+02 -0.12752974219E+02 -0.39156464464E+02  0.54345855939E+02  0.00000000000E+00 0. -1.
<scales pt_clust_5="13000.00000" pt_clust_6="13000.00000" pt_clust_7="13000.00000" pt_clust_8="13000.00000" pt_clust_9="37.68612"></scales>
<clustering>
<clus scale="   37.686">  1  9  2 -1</clus>
<clus scale="   88.693">  5  6 -1 -1</clus>
<clus scale="   89.264">  2  5  1 -1</clus>
<clus scale="   93.135">  7  8 -1 -1</clus>
<clus scale="   37.686">  1  5  2 -1</clus>
</clustering>
</event>
<event>
 9    1  0.1266593E-005  0.9551636E+02  0.7546771E-02  0.1305625E+00
          1   -1    0    0  502    0  0.00000000000E+00  0.00000000000E+00  0.30341487755E+03  0.30341487755E+03  0.00000000000E+00 0. -1.
         -1   -1    0    0    0  501 -0.00000000000E+00 -0.00000000000E+00 -0.33251860010E+02  0.33251860010E+02  0.00000000000E+00 0.  1.
         23    2    1    2    0    0 -0.57689145641E+01  0.12158436745E+02  0.85417307401E+02  0.12738087316E+03  0.93534285070E+02 0.  0.
         23    2    1    2    0    0 -0.89613547445E+01 -0.28800941173E+02  0.12977511321E+03  0.14999235452E+03  0.68893586885E+02 0.  0.
        -11    1    4    4    0    0  0.16401472159E+02 -0.21478670875E+02  0.12487236155E+02  0.29770331848E+02  0.00000000000E+00 0.  1.
         11    1    4    4    0    0 -0.25362826903E+02 -0.73222702981E+01  0.11728787705E+03  0.12022202267E+03  0.00000000000E+00 0. -1.
        -13    1    3    3    0    0 -0.44497446378E+02  0.15617462107E+02  0.72347725528E+02  0.86360414808E+02  0.00000000000E+00 0. -1.
         13    1    3    3    0    0  0.38728531814E+02 -0.34590253621E+01  0.13069581874E+02  0.41020458350E+02  0.00000000000E+00 0.  1.
         21    1    1    2  502  501  0.14730269309E+02  0.16642504428E+02  0.54970596929E+02  0.59293509883E+02  0.00000000000E+00 0.  1.
<scales pt_clust_5="13000.00000" pt_clust_6="13000.00000" pt_clust_7="13000.00000" pt_clust_8="13000.00000" pt_clust_9="22.22507"></scales>
<clustering>
<clus scale="   22.225">  1  9  2 -1</clus>
<clus scale="   68.894">  5  6 -1 -1</clus>
<clus scale="   71.561">  1  5  2 -1</clus>
<clus scale="   93.534">  7  8 -1 -1</clus>
<clus scale="   22.225">  1  5  2 -1</clus>
</clustering>
</event>
<event>
 9    1  0.1266593E-005  0.9716646E+02  0.7546771E-02  0.1288154E+00
         -1   -1    0    0    0  501 -0.00000000000E+00  0.00000000000E+00  0.20681747267E+03  0.20681747267E+03  0.00000000000E+00 0.  1.
          1   -1    0    0  502    0  0.00000000000E+00 -0.00000000000E+00 -0.11773036760E+03  0.11773036760E+03  0.00000000000E+00 0. -1.
         23    2    1    2    0    0  0.33317655196E+02  0.54659167877E+02  0.10291996959E+03  0.15032836680E+03  0.88929224352E+02 0.  0.
         23    2    1    2    0    0 -0.28541355097E+02  0.43228186976E+01 -0.45740372480E+02  0.10699018783E+03  0.92311553475E+02 0.  0.
        -11    1    4    4    0    0 -0.28320823003E+02  0.46168863641E+02 -0.19343165073E+02  0.57513398618E+02  0.00000000000E+00 0.  1.
         11    1    4    4    0    0 -0.22053209352E+00 -0.41846044944E+02 -0.26397207407E+02  0.49476789212E+02  0.00000000000E+00 0. -1.
        -11    1    3    3    0    0 -0.29499008429E+02  0.10082138680E+02  0.19427333870E+02  0.36732306216E+02  0.00000000000E+00 0. -1.
         11    1    3    3    0    0  0.62816663625E+02  0.44577029197E+02  0.83492635718E+02  0.11359606058E+03  0.00000000000E+00 0.  1.
         21    1    1    2  502  501 -0.47763000992E+01 -0.58981986574E+02  0.31907507959E+02  0.67229285635E+02  0.00000000000E+00 0.  1.
<scales pt_clust_5="13000.00000" pt_clust_6="13000.00000" pt_clust_7="13000.00000" pt_clust_8="13000.00000" pt_clust_9="59.17506"></scales>
<clustering>
<clus scale="   59.175">  1  9  2 -1</clus>
<clus scale="   88.929">  7  8 -1 -1</clus>
<clus scale="   92.312">  5  6 -1 -1</clus>
<clus scale="   93.959">  1  7  2 -1</clus>
<clus scale="   97.166">  2  5  1 -1</clus>
</clustering>
</event>
<event>
 9    1  0.1266593E-005  0.9625070E+02  0.7546771E-02  0.1288713E+00
         -2   -1    0    0    0  501 -0.00000000000E+00  0.00000000000E+00  0.25624570152E+02  0.25624570152E+02  0.00000000000E+00 0.  1.
          2   -1    0    0  502    0  0.00000000000E+00 -0.00000000000E+00 -0.62823698457E+03  0.62823698457E+03  0.00000000000E+00 0. -1.
         23    2    1    2    0    0  0.50952669908E+02  0.64143132658E+01 -0.18364653957E+03  0.21108157846E+03  0.90510017590E+02 0.  0.
         23    2    1    2    0    0 -0.14824913197E+01 -0.19673301996E+02 -0.27261441952E+03  0.28772563796E+03  0.89878720579E+02 0.  0.
        -13    1    3    3    0    0  0.13413768902E+01  0.35367191573E+02 -0.12107479637E+03  0.12614176091E+03  0.00000000000E+00 0. -1.
         13    1    3    3    0    0  0.49611293018E+02 -0.28952878307E+02 -0.62571743206E+02  0.84939817547E+02  0.00000000000E+00 0.  1.
        -13    1    4    4    0    0  0.43205204493E+02 -0.13796472998E+02 -0.16335907708E+03  0.16953825653E+03  0.00000000000E+00 0.  1.
         13    1    4    4    0    0 -0.44687695812E+02 -0.58768289980E+01 -0.10925534244E+03  0.11818738143E+03  0.00000000000E+00 0. -1.
         21    1    1    2  502  501 -0.49470178588E+02  0.13258988730E+02 -0.14635145533E+03  0.15505433831E+03  0.00000000000E+00 0. -1.
<scales pt_clust_5="13000.00000" pt_clust_6="13000.00000" pt_clust_7="13000.00000" pt_clust_8="13000.00000" pt_clust_9="51.21620"></scales>
<clustering>
<clus scale="   51.216">  2  9  1 -1</clus>
<clus scale="   89.879">  7  8 -1 -1</clus>
<clus scale="   90.510">  5  6 -1 -1</clus>
<clus scale="   95.657">  2  7  1 -1</clus>
<clus scale="   51.216">  2  5  1 -1</clus>
</clustering>
</event>
<event>
 9    1  0.1266593E-005  0.1207056E+03  0.7546771E-02  0.1249345E+00
         -1   -1    0    0    0  501 -0.00000000000E+00  0.00000000000E+00  0.16668626937E+03  0.16668626937E+03  0.00000000000E+00 0.  1.
          1   -1    0    0  502    0  0.00000000000E+00 -0.00000000000E+00 -0.97642872910E+02  0.97642872910E+02  0.00000000000E+00 0. -1.
         23    2    1    2    0    0 -0.11180104975E+02 -0.45251201009E+02  0.34202129256E+02  0.10968328139E+03  0.93209284036E+02 0.  0.
         23    2    1    2    0    0 -0.12515733004E+02  0.46894872592E+02  0.12944208690E+02  0.12233989294E+03  0.11155144203E+03 0.  0.
        -11    1    3    3    0    0 -0.23034394204E+02 -0.67121442474E+02  0.47377004488E+01  0.71121847289E+02  0.00000000000E+00 0. -1.
         11    1    3    3    0    0  0.11854289230E+02  0.21870241466E+02  0.29464428807E+02  0.38561434100E+02  0.00000000000E+00 0.  1.
        -11    1    4    4    0    0  0.49853913168E+01  0.78931183432E+02 -0.92342673037E+01  0.79625734139E+02  0.00000000000E+00 0.  1.
         11    1    4    4    0    0 -0.17501124320E+02 -0.32036310839E+02  0.22178475994E+02  0.42714158801E+02  0.00000000000E+00 0. -1.
         21    1    1    2  502  501  0.23695837979E+02 -0.16436715836E+01  0.21897058516E+02  0.32305967954E+02  0.00000000000E+00 0. -1.
<scales pt_clust_5="13000.00000" pt_clust_6="13000.00000" pt_clust_7="13000.00000" pt_clust_8="13000.00000" pt_clust_9="23.75278"></scales>
<clustering>
<clus scale="   23.753">  1  9  2 -1</clus>
<clus scale="   93.209">  5  6 -1 -1</clus>
<clus scale="  103.991">  1  5  2 -1</clus>
<clus scale="  111.551">  7  8 -1 -1</clus>
<clus scale="  120.706">  2  5  1 -1</clus>
</clustering>
</event>
<event>
 9    1  0.1266593E-005  0.9979491E+02  0.7546771E-02  0.1281356E+00
         -2   -1    0    0    0  501 -0.00000000000E+00  0.00000000000E+00  0.92057124177E+02  0.92057124177E+02  0.00000000000E+00 0.  1.
          2   -1    0    0  502    0  0.00000000000E+00 -0.00000000000E+00 -0.15326283585E+03  0.15326283585E+03  0.00000000000E+00 0. -1.
         23    2    1    2    0    0 -0.42416817610E+02  0.10184712531E+02 -0.88621502124E+01  0.10078155105E+03  0.90418297593E+02 0.  0.
         23    2    1    2    0    0  0.28809865647E+02 -0.25915017771E+02 -0.66187901434E+02  0.11955326552E+03  0.91709042608E+02 0.  0.
        -11    1    3    3    0    0 -0.18385788058E+02  0.17872241795E+02  0.39001410156E+02  0.46675092110E+02  0.00000000000E+00 0.  1.
         11    1    3    3    0    0 -0.24031029553E+02 -0.76875292643E+01 -0.47863560369E+02  0.54106458937E+02  0.00000000000E+00 0. -1.
        -11    1    4    4    0    0  0.51419995837E+02 -0.10034677979E+02 -0.74157831523E+02  0.90796997254E+02  0.00000000000E+00 0.  1.
         11    1    4    4    0    0 -0.22610130190E+02 -0.15880339792E+02  0.79699300889E+01  0.28756268268E+02  0.00000000000E+00 0. -1.
         21    1    1    2  502  501  0.13606951963E+02  0.15730305240E+02  0.13844339969E+02  0.24985143463E+02  0.00000000000E+00 0.  1.
<scales pt_clust_5="13000.00000" pt_clust_6="13000.00000" pt_clust_7="13000.00000" pt_clust_8="13000.00000" pt_clust_9="20.79884"></scales>
<clustering>
<clus scale="   20.799">  1  9  2 -1</clus>
<clus scale="   90.418">  5  6 -1 -1</clus>
<clus scale="   91.709">  7  8 -1 -1</clus>
<clus scale="   98.610">  1  5  2 -1</clus>
<clus scale="   99.795">  2  5  1 -1</clus>
</clustering>
</event>
<event>
 9    1  0.1266593E-005  0.4025374E+03  0.7546771E-02  0.1042925E+00
         -2   -1    0    0    0  501 -0.00000000000E+00  0.00000000000E+00  0.19070161738E+04  0.19070161738E+04  0.00000000000E+00 0.  1.
          2   -1    0    0  502    0  0.00000000000E+00 -0.00000000000E+00 -0.11533999951E+03  0.11533999951E+03  0.00000000000E+00 0. -1.
         23    2    1    2    0    0  0.36254905640E+03 -0.23436523281E+03  0.12127176966E+04  0.12904097669E+04  0.90023742861E+02 0.  0.
         23    2    1    2    0    0 -0.27772009972E+03  0.17527419859E+03  0.40213944408E+03  0.52712289000E+03  0.91065417128E+02 0.  0.
        -11    1    3    3    0    0  0.28604941259E+03 -0.19742352797E+03  0.10616392100E+04  0.11170846557E+04  0.00000000000E+00 0.  1.
         11    1    3    3    0    0  0.76499643807E+02 -0.36941704831E+02  0.15107848658E+03  0.17332511118E+03  0.00000000000E+00 0. -1.
        -13    1    4    4    0    0 -0.22615001337E+03  0.11645046197E+03  0.25330475070E+03  0.35898166439E+03  0.00000000000E+00 0. -1.
         13    1    4    4    0    0 -0.51570086346E+02  0.58823736612E+02  0.14883469338E+03  0.16814122560E+03  0.00000000000E+00 0.  1.
         21    1    1    2  502  501 -0.84828956681E+02  0.59091034220E+02  0.17681903357E+03  0.20482351635E+03  0.00000000000E+00 0.  1.
<scales pt_clust_5="13000.00000" pt_clust_6="13000.00000" pt_clust_7="13000.00000" pt_clust_8="13000.00000" pt_clust_9="103.38134"></scales>
<clustering>
<clus scale="   90.024">  5  6 -1 -1</clus>
<clus scale="   91.065">  7  8 -1 -1</clus>
<clus scale="  103.381">  2  9  1 -1</clus>
<clus scale="  402.303">  1  5  2 -1</clus>
<clus scale="  103.381">  2  5  1 -1</clus>
</clustering>
</event>
<event>
 9    1  0.1266593E-005  0.1473354E+03  0.7546771E-02  0.1216929E+00
          1   -1    0    0  502    0  0.00000000000E+00  0.00000000000E+00  0.83543036655E+02  0.83543036655E+02  0.00000000000E+00 0. -1.
         -1   -1    0    0    0  501 -0.00000000000E+00 -0.00000000000E+00 -0.63332935802E+03  0.63332935802E+03  0.00000000000E+00 0.  1.
         23    2    1    2    0    0  0.58264730778E+02  0.10034145005E+03 -0.40469772219E+03  0.43025870185E+03  0.88764400076E+02 0.  0.
         23    2    1    2    0    0 -0.32721473696E+02  0.22162597232E+02 -0.26942096168E+02  0.11451402474E+03  0.10404667107E+03 0.  0.
        -13    1    3    3    0    0  0.35576101878E+02  0.66830921820E+01 -0.44347085912E+02  0.57244971612E+02  0.00000000000E+00 0. -1.
         13    1    3    3    0    0  0.22688628899E+02  0.93658357865E+02 -0.36035063628E+03  0.37301373023E+03  0.00000000000E+00 0.  1.
        -13    1    4    4    0    0 -0.63126972022E+02 -0.13337672389E+02 -0.14155603180E+02  0.66055198151E+02  0.00000000000E+00 0. -1.
         13    1    4    4    0    0  0.30405498326E+02  0.35500269621E+02 -0.12786492988E+02  0.48458826591E+02  0.00000000000E+00 0.  1.
         21    1    1    2  502  501 -0.25543257082E+02 -0.12250404728E+03 -0.11814650301E+03  0.17209966809E+03  0.00000000000E+00 0. -1.
<scales pt_clust_5="13000.00000" pt_clust_6="13000.00000" pt_clust_7="13000.00000" pt_clust_8="13000.00000" pt_clust_9="117.59508"></scales>
<clustering>
<clus scale="   88.764">  5  6 -1 -1</clus>
<clus scale="  104.047">  7  8 -1 -1</clus>
<clus scale="  111.300">  1  7  2 -1</clus>
<clus scale="  117.595">  1  9  2 -1</clus>
<clus scale="  111.300">  1  5  2 -1</clus>
</clustering>
</event>
<event>
 9    1  0.1266593E-005  0.1611059E+03  0.7546771E-02  0.1188792E+00
          1   -1    0    0  502    0  0.00000000000E+00  0.00000000000E+00  0.11818347466E+03  0.11818347466E+03  0.00000000000E+00 0. -1.
         -1   -1    0    0    0  501 -0.00000000000E+00 -0.00000000000E+00 -0.38681152453E+03  0.38681152453E+03  0.00000000000E+00 0.  1.
         23    2    1    2    0    0  0.10621170247E+03 -0.78952798330E+02 -0.17871181333E+03  0.24017949913E+03  0.90740340928E+02 0.  0.
         23    2    1    2    0    0 -0.85780397806E+02  0.92562554167E+02  0.11391883400E+02  0.16057539824E+03  0.98633566454E+02 0.  0.
        -11    1    3    3    0    0  0.74265999336E+02 -0.16286801191E+02 -0.14142963590E+03  0.16057098262E+03  0.00000000000E+00 0.  1.
         11    1    3    3    0    0  0.31945703129E+02 -0.62665997138E+02 -0.37282177437E+02  0.79608516505E+02  0.00000000000E+00 0. -1.
        -11    1    4    4    0    0  0.10023381097E+02  0.50825769362E+02 -0.12689590672E+02  0.53336223257E+02  0.00000000000E+00 0.  1.
         11    1    4    4    0    0 -0.95803778903E+02  0.41736784805E+02  0.24081474072E+02  0.10723917498E+03  0.00000000000E+00 0. -1.
         21    1    1    2  502  501 -0.20431304659E+02 -0.13609755838E+02 -0.10130811993E+03  0.10424010182E+03  0.00000000000E+00 0. -1.
<scales pt_clust_5="13000.00000" pt_clust_6="13000.00000" pt_clust_7="13000.00000" pt_clust_8="13000.00000" pt_clust_9="24.54921"></scales>
<clustering>
<clus scale="   24.549">  2  9  1 -1</clus>
<clus scale="   90.740">  5  6 -1 -1</clus>
<clus scale="   98.634">  7  8 -1 -1</clus>
<clus scale="  156.398">  2  5  1 -1</clus>
<clus scale="  161.106">  1  5  2 -1</clus>
</clustering>
</event>
<event>
 9    1  0.1266593E-005  0.1405579E+03  0.7546771E-02  0.1212624E+00
          2   -1    0    0  502    0  0.00000000000E+00  0.00000000000E+00  0.47549130647E+03  0.47549130647E+03  0.00000000000E+00 0. -1.
         -2   -1    0    0    0  501 -0.00000000000E+00 -0.00000000000E+00 -0.67472377541E+02  0.67472377541E+02  0.00000000000E+00 0.  1.
         23    2    1    2    0    0 -0.14287428747E+02 -0.86077401936E+02  0.14790630387E+03  0.19501836176E+03  0.92425304721E+02 0.  0.
         23    2    1    2    0    0 -0.38706573157E+02  0.12827145322E+03  0.17331580672E+03  0.23784359713E+03  0.92625284459E+02 0.  0.
        -13    1    4    4    0    0 -0.29479819368E+02  0.81156053881E+01  0.52286271187E+01  0.31020337560E+02  0.00000000000E+00 0.  1.
         13    1    4    4    0    0 -0.92267537891E+01  0.12015584783E+03  0.16808717960E+03  0.20682325957E+03  0.00000000000E+00 0. -1.
        -13    1    3    3    0    0  0.31571529282E+02 -0.55106980473E+02  0.43896566392E+02  0.77203946137E+02  0.00000000000E+00 0.  1.
         13    1    3    3    0    0 -0.45858958029E+02 -0.30970421463E+02  0.10400973748E+03  0.11781441562E+03  0.00000000000E+00 0. -1.
         21    1    1    2  502  501  0.52994001904E+02 -0.42194051284E+02  0.86796818336E+02  0.11010172512E+03  0.00000000000E+00 0.  1.
<scales pt_clust_5="13000.00000" pt_clust_6="13000.00000" pt_clust_7="13000.00000" pt_clust_8="13000.00000" pt_clust_9="67.73996"></scales>
<clustering>
<clus scale="   67.740">  1  9  2 -1</clus>
<clus scale="   92.425">  7  8 -1 -1</clus>
<clus scale="   92.625">  5  6 -1 -1</clus>
<clus scale="  140.426">  2  7  1 -1</clus>
<clus scale="   67.740">  1  5  2 -1</clus>
</clustering>
</event>
<event>
 9    1  0.1266593E-005  0.1348696E+03  0.7546771E-02  0.1220646E+00
         -3   -1    0    0    0  501 -0.00000000000E+00  0.00000000000E+00  0.11680836355E+03  0.11680836355E+03  0.00000000000E+00 0.  1.
          3   -1    0    0  502    0  0.00000000000E+00 -0.00000000000E+00 -0.27440428905E+03  0.27440428905E+03  0.00000000000E+00 0. -1.
         23    2    1    2    0    0  0.14085429165E+02 -0.81775124035E+02  0.25294995066E+02  0.12542930652E+03  0.90593067802E+02 0.  0.
         23    2    1    2    0    0  0.12752105946E+02  0.10404779540E+03 -0.18419340535E+03  0.23088317921E+03  0.91603886010E+02 0.  0.
        -11    1    4    4    0    0  0.30985877741E+02  0.11972264557E+02 -0.13049929774E+02  0.35689780121E+02  0.00000000000E+00 0.  1.
         11    1    4    4    0    0 -0.18233771794E+02  0.92075530846E+02 -0.17114347558E+03  0.19519339909E+03  0.00000000000E+00 0. -1.
        -13    1    3    3    0    0  0.33006415046E+02 -0.22885353483E+01  0.28486620272E+02  0.43659459029E+02  0.00000000000E+00 0. -1.
         13    1    3    3    0    0 -0.18920985880E+02 -0.79486588686E+02 -0.31916252062E+01  0.81769847494E+02  0.00000000000E+00 0.  1.
         21    1    1    2  502  501 -0.26837535112E+02 -0.22272671369E+02  0.13024847804E+01  0.34900166867E+02  0.00000000000E+00 0.  1.
<scales pt_clust_5="13000.00000" pt_clust_6="13000.00000" pt_clust_7="13000.00000" pt_clust_8="13000.00000" pt_clust_9="34.87585"></scales>
<clustering>
<clus scale="   34.876">  1  9  2 -1</clus>
<clus scale="   90.593">  7  8 -1 -1</clus>
<clus scale="   91.604">  5  6 -1 -1</clus>
<clus scale="  134.185">  1  7  2 -1</clus>
<clus scale="  134.870">  2  5  1 -1</clus>
</clustering>
</event>
<event>
 9    1  0.1266593E-005  0.1438593E+03  0.7546771E-02  0.1209538E+00
          1   -1    0    0  502    0  0.00000000000E+00  0.00000000000E+00  0.63913396940E+03  0.63913396940E+03  0.00000000000E+00 0. -1.
         -1   -1    0    0    0  501 -0.00000000000E+00 -0.00000000000E+00 -0.53335146519E+02  0.53335146519E+02  0.00000000000E+00 0.  1.
         23    2    1    2    0    0 -0.66432421441E+02  0.56272456569E+02  0.17478023799E+03  0.21526629089E+03  0.90617815094E+02 0.  0.
         23    2    1    2    0    0  0.99622915559E+02 -0.67213821524E+02  0.41432983985E+03  0.44209888257E+03  0.96642551030E+02 0.  0.
        -11    1    3    3    0    0 -0.37202242183E+02  0.72626558170E+02  0.15794616266E+03  0.17777967846E+03  0.00000000000E+00 0.  1.
         11    1    3    3    0    0 -0.29230179258E+02 -0.16354101602E+02  0.16834075329E+02  0.37486612421E+02  0.00000000000E+00 0. -1.
        -13    1    4    4    0    0  0.67399662535E+02 -0.55547730023E+02  0.39101304951E+03  0.40064881094E+03  0.00000000000E+00 0. -1.
         13    1    4    4    0    0  0.32223253024E+02 -0.11666091501E+02  0.23316790344E+02  0.41450071632E+02  0.00000000000E+00 0.  1.
         21    1    1    2  502  501 -0.33190494118E+02  0.10941364955E+02 -0.33112549640E+01  0.35103942461E+02  0.00000000000E+00 0. -1.
<scales pt_clust_5="13000.00000" pt_clust_6="13000.00000" pt_clust_7="13000.00000" pt_clust_8="13000.00000" pt_clust_9="34.94742"></scales>
<clustering>
<clus scale="   34.947">  2  9  1 -1</clus>
<clus scale="   90.618">  5  6 -1 -1</clus>
<clus scale="   96.643">  7  8 -1 -1</clus>
<clus scale="  139.883">  2  5  1 -1</clus>
<clus scale="  143.859">  1  5  2 -1</clus>
</clustering>
</event>
<event>
 9    1  0.1266593E-005  0.1013496E+03  0.7546771E-02  0.1280692E+00
          1   -1    0    0  502    0  0.00000000000E+00  0.00000000000E+00  0.63893294503E+02  0.63893294503E+02  0.00000000000E+00 0. -1.
         -1   -1    0    0    0  501 -0.00000000000E+00 -0.00000000000E+00 -0.46831773154E+03  0.46831773154E+03  0.00000000000E+00 0.  1.
         23    2    1    2    0    0 -0.99738713660E+01 -0.40712014040E+02 -0.21247587866E+03  0.23760476803E+03  0.97739861792E+02 0.  0.
         23    2    1    2    0    0  0.30497257855E+02 -0.94508573066E+01 -0.18366665180E+01  0.96919499522E+02  0.91491062969E+02 0.  0.
        -13    1    4    4    0    0  0.12042649049E+02  0.27482742701E+02 -0.33437450068E+02  0.44926491178E+02  0.00000000000E+00 0. -1.
         13    1    4    4    0    0  0.18454608806E+02 -0.36933600008E+02  0.31600783550E+02  0.51993008344E+02  0.00000000000E+00 0.  1.
        -13    1    3    3    0    0 -0.26115647345E+02  0.88886426841E+01 -0.11359202542E+02  0.29833982091E+02  0.00000000000E+00 0. -1.
         13    1    3    3    0    0  0.16141775979E+02 -0.49600656724E+02 -0.20111667611E+03  0.20777078594E+03  0.00000000000E+00 0.  1.
         21    1    1    2  502  501 -0.20523386489E+02  0.50162871346E+02 -0.19011189187E+03  0.19768675849E+03  0.00000000000E+00 0. -1.
<scales pt_clust_5="13000.00000" pt_clust_6="13000.00000" pt_clust_7="13000.00000" pt_clust_8="13000.00000" pt_clust_9="54.19892"></scales>
<clustering>
<clus scale="   54.199">  2  9  1 -1</clus>
<clus scale="   91.491">  5  6 -1 -1</clus>
<clus scale="   95.338">  1  5  2 -1</clus>
<clus scale="   97.740">  7  8 -1 -1</clus>
<clus scale="   95.338">  1  5  2 -1</clus>
</clustering>
</event>
<event>
 9    1  0.1266593E-005  0.2467878E+03  0.7546771E-02  0.1115388E+00
         -1   -1    0    0    0  501 -0.00000000000E+00  0.00000000000E+00  0.93107358879E+02  0.93107358879E+02  0.00000000000E+00 0.  1.
          1   -1    0    0  502    0  0.00000000000E+00 -0.00000000000E+00 -0.10361094012E+04  0.10361094012E+04  0.00000000000E+00 0. -1.
         23    2    1    2    0    0  0.24302751854E+03 -0.14349212930E+02 -0.19122042971E+03  0.32244775784E+03  0.90216567870E+02 0.  0.
         23    2    1    2    0    0 -0.22296502539E+03  0.33887981779E+02 -0.73489272490E+03  0.77406576621E+03  0.90822328990E+02 0.  0.
        -11    1    4    4    0    0 -0.70927989393E+02 -0.27990643752E+02 -0.18218886556E+03  0.19750199632E+03  0.00000000000E+00 0. -1.
         11    1    4    4    0    0 -0.15203703600E+03  0.61878625531E+02 -0.55270385935E+03  0.57656376989E+03  0.00000000000E+00 0.  1.
        -11    1    3    3    0    0  0.47982127098E+02 -0.18206632427E+02 -0.30635213051E+01  0.51411585737E+02  0.00000000000E+00 0.  1.
         11    1    3    3    0    0  0.19504539145E+03  0.38574194973E+01 -0.18815690841E+03  0.27103617211E+03  0.00000000000E+00 0. -1.
         21    1    1    2  502  501 -0.20062493150E+02 -0.19538768849E+02 -0.16888887733E+02  0.32703236054E+02  0.00000000000E+00 0.  1.
<scales pt_clust_5="13000.00000" pt_clust_6="13000.00000" pt_clust_7="13000.00000" pt_clust_8="13000.00000" pt_clust_9="28.00477"></scales>
<clustering>
<clus scale="   28.005">  1  9  2 -1</clus>
<clus scale="   90.217">  7  8 -1 -1</clus>
<clus scale="   90.822">  5  6 -1 -1</clus>
<clus scale="  246.565">  1  7  2 -1</clus>
<clus scale="  246.788">  2  5  1 -1</clus>
</clustering>
</event>
<event>
 9    1  0.1266593E-005  0.1297503E+03  0.7546771E-02  0.1228193E+00
          1   -1    0    0  502    0  0.00000000000E+00  0.00000000000E+00  0.16189893976E+03  0.16189893976E+03  0.00000000000E+00 0. -1.
         -1   -1    0    0    0  501 -0.00000000000E+00 -0.00000000000E+00 -0.12802296545E+03  0.12802296545E+03  0.00000000000E+00 0.  1.
         23    2    1    2    0    0 -0.93702295143E+02 -0.28839063739E+02 -0.22791402797E+02  0.13685884152E+03  0.92731239337E+02 0.  0.
         23    2    1    2    0    0  0.73016837057E+02  0.30719761389E+02  0.52769522038E+02  0.13192971388E+03  0.91354609710E+02 0.  0.
        -11    1    3    3    0    0 -0.47070438109E+00  0.20991114918E+02  0.13647663805E+02  0.25042108446E+02  0.00000000000E+00 0. -1.
         11    1    3    3    0    0 -0.93231590762E+02 -0.49830178657E+02 -0.36439066602E+02  0.11181673308E+03  0.00000000000E+00 0.  1.
        -13    1    4    4    0    0  0.81909041874E+02  0.12797266417E+02  0.67644867477E+02  0.10699854795E+03  0.00000000000E+00 0. -1.
         13    1    4    4    0    0 -0.88922048169E+01  0.17922494972E+02 -0.14875345439E+02  0.24931165927E+02  0.00000000000E+00 0.  1.
         21    1    1    2  502  501  0.20685458086E+02 -0.18806976504E+01  0.38978550648E+01  0.21133349805E+02  0.00000000000E+00 0. -1.
<scales pt_clust_5="13000.00000" pt_clust_6="13000.00000" pt_clust_7="13000.00000" pt_clust_8="13000.00000" pt_clust_9="20.77078"></scales>
<clustering>
<clus scale="   20.771">  1  9  2 -1</clus>
<clus scale="   91.355">  7  8 -1 -1</clus>
<clus scale="   92.731">  5  6 -1 -1</clus>
<clus scale="  128.770">  1  7  2 -1</clus>
<clus scale="   20.771">  1  5  2 -1</clus>
</clustering>
</event>
<event>
 9    1  0.1266593E-005  0.9366732E+02  0.7546771E-02  0.1299308E+00
          3   -1    0    0  502    0  0.00000000000E+00  0.00000000000E+00  0.56537447232E+02  0.56537447232E+02  0.00000000000E+00 0. -1.
         -3   -1    0    0    0  501 -0.00000000000E+00 -0.00000000000E+00 -0.98958094850E+03  0.98958094850E+03  0.00000000000E+00 0.  1.
         23    2    1    2    0    0  0.41155314551E+02 -0.64472530580E+02 -0.37754915288E+03  0.39616432407E+03  0.92478871684E+02 0.  0.
         23    2    1    2    0    0 -0.12119481084E+02 -0.65045756395E+01  0.41014936765E+01  0.85128137692E+02  0.83909393100E+02 0.  0.
        -11    1    4    4    0    0 -0.33941340075E+02  0.11822748927E+02 -0.25477059301E+02  0.44055334625E+02  0.00000000000E+00 0.  1.
         11    1    4    4    0    0  0.21821858990E+02 -0.18327324567E+02  0.29578552977E+02  0.41072803067E+02  0.00000000000E+00 0. -1.
        -13    1    3    3    0    0 -0.58324918958E+01 -0.63367243291E+02 -0.13688260710E+03  0.15095122925E+03  0.00000000000E+00 0.  1.
         13    1    3    3    0    0  0.46987806447E+02 -0.11052872884E+01 -0.24066654578E+03  0.24521309482E+03  0.00000000000E+00 0. -1.
         21    1    1    2  502  501 -0.29035833467E+02  0.70977106219E+02 -0.55959584206E+03  0.56482593397E+03  0.00000000000E+00 0.  1.
<scales pt_clust_5="13000.00000" pt_clust_6="13000.00000" pt_clust_7="13000.00000" pt_clust_8="13000.00000" pt_clust_9="76.68656"></scales>
<clustering>
<clus scale="   76.687">  2  9  1 -1</clus>
<clus scale="   83.909">  5  6 -1 -1</clus>
<clus scale="   85.217">  1  5  2 -1</clus>
<clus scale="   92.479">  7  8 -1 -1</clus>
<clus scale="   85.217">  1  5  2 -1</clus>
</clustering>
</event>
<event>
 9    1  0.1266593E-005  0.1458004E+03  0.7546771E-02  0.1205918E+00
          1   -1    0    0  502    0  0.00000000000E+00  0.00000000000E+00  0.11205323355E+04  0.11205323355E+04  0.00000000000E+00 0. -1.
         -1   -1    0    0    0  501 -0.00000000000E+00 -0.00000000000E+00 -0.48299364572E+02  0.48299364572E+02  0.00000000000E+00 0.  1.
         23    2    1    2    0    0 -0.59873866884E+02  0.10607904436E+03  0.25908162702E+03  0.30034936539E+03  0.90822949985E+02 0.  0.
         23    2    1    2    0    0 -0.96983506283E+01 -0.11538464707E+03  0.77427391028E+03  0.78824305169E+03  0.91756992209E+02 0.  0.
        -11    1    3    3    0    0 -0.29367908566E+02 -0.73374269312E+01  0.86083746953E+02  0.91250881513E+02  0.00000000000E+00 0. -1.
         11    1    3    3    0    0 -0.30505958318E+02  0.11341647129E+03  0.17299788007E+03  0.20909848388E+03  0.00000000000E+00 0.  1.
        -11    1    4    4    0    0  0.32324432727E+02 -0.90941264541E+02  0.58020556139E+03  0.58817826891E+03  0.00000000000E+00 0. -1.
         11    1    4    4    0    0 -0.42022783355E+02 -0.24443382529E+02  0.19406834888E+03  0.20006478278E+03  0.00000000000E+00 0.  1.
         21    1    1    2  502  501  0.69572217513E+02  0.93056027151E+01  0.38877433659E+02  0.80239283019E+02  0.00000000000E+00 0.  1.
<scales pt_clust_5="13000.00000" pt_clust_6="13000.00000" pt_clust_7="13000.00000" pt_clust_8="13000.00000" pt_clust_9="70.19179"></scales>
<clustering>
<clus scale="   70.192">  2  9  1 -1</clus>
<clus scale="   90.823">  5  6 -1 -1</clus>
<clus scale="   91.757">  7  8 -1 -1</clus>
<clus scale="  145.214">  2  5  1 -1</clus>
<clus scale="  145.800">  1  5  2 -1</clus>
</clustering>
</event>
<event>
 9    1  0.1266593E-005  0.1038515E+03  0.7546771E-02  0.1277520E+00
          4   -1    0    0  502    0  0.00000000000E+00  0.00000000000E+00  0.81804448032E+02  0.81804448032E+02  0.00000000000E+00 0. -1.
         -4   -1    0    0    0  501 -0.00000000000E+00 -0.00000000000E+00 -0.14835804983E+03  0.14835804983E+03  0.00000000000E+00 0.  1.
         23    2    1    2    0    0 -0.42479617485E+02 -0.31785357900E+02 -0.33077378683E+02  0.10460656426E+03  0.83866521487E+02 0.  0.
         23    2    1    2    0    0  0.29036916890E+02  0.16199174516E+02 -0.25717288126E+02  0.10355965247E+03  0.94644951866E+02 0.  0.
        -11    1    3    3    0    0 -0.23578830159E+02 -0.54140251425E+02 -0.43701682267E+02  0.73464039427E+02  0.00000000000E+00 0.  1.
         11    1    3    3    0    0 -0.18900787326E+02  0.22354893525E+02  0.10624303583E+02  0.31142524828E+02  0.00000000000E+00 0. -1.
        -11    1    4    4    0    0 -0.47939850190E+01  0.49603460055E+02 -0.70795531542E+00  0.49839610177E+02  0.00000000000E+00 0. -1.
         11    1    4    4    0    0  0.33830901909E+02 -0.33404285540E+02 -0.25009332811E+02  0.53720042293E+02  0.00000000000E+00 0.  1.
         21    1    1    2  502  501  0.13442700595E+02  0.15586183384E+02 -0.77589349920E+01  0.21996281140E+02  0.00000000000E+00 0.  1.
<scales pt_clust_5="13000.00000" pt_clust_6="13000.00000" pt_clust_7="13000.00000" pt_clust_8="13000.00000" pt_clust_9="20.58240"></scales>
<clustering>
<clus scale="   20.582">  2  9  1 -1</clus>
<clus scale="   83.867">  5  6 -1 -1</clus>
<clus scale="   94.133">  2  5  1 -1</clus>
<clus scale="   94.645">  7  8 -1 -1</clus>
<clus scale="  103.852">  1  5  2 -1</clus>
</clustering>
</event>
<event>
 9    1  0.1266593E-005  0.1728085E+03  0.7546771E-02  0.1175185E+00
          3   -1    0    0  502    0  0.00000000000E+00  0.00000000000E+00  0.12997330770E+03  0.12997330770E+03  0.00000000000E+00 0. -1.
         -3   -1    0    0    0  501 -0.00000000000E+00 -0.00000000000E+00 -0.25903404844E+03  0.25903404844E+03  0.00000000000E+00 0.  1.
         23    2    1    2    0    0 -0.55462528378E+01  0.13921496780E+03 -0.64033033473E+02  0.17758742565E+03  0.89585133778E+02 0.  0.
         23    2    1    2    0    0 -0.76630811338E+01 -0.15524931391E+03 -0.60421180750E+02  0.19014067190E+03  0.91332818556E+02 0.  0.
        -13    1    3    3    0    0 -0.32192167689E+02  0.13182770683E+03 -0.41463028260E+02  0.14189454768E+03  0.00000000000E+00 0. -1.
         13    1    3    3    0    0  0.26645914851E+02  0.73872609737E+01 -0.22570005214E+02  0.35692877977E+02  0.00000000000E+00 0.  1.
        -13    1    4    4    0    0 -0.38074620437E+02 -0.91891424139E+02 -0.66422528236E+02  0.11960628248E+03  0.00000000000E+00 0.  1.
         13    1    4    4    0    0  0.30411539303E+02 -0.63357889772E+02  0.60013474862E+01  0.70534389419E+02  0.00000000000E+00 0. -1.
         21    1    1    2  502  501  0.13209333972E+02  0.16034346109E+02 -0.46065265155E+01  0.21279258578E+02  0.00000000000E+00 0. -1.
<scales pt_clust_5="13000.00000" pt_clust_6="13000.00000" pt_clust_7="13000.00000" pt_clust_8="13000.00000" pt_clust_9="20.77467"></scales>
<clustering>
<clus scale="   20.775">  1  9  2 -1</clus>
<clus scale="   89.585">  5  6 -1 -1</clus>
<clus scale="   91.333">  7  8 -1 -1</clus>
<clus scale="  171.891">  2  5  1 -1</clus>
<clus scale="   20.775">  1  5  2 -1</clus>
</clustering>
</event>
<event>
 9    1  0.1266593E-005  0.1114650E+03  0.7546771E-02  0.1258096E+00
          3   -1    0    0  502    0  0.00000000000E+00  0.00000000000E+00  0.21454154353E+03  0.21454154353E+03  0.00000000000E+00 0. -1.
         -3   -1    0    0    0  501 -0.00000000000E+00 -0.00000000000E+00 -0.13499698966E+03  0.13499698966E+03  0.00000000000E+00 0.  1.
         23    2    1    2    0    0 -0.62220901415E+02 -0.10661153701E+02 -0.22648775378E+02  0.11290316400E+03  0.90824317466E+02 0.  0.
         23    2    1    2    0    0  0.51345410252E+02  0.41119518916E+02  0.14461706970E+03  0.18328968452E+03  0.91399374244E+02 0.  0.
        -11    1    4    4    0    0 -0.22084870305E+02  0.31581021935E+02  0.47651927961E+02  0.61284652901E+02  0.00000000000E+00 0. -1.
         11    1    4    4    0    0  0.73430280556E+02  0.95384969817E+01  0.96965141740E+02  0.12200503162E+03  0.00000000000E+00 0.  1.
        -13    1    3    3    0    0 -0.41181107147E+01  0.28904420364E+02 -0.30439313655E+02  0.42177910904E+02  0.00000000000E+00 0.  1.
         13    1    3    3    0    0 -0.58102790701E+02 -0.39565574065E+02  0.77905382771E+01  0.70725253092E+02  0.00000000000E+00 0. -1.
         21    1    1    2  502  501  0.10875491164E+02 -0.30458365216E+02 -0.42423740450E+02  0.53345684675E+02  0.00000000000E+00 0. -1.
<scales pt_clust_5="13000.00000" pt_clust_6="13000.00000" pt_clust_7="13000.00000" pt_clust_8="13000.00000" pt_clust_9="32.34174"></scales>
<clustering>
<clus scale="   32.342">  2  9  1 -1</clus>
<clus scale="   90.824">  7  8 -1 -1</clus>
<clus scale="   91.399">  5  6 -1 -1</clus>
<clus scale="  110.994">  2  7  1 -1</clus>
<clus scale="  111.465">  1  5  2 -1</clus>
</clustering>
</event>
<event>
 9    1  0.1266593E-005  0.1034007E+03  0.7546771E-02  0.1273949E+00
          1   -1    0    0  502    0  0.00000000000E+00  0.00000000000E+00  0.17984698230E+03  0.17984698230E+03  0.00000000000E+00 0. -1.
         -1   -1    0    0    0  501 -0.00000000000E+00 -0.00000000000E+00 -0.14113002867E+03  0.14113002867E+03  0.00000000000E+00 0.  1.
         23    2    1    2    0    0 -0.34696795006E+01 -0.20614203854E+02 -0.36551620785E+01  0.92463302677E+02  0.89995100176E+02 0.  0.
         23    2    1    2    0    0 -0.33788117237E+02  0.55273018201E+02  0.10101483071E+03  0.15087129172E+03  0.91440730715E+02 0.  0.
        -11    1    4    4    0    0  0.25770802032E+02 -0.34444734585E+01  0.38484193406E+02  0.46443856180E+02  0.00000000000E+00 0.  1.
         11    1    4    4    0    0 -0.59558919269E+02  0.58717491660E+02  0.62530637305E+02  0.10442743554E+03  0.00000000000E+00 0. -1.
        -13    1    3    3    0    0 -0.26684949768E+02  0.59789736162E+01 -0.35574972586E+02  0.44871074693E+02  0.00000000000E+00 0.  1.
         13    1    3    3    0    0  0.23215270268E+02 -0.26593177470E+02  0.31919810508E+02  0.47592227983E+02  0.00000000000E+00 0. -1.
         21    1    1    2  502  501  0.37257796737E+02 -0.34658814347E+02 -0.58642714994E+02  0.77642416575E+02  0.00000000000E+00 0. -1.
<scales pt_clust_5="13000.00000" pt_clust_6="13000.00000" pt_clust_7="13000.00000" pt_clust_8="13000.00000" pt_clust_9="50.88592"></scales>
<clustering>
<clus scale="   50.886">  2  9  1 -1</clus>
<clus scale="   89.995">  7  8 -1 -1</clus>
<clus scale="   91.441">  5  6 -1 -1</clus>
<clus scale="  102.125">  2  7  1 -1</clus>
<clus scale="  103.401">  1  5  2 -1</clus>
</clustering>
</event>
<event>
 9    1  0.1266593E-005  0.9234098E+02  0.7546771E-02  0.1302946E+00
          2   -1    0    0  502    0  0.00000000000E+00  0.00000000000E+00  0.20927418647E+03  0.20927418647E+03  0.00000000000E+00 0. -1.
         -2   -1    0    0    0  501 -0.00000000000E+00 -0.00000000000E+00 -0.51133241919E+02  0.51133241919E+02  0.00000000000E+00 0.  1.
         23    2    1    2    0    0  0.13811125211E+02  0.13523368619E+02  0.47906387104E+02  0.96563462601E+02  0.81583403372E+02 0.  0.
         23    2    1    2    0    0  0.93373906777E+01 -0.18217413778E+02  0.10353961321E+03  0.13929381047E+03  0.90902437271E+02 0.  0.
        -11    1    3    3    0    0  0.89171428718E+01  0.34516943123E+02 -0.80939723081E+01  0.36557450503E+02  0.00000000000E+00 0.  1.
         11    1    3    3    0    0  0.48939823396E+01 -0.20993574504E+02  0.56000359412E+02  0.60006012098E+02  0.00000000000E+00 0. -1.
        -11    1    4    4    0    0  0.20729603558E+02 -0.47277749951E+02  0.30733220575E+02  0.60078556500E+02  0.00000000000E+00 0. -1.
         11    1    4    4    0    0 -0.11392212881E+02  0.29060336174E+02  0.72806392638E+02  0.79215253972E+02  0.00000000000E+00 0.  1.
         21    1    1    2  502  501 -0.23148515889E+02  0.46940451585E+01  0.66949442353E+01  0.24550155318E+02  0.00000000000E+00 0. -1.
<scales pt_clust_5="13000.00000" pt_clust_6="13000.00000" pt_clust_7="13000.00000" pt_clust_8="13000.00000" pt_clust_9="23.61965"></scales>
<clustering>
<clus scale="   23.620">  2  9  1 -1</clus>
<clus scale="   81.583">  5  6 -1 -1</clus>
<clus scale="   83.183">  2  5  1 -1</clus>
<clus scale="   90.902">  7  8 -1 -1</clus>
<clus scale="   92.341">  1  5  2 -1</clus>
</clustering>
</event>
<event>
 9    1  0.1266593E-005  0.1016000E+03  0.7546771E-02  0.1277835E+00
         -2   -1    0    0    0  501 -0.00000000000E+00  0.00000000000E+00  0.46904549930E+02  0.46904549930E+02  0.00000000000E+00 0.  1.
          2   -1    0    0  502    0  0.00000000000E+00 -0.00000000000E+00 -0.56390390932E+03  0.56390390932E+03  0.00000000000E+00 0. -1.
         23    2    1    2    0    0 -0.35427736902E+02  0.46182164924E+01 -0.83932261638E+02  0.12942680857E+03  0.91816239121E+02 0.  0.
         23    2    1    2    0    0  0.32318705360E+02 -0.85913177434E+02 -0.27784954797E+03  0.30613603872E+03  0.89962937501E+02 0.  0.
        -11    1    3    3    0    0  0.24660060693E+02  0.82134391951E+01 -0.58624086541E+02  0.64127706177E+02  0.00000000000E+00 0. -1.
         11    1    3    3    0    0 -0.60087797595E+02 -0.35952227027E+01 -0.25308175097E+02  0.65299102389E+02  0.00000000000E+00 0.  1.
        -13    1    4    4    0    0  0.42874960734E+02 -0.17068246146E+02 -0.18133300225E+03  0.18711292043E+03  0.00000000000E+00 0. -1.
         13    1    4    4    0    0 -0.10556255374E+02 -0.68844931288E+02 -0.96516545721E+02  0.11902311830E+03  0.00000000000E+00 0.  1.
         21    1    1    2  502  501  0.31090315414E+01  0.81294960942E+02 -0.15521754978E+03  0.17524561196E+03  0.00000000000E+00 0. -1.
<scales pt_clust_5="13000.00000" pt_clust_6="13000.00000" pt_clust_7="13000.00000" pt_clust_8="13000.00000" pt_clust_9="81.35439"></scales>
<clustering>
<clus scale="   81.354">  2  9  1 -1</clus>
<clus scale="   89.963">  7  8 -1 -1</clus>
<clus scale="   91.816">  5  6 -1 -1</clus>
<clus scale="   99.928">  2  7  1 -1</clus>
<clus scale="   81.354">  2  5  1 -1</clus>
</clustering>
</event>
<event>
 9    1  0.1266593E-005  0.1228477E+03  0.7546771E-02  0.1238533E+00
          1   -1    0    0  502    0  0.00000000000E+00  0.00000000000E+00  0.81421557149E+03  0.81421557149E+03  0.00000000000E+00 0. -1.
         -1   -1    0    0    0  501 -0.00000000000E+00 -0.00000000000E+00 -0.40197081734E+02  0.40197081734E+02  0.00000000000E+00 0.  1.
         23    2    1    2    0    0 -0.43306409028E+02  0.57683458499E+02  0.19700729579E+03  0.22845893527E+03  0.90436630099E+02 0.  0.
         23    2    1    2    0    0  0.66345061378E+02 -0.57852377070E+02  0.58728797252E+03  0.60072634764E+03  0.90644455879E+02 0.  0.
        -13    1    3    3    0    0 -0.54801850763E+02  0.75616080497E+02  0.17103299825E+03  0.19486744461E+03  0.00000000000E+00 0. -1.
         13    1    3    3    0    0  0.11495441735E+02 -0.17932621999E+02  0.25974297540E+02  0.33591490665E+02  0.00000000000E+00 0.  1.
        -13    1    4    4    0    0  0.54648430787E+02  0.94113124333E+01  0.20385803632E+03  0.21126552667E+03  0.00000000000E+00 0. -1.
         13    1    4    4    0    0  0.11696630591E+02 -0.67263689504E+02  0.38342993621E+03  0.38946082097E+03  0.00000000000E+00 0.  1.
         21    1    1    2  502  501 -0.23038652350E+02  0.16891857184E+00 -0.10276778551E+02  0.25227370314E+02  0.00000000000E+00 0.  1.
<scales pt_clust_5="13000.00000" pt_clust_6="13000.00000" pt_clust_7="13000.00000" pt_clust_8="13000.00000" pt_clust_9="23.03927"></scales>
<clustering>
<clus scale="   23.039">  2  9  1 -1</clus>
<clus scale="   90.437">  5  6 -1 -1</clus>
<clus scale="   90.644">  7  8 -1 -1</clus>
<clus scale="  122.694">  2  5  1 -1</clus>
<clus scale="  122.848">  1  5  2 -1</clus>
</clustering>
</event>
<event>
 9    1  0.1266593E-005  0.1016603E+03  0.7546771E-02  0.1277165E+00
         -1   -1    0    0    0  501 -0.00000000000E+00  0.00000000000E+00  0.16465883981E+03  0.16465883981E+03  0.00000000000E+00 0.  1.
          1   -1    0    0  502    0  0.00000000000E+00 -0.00000000000E+00 -0.42200271694E+03  0.42200271694E+03  0.00000000000E+00 0. -1.
         23    2    1    2    0    0  0.10952709432E+02 -0.19781974679E+02  0.13129162046E+03  0.16174229788E+03  0.91715827171E+02 0.  0.
         23    2    1    2    0    0 -0.82423883540E+01  0.42531694541E+02 -0.38883811827E+03  0.40200776286E+03  0.92402798522E+02 0.  0.
        -11    1    4    4    0    0 -0.21254616936E+01  0.71570686770E+02 -0.25112351668E+03  0.26113196170E+03  0.00000000000E+00 0.  1.
         11    1    4    4    0    0 -0.61169266605E+01 -0.29038992229E+02 -0.13771460159E+03  0.14087580116E+03  0.00000000000E+00 0. -1.
        -13    1    3    3    0    0  0.10912484903E+02 -0.50683145542E+02  0.11643387585E+03  0.12745474105E+03  0.00000000000E+00 0.  1.
         13    1    3    3    0    0  0.40224529753E-01  0.30901170863E+02  0.14857744607E+02  0.34287556832E+02  0.00000000000E+00 0. -1.
         21    1    1    2  502  501 -0.27103210783E+01 -0.22749719862E+02  0.20262067789E+00  0.22911496007E+02  0.00000000000E+00 0.  1.
<scales pt_clust_5="13000.00000" pt_clust_6="13000.00000" pt_clust_7="13000.00000" pt_clust_8="13000.00000" pt_clust_9="22.91060"></scales>
<clustering>
<clus scale="   22.911">  1  9  2 -1</clus>
<clus scale="   91.716">  7  8 -1 -1</clus>
<clus scale="   92.403">  5  6 -1 -1</clus>
<clus scale="  101.036">  1  7  2 -1</clus>
<clus scale="  101.660">  2  5  1 -1</clus>
</clustering>
</event>
<event>
 9    1  0.1266593E-005  0.1333921E+03  0.7546771E-02  0.1222798E+00
         -1   -1    0    0    0  501 -0.00000000000E+00  0.00000000000E+00  0.11992906004E+03  0.11992906004E+03  0.00000000000E+00 0.  1.
          1   -1    0    0  502    0  0.00000000000E+00 -0.00000000000E+00 -0.49653455225E+03  0.49653455225E+03  0.00000000000E+00 0. -1.
         23    2    1    2    0    0  0.59591994255E+02  0.77587264144E+02 -0.15167688265E+03  0.20237685693E+03  0.91539751772E+02 0.  0.
         23    2    1    2    0    0 -0.41149585159E+02 -0.88292340844E+02 -0.30422466233E+03  0.33197350975E+03  0.90360058632E+02 0.  0.
        -11    1    4    4    0    0 -0.25624648068E+02  0.14040257728E+02 -0.60735453416E+02  0.67398417840E+02  0.00000000000E+00 0. -1.
         11    1    4    4    0    0 -0.15524937091E+02 -0.10233259857E+03 -0.24348920892E+03  0.26457509191E+03  0.00000000000E+00 0.  1.
        -13    1    3    3    0    0  0.57401919888E+02  0.31202864268E+01 -0.49101283665E+02  0.75601935503E+02  0.00000000000E+00 0.  1.
         13    1    3    3    0    0  0.21900743663E+01  0.74466977717E+02 -0.10257559898E+03  0.12677492143E+03  0.00000000000E+00 0. -1.
         21    1    1    2  502  501 -0.18442409095E+02  0.10705076699E+02  0.79296052768E+02  0.82113245613E+02  0.00000000000E+00 0.  1.
<scales pt_clust_5="13000.00000" pt_clust_6="13000.00000" pt_clust_7="13000.00000" pt_clust_8="13000.00000" pt_clust_9="21.32419"></scales>
<clustering>
<clus scale="   21.324">  1  9  2 -1</clus>
<clus scale="   90.360">  5  6 -1 -1</clus>
<clus scale="   91.540">  7  8 -1 -1</clus>
<clus scale="  132.585">  2  5  1 -1</clus>
<clus scale="  132.585">  2  5  1 -1</clus>
</clustering>
</event>
<event>
 9    1  0.1266593E-005  0.1530974E+03  0.7546771E-02  0.1197055E+00
          1   -1    0    0  502    0  0.00000000000E+00  0.00000000000E+00  0.63759746462E+03  0.63759746462E+03  0.00000000000E+00 0. -1.
         -1   -1    0    0    0  501 -0.00000000000E+00 -0.00000000000E+00 -0.89638656714E+02  0.89638656714E+02  0.00000000000E+00 0.  1.
         23    2    1    2    0    0  0.13060936389E+03  0.94462789547E+01  0.29198695163E+03  0.33235299165E+03  0.89744598785E+02 0.  0.
         23    2    1    2    0    0 -0.11089511419E+03 -0.38877238789E+02  0.30202255446E+03  0.33678407771E+03  0.91633648564E+02 0.  0.
        -11    1    4    4    0    0 -0.61898027074E+02  0.75824256315E+01  0.22895181770E+03  0.23729263318E+03  0.00000000000E+00 0. -1.
         11    1    4    4    0    0 -0.48997087113E+02 -0.46459664420E+02  0.73070736763E+02  0.99491444531E+02  0.00000000000E+00 0.  1.
        -11    1    3    3    0    0  0.10032517128E+03 -0.24284883949E+02  0.14124811411E+03  0.17494549243E+03  0.00000000000E+00 0.  1.
         11    1    3    3    0    0  0.30284192606E+02  0.33731162903E+02  0.15073883752E+03  0.15740749922E+03  0.00000000000E+00 0. -1.
         21    1    1    2  502  501 -0.19714249699E+02  0.29430959834E+02 -0.46050698184E+02  0.58099051982E+02  0.00000000000E+00 0. -1.
<scales pt_clust_5="13000.00000" pt_clust_6="13000.00000" pt_clust_7="13000.00000" pt_clust_8="13000.00000" pt_clust_9="35.42362"></scales>
<clustering>
<clus scale="   35.424">  2  9  1 -1</clus>
<clus scale="   89.745">  7  8 -1 -1</clus>
<clus scale="   91.634">  5  6 -1 -1</clus>
<clus scale="  151.974">  2  7  1 -1</clus>
<clus scale="  153.097">  1  5  2 -1</clus>
</clustering>
</event>
<event>
 9    1  0.1266593E-005  0.9894149E+02  0.7546771E-02  0.1282593E+00
          3   -1    0    0  502    0  0.00000000000E+00  0.00000000000E+00  0.89515353889E+02  0.89515353889E+02  0.00000000000E+00 0. -1.
         -3   -1    0    0    0  501 -0.00000000000E+00 -0.00000000000E+00 -0.14809016291E+03  0.14809016291E+03  0.00000000000E+00 0.  1.
         23    2    1    2    0    0 -0.41354453177E+02 -0.30765760113E+02 -0.54837353682E+02  0.11736220528E+03  0.90055699853E+02 0.  0.
         23    2    1    2    0    0  0.23935376949E+02  0.12014939281E+02 -0.84317172182E+01  0.94223057998E+02  0.89942369146E+02 0.  0.
        -11    1    3    3    0    0 -0.28402621989E+02 -0.48798816890E+02  0.18386339898E+01  0.56492601645E+02  0.00000000000E+00 0.  1.
         11    1    3    3    0    0 -0.12951831188E+02  0.18033056777E+02 -0.56675987672E+02  0.60869603633E+02  0.00000000000E+00 0. -1.
        -11    1    4    4    0    0  0.52956673137E+01 -0.20944490751E+02 -0.39646486431E+02  0.45150411642E+02  0.00000000000E+00 0.  1.
         11    1    4    4    0    0  0.18639709635E+02  0.32959430033E+02  0.31214769213E+02  0.49072646356E+02  0.00000000000E+00 0. -1.
         21    1    1    2  502  501  0.17419076229E+02  0.18750820831E+02  0.46942618837E+01  0.26020253518E+02  0.00000000000E+00 0.  1.
<scales pt_clust_5="13000.00000" pt_clust_6="13000.00000" pt_clust_7="13000.00000" pt_clust_8="13000.00000" pt_clust_9="25.59331"></scales>
<clustering>
<clus scale="   25.593">  1  9  2 -1</clus>
<clus scale="   89.942">  7  8 -1 -1</clus>
<clus scale="   90.056">  5  6 -1 -1</clus>
<clus scale="   98.838">  1  7  2 -1</clus>
<clus scale="   25.593">  1  5  2 -1</clus>
</clustering>
</event>
<event>
 9    1  0.1266593E-005  0.1131234E+03  0.7546771E-02  0.1256706E+00
         -2   -1    0    0    0  501 -0.00000000000E+00  0.00000000000E+00  0.37034759116E+02  0.37034759116E+02  0.00000000000E+00 0.  1.
          2   -1    0    0  502    0  0.00000000000E+00 -0.00000000000E+00 -0.46629600001E+03  0.46629600001E+03  0.00000000000E+00 0. -1.
         23    2    1    2    0    0  0.88286591606E+01 -0.46306126177E+02 -0.98768981214E+02  0.14055731264E+03  0.88197754752E+02 0.  0.
         23    2    1    2    0    0 -0.17453805863E+02  0.71554934289E+02 -0.29774014204E+03  0.32052895955E+03  0.93085325183E+02 0.  0.
        -11    1    3    3    0    0 -0.36903746749E+02 -0.91116130879E+01 -0.22531272959E+02  0.44187852158E+02  0.00000000000E+00 0. -1.
         11    1    3    3    0    0  0.45732405910E+02 -0.37194513090E+02 -0.76237708255E+02  0.96369460486E+02  0.00000000000E+00 0.  1.
        -11    1    4    4    0    0  0.19954222981E+02  0.77926519212E+02 -0.19117867945E+03  0.20741263435E+03  0.00000000000E+00 0. -1.
         11    1    4    4    0    0 -0.37408028844E+02 -0.63715849230E+01 -0.10656146259E+03  0.11311632519E+03  0.00000000000E+00 0.  1.
         21    1    1    2  502  501  0.86251467023E+01 -0.25248808111E+02 -0.32752117633E+02  0.42244486932E+02  0.00000000000E+00 0.  1.
<scales pt_clust_5="13000.00000" pt_clust_6="13000.00000" pt_clust_7="13000.00000" pt_clust_8="13000.00000" pt_clust_9="26.68137"></scales>
<clustering>
<clus scale="   26.681">  1  9  2 -1</clus>
<clus scale="   88.198">  5  6 -1 -1</clus>
<clus scale="   93.085">  7  8 -1 -1</clus>
<clus scale="  109.137">  1  5  2 -1</clus>
<clus scale="  113.123">  2  5  1 -1</clus>
</clustering>
</event>
<event>
 9    1  0.1266593E-005  0.1609045E+03  0.7546771E-02  0.1187752E+00
          2   -1    0    0  502    0  0.00000000000E+00  0.00000000000E+00  0.72498258850E+03  0.72498258850E+03  0.00000000000E+00 0. -1.
         -2   -1    0    0    0  501 -0.00000000000E+00 -0.00000000000E+00 -0.45510202737E+02  0.45510202737E+02  0.00000000000E+00 0.  1.
         23    2    1    2    0    0 -0.83813984001E+02  0.11559962275E+03  0.36547978139E+03  0.40291293466E+03  0.91516695856E+02 0.  0.
         23    2    1    2    0    0  0.55677505127E+02 -0.10872475738E+03  0.29686784688E+03  0.33393193633E+03  0.91972616279E+02 0.  0.
        -11    1    3    3    0    0 -0.43142315276E+02 -0.38916536902E+01  0.97985604692E+02  0.10713348245E+03  0.00000000000E+00 0.  1.
         11    1    3    3    0    0 -0.40671668725E+02  0.11949127644E+03  0.26749417670E+03  0.29577945221E+03  0.00000000000E+00 0. -1.
        -11    1    4    4    0    0 -0.23840167105E+02 -0.26006198199E+02  0.45174090000E+02  0.57318184895E+02  0.00000000000E+00 0.  1.
         11    1    4    4    0    0  0.79517672232E+02 -0.82718559184E+02  0.25169375688E+03  0.27661375144E+03  0.00000000000E+00 0. -1.
         21    1    1    2  502  501  0.28136478874E+02 -0.68748653690E+01  0.17124757489E+02  0.33647920238E+02  0.00000000000E+00 0.  1.
<scales pt_clust_5="13000.00000" pt_clust_6="13000.00000" pt_clust_7="13000.00000" pt_clust_8="13000.00000" pt_clust_9="28.96421"></scales>
<clustering>
<clus scale="   28.964">  2  9  1 -1</clus>
<clus scale="   91.517">  5  6 -1 -1</clus>
<clus scale="   91.973">  7  8 -1 -1</clus>
<clus scale="  160.644">  2  5  1 -1</clus>
<clus scale="  160.904">  1  5  2 -1</clus>
</clustering>
</event>
<event>
 9    1  0.1266593E-005  0.1462985E+03  0.7546771E-02  0.1206040E+00
         -1   -1    0    0    0  501 -0.00000000000E+00  0.00000000000E+00  0.13298271974E+03  0.13298271974E+03  0.00000000000E+00 0.  1.
          1   -1    0    0  502    0  0.00000000000E+00 -0.00000000000E+00 -0.27030896117E+03  0.27030896117E+03  0.00000000000E+00 0. -1.
         23    2    1    2    0    0  0.31447693083E+02 -0.13065083717E+03 -0.57834933793E+02  0.17502158685E+03  0.96068088574E+02 0.  0.
         23    2    1    2    0    0 -0.27844481156E+02  0.93738797839E+02 -0.11528857271E+03  0.17672471628E+03  0.91530830843E+02 0.  0.
        -11    1    4    4    0    0 -0.25877993190E+02 -0.62302904978E+01 -0.36685031254E+01  0.26869033597E+02  0.00000000000E+00 0. -1.
         11    1    4    4    0    0 -0.19664879657E+01  0.99969088337E+02 -0.11162006958E+03  0.14985568268E+03  0.00000000000E+00 0.  1.
        -13    1    3    3    0    0  0.26871325949E+02 -0.15201025630E+02 -0.50574756604E+02  0.59253230663E+02  0.00000000000E+00 0.  1.
         13    1    3    3    0    0  0.45763671335E+01 -0.11544981154E+03 -0.72601771893E+01  0.11576835618E+03  0.00000000000E+00 0. -1.
         21    1    1    2  502  501 -0.36032119268E+01  0.36912039331E+02  0.35797265080E+02  0.51545377785E+02  0.00000000000E+00 0.  1.
<scales pt_clust_5="13000.00000" pt_clust_6="13000.00000" pt_clust_7="13000.00000" pt_clust_8="13000.00000" pt_clust_9="37.08749"></scales>
<clustering>
<clus scale="   37.087">  1  9  2 -1</clus>
<clus scale="   91.531">  5  6 -1 -1</clus>
<clus scale="   96.068">  7  8 -1 -1</clus>
<clus scale="  143.360">  2  5  1 -1</clus>
<clus scale="  143.360">  2  5  1 -1</clus>
</clustering>
</event>
<event>
 9    1  0.1266593E-005  0.1115670E+03  0.7546771E-02  0.1258091E+00
          2   -1    0    0  502    0  0.00000000000E+00  0.00000000000E+00  0.52635409071E+03  0.52635409071E+03  0.00000000000E+00 0. -1.
         -2   -1    0    0    0  501 -0.00000000000E+00 -0.00000000000E+00 -0.53795976391E+02  0.53795976391E+02  0.00000000000E+00 0.  1.
         23    2    1    2    0    0  0.33799569449E+02 -0.16171786628E+02  0.97501509250E+02  0.13766713620E+03  0.89675852406E+02 0.  0.
         23    2    1    2    0    0 -0.10083320617E+03  0.63348007434E+02  0.20662083985E+03  0.25516045157E+03  0.90743479494E+02 0.  0.
        -11    1    3    3    0    0 -0.12830684066E+02 -0.35859616812E+02  0.70910744943E+02  0.80491442526E+02  0.00000000000E+00 0.  1.
         11    1    3    3    0    0  0.46630253515E+02  0.19687830185E+02  0.26590764306E+02  0.57175693670E+02  0.00000000000E+00 0. -1.
        -13    1    4    4    0    0 -0.55228552126E+02  0.76011366439E+02  0.93570764796E+02  0.13260244652E+03  0.00000000000E+00 0.  1.
         13    1    4    4    0    0 -0.45604654040E+02 -0.12663359005E+02  0.11305007506E+03  0.12255800505E+03  0.00000000000E+00 0. -1.
         21    1    1    2  502  501  0.67033636717E+02 -0.47176220806E+02  0.16843576521E+03  0.18732247934E+03  0.00000000000E+00 0. -1.
<scales pt_clust_5="13000.00000" pt_clust_6="13000.00000" pt_clust_7="13000.00000" pt_clust_8="13000.00000" pt_clust_9="81.97014"></scales>
<clustering>
<clus scale="   81.970">  1  9  2 -1</clus>
<clus scale="   89.676">  5  6 -1 -1</clus>
<clus scale="   90.743">  7  8 -1 -1</clus>
<clus scale="  110.700">  2  5  1 -1</clus>
<clus scale="   81.970">  1  5  2 -1</clus>
</clustering>
</event>
<event>
 9    1  0.1266593E-005  0.1138999E+03  0.7546771E-02  0.1258885E+00
         -2   -1    0    0    0  501 -0.00000000000E+00  0.00000000000E+00  0.60850254099E+02  0.60850254099E+02  0.00000000000E+00 0.  1.
          2   -1    0    0  502    0  0.00000000000E+00 -0.00000000000E+00 -0.33372726401E+03  0.33372726401E+03  0.00000000000E+00 0. -1.
         23    2    1    2    0    0  0.39477104611E+02 -0.87963216387E+01 -0.97884628514E+02  0.14626604915E+03  0.10087883609E+03 0.  0.
         23    2    1    2    0    0 -0.39325976549E+02  0.52777965799E+02 -0.17231278101E+03  0.20424801334E+03  0.87712657850E+02 0.  0.
        -11    1    4    4    0    0 -0.60745599298E+02  0.12343061054E+02 -0.79885091386E+02  0.10111383098E+03  0.00000000000E+00 0. -1.
         11    1    4    4    0    0  0.21419622749E+02  0.40434904745E+02 -0.92427689627E+02  0.10313418236E+03  0.00000000000E+00 0.  1.
        -13    1    3    3    0    0  0.67451229115E+02  0.16808002450E+02 -0.52430724853E+02  0.87069846469E+02  0.00000000000E+00 0.  1.
         13    1    3    3    0    0 -0.27974124504E+02 -0.25604324088E+02 -0.45453903661E+02  0.59196202681E+02  0.00000000000E+00 0. -1.
         21    1    1    2  502  501 -0.15112806209E+00 -0.43981644160E+02 -0.26796003793E+01  0.44063455617E+02  0.00000000000E+00 0. -1.
<scales pt_clust_5="13000.00000" pt_clust_6="13000.00000" pt_clust_7="13000.00000" pt_clust_8="13000.00000" pt_clust_9="43.98190"></scales>
<clustering>
<clus scale="   43.982">  1  9  2 -1</clus>
<clus scale="   87.713">  5  6 -1 -1</clus>
<clus scale="  100.879">  7  8 -1 -1</clus>
<clus scale="  102.422">  2  5  1 -1</clus>
<clus scale="  102.422">  2  5  1 -1</clus>
</clustering>
</event>
<event>
 9    1  0.1266593E-005  0.3187723E+03  0.7546771E-02  0.1076251E+00
         -1   -1    0    0    0  501 -0.00000000000E+00  0.00000000000E+00  0.21378344482E+03  0.21378344482E+03  0.00000000000E+00 0.  1.
          1   -1    0    0  502    0  0.00000000000E+00 -0.00000000000E+00 -0.53140495575E+03  0.53140495575E+03  0.00000000000E+00 0. -1.
         23    2    1    2    0    0  0.50939939839E+02  0.28516322179E+03 -0.80258753687E+02  0.31540553617E+03  0.95531377941E+02 0.  0.
         23    2    1    2    0    0 -0.45492626303E+02 -0.31130490619E+03 -0.23295574590E+03  0.40271844797E+03  0.94516903892E+02 0.  0.
        -11    1    4    4    0    0 -0.13214327950E+02 -0.28873103382E+03 -0.20207846133E+03  0.35266972211E+03  0.00000000000E+00 0. -1.
         11    1    4    4    0    0 -0.32278298353E+02 -0.22573872362E+02 -0.30877284564E+02  0.50048725858E+02  0.00000000000E+00 0.  1.
        -13    1    3    3    0    0 -0.63485378798E+00  0.16567326017E+03 -0.82847851049E+02  0.18523444225E+03  0.00000000000E+00 0. -1.
         13    1    3    3    0    0  0.51574793627E+02  0.11948996162E+03  0.25890973619E+01  0.13017109392E+03  0.00000000000E+00 0.  1.
         21    1    1    2  502  501 -0.54473135359E+01  0.26141684397E+02 -0.44070113377E+01  0.27064416432E+02  0.00000000000E+00 0.  1.
<scales pt_clust_5="13000.00000" pt_clust_6="13000.00000" pt_clust_7="13000.00000" pt_clust_8="13000.00000" pt_clust_9="26.70320"></scales>
<clustering>
<clus scale="   26.703">  1  9  2 -1</clus>
<clus scale="   94.517">  5  6 -1 -1</clus>
<clus scale="   95.531">  7  8 -1 -1</clus>
<clus scale="  318.470">  2  5  1 -1</clus>
<clus scale="  318.470">  2  5  1 -1</clus>
</clustering>
</event>
<event>
 9    1  0.1266593E-005  0.1126978E+03  0.7546771E-02  0.1255972E+00
         -1   -1    0    0    0  501 -0.00000000000E+00  0.00000000000E+00  0.33859086989E+03  0.33859086989E+03  0.00000000000E+00 0.  1.
          1   -1    0    0  502    0  0.00000000000E+00 -0.00000000000E+00 -0.49730548876E+02  0.49730548876E+02  0.00000000000E+00 0. -1.
         23    2    1    2    0    0  0.11993358921E+02  0.68108557147E+02  0.18199270529E+03  0.21520605348E+03  0.91704331754E+02 0.  0.
         23    2    1    2    0    0  0.96338462303E+01 -0.64078197829E+02  0.75191602078E+02  0.13454919307E+03  0.90834365201E+02 0.  0.
        -11    1    4    4    0    0 -0.19643250637E+02 -0.72188643883E+02  0.72286729037E+02  0.10403090308E+03  0.00000000000E+00 0. -1.
         11    1    4    4    0    0  0.29277096868E+02  0.81104460535E+01  0.29048730414E+01  0.30518289984E+02  0.00000000000E+00 0.  1.
        -13    1    3    3    0    0  0.13884731686E+02  0.29211716305E+02  0.35205988346E+01  0.32534670117E+02  0.00000000000E+00 0. -1.
         13    1    3    3    0    0 -0.18913727652E+01  0.38896840842E+02  0.17847210646E+03  0.18267138337E+03  0.00000000000E+00 0.  1.
         21    1    1    2  502  501 -0.21627205151E+02 -0.40303593176E+01  0.31676013645E+02  0.38566172215E+02  0.00000000000E+00 0. -1.
<scales pt_clust_5="13000.00000" pt_clust_6="13000.00000" pt_clust_7="13000.00000" pt_clust_8="13000.00000" pt_clust_9="21.99954"></scales>
<clustering>
<clus scale="   22.000">  1  9  2 -1</clus>
<clus scale="   90.834">  5  6 -1 -1</clus>
<clus scale="   91.704">  7  8 -1 -1</clus>
<clus scale="  111.991">  2  5  1 -1</clus>
<clus scale="  111.991">  2  5  1 -1</clus>
</clustering>
</event>
<event>
 9    1  0.1266593E-005  0.1456639E+03  0.7546771E-02  0.1205913E+00
          2   -1    0    0  502    0  0.00000000000E+00  0.00000000000E+00  0.21906570976E+03  0.21906570976E+03  0.00000000000E+00 0. -1.
         -2   -1    0    0    0  501 -0.00000000000E+00 -0.00000000000E+00 -0.14362654729E+03  0.14362654729E+03  0.00000000000E+00 0.  1.
         23    2    1    2    0    0 -0.12044092591E+02 -0.11557968917E+03 -0.20084267171E+02  0.14941962886E+03  0.91755779034E+02 0.  0.
         23    2    1    2    0    0 -0.28759940066E+02  0.11037367124E+03  0.89875668687E+02  0.17175192363E+03  0.91714807924E+02 0.  0.
        -11    1    4    4    0    0 -0.56441755220E+02  0.79825044917E+02  0.86243232100E+02  0.13036719147E+03  0.00000000000E+00 0. -1.
         11    1    4    4    0    0  0.27681815153E+02  0.30548626322E+02  0.36324365869E+01  0.41384732159E+02  0.00000000000E+00 0.  1.
        -11    1    3    3    0    0  0.19370397297E+02 -0.47407411032E+02 -0.47164865154E+02  0.69621831470E+02  0.00000000000E+00 0.  1.
         11    1    3    3    0    0 -0.31414489888E+02 -0.68172278134E+02  0.27080597983E+02  0.79797797388E+02  0.00000000000E+00 0. -1.
         21    1    1    2  502  501  0.40804032657E+02  0.52060179268E+01  0.56477609485E+01  0.41520704564E+02  0.00000000000E+00 0.  1.
<scales pt_clust_5="13000.00000" pt_clust_6="13000.00000" pt_clust_7="13000.00000" pt_clust_8="13000.00000" pt_clust_9="41.13480"></scales>
<clustering>
<clus scale="   41.135">  2  9  1 -1</clus>
<clus scale="   91.715">  5  6 -1 -1</clus>
<clus scale="   91.756">  7  8 -1 -1</clus>
<clus scale="  145.638">  1  5  2 -1</clus>
<clus scale="  145.638">  1  5  2 -1</clus>
</clustering>
</event>
<event>
 9    1  0.1266593E-005  0.1295255E+03  0.7546771E-02  0.1228854E+00
         -2   -1    0    0    0  501 -0.00000000000E+00  0.00000000000E+00  0.13685390265E+03  0.13685390265E+03  0.00000000000E+00 0.  1.
          2   -1    0    0  502    0  0.00000000000E+00 -0.00000000000E+00 -0.32719934697E+03  0.32719934697E+03  0.00000000000E+00 0. -1.
         23    2    1    2    0    0  0.54165720344E+02  0.33680474475E+02  0.64753425080E+02  0.12836812085E+03  0.90648048895E+02 0.  0.
         23    2    1    2    0    0 -0.93276792024E+02 -0.17441569443E+02 -0.26098277462E+03  0.29293003194E+03  0.93226748782E+02 0.  0.
        -11    1    3    3    0    0  0.60865308366E+02 -0.31897488992E+00  0.73397037564E+01  0.61307085713E+02  0.00000000000E+00 0.  1.
         11    1    3    3    0    0 -0.66995880217E+01  0.33999449365E+02  0.57413721323E+02  0.67061035132E+02  0.00000000000E+00 0. -1.
        -13    1    4    4    0    0 -0.24531041828E+02  0.37423293368E+02 -0.78543945483E+02  0.90395941677E+02  0.00000000000E+00 0.  1.
         13    1    4    4    0    0 -0.68745750196E+02 -0.54864862810E+02 -0.18243882914E+03  0.20253409026E+03  0.00000000000E+00 0. -1.
         21    1    1    2  502  501  0.39111071680E+02 -0.16238905032E+02  0.58839052285E+01  0.42755096835E+02  0.00000000000E+00 0.  1.
<scales pt_clust_5="13000.00000" pt_clust_6="13000.00000" pt_clust_7="13000.00000" pt_clust_8="13000.00000" pt_clust_9="42.34829"></scales>
<clustering>
<clus scale="   42.348">  1  9  2 -1</clus>
<clus scale="   90.648">  5  6 -1 -1</clus>
<clus scale="   93.227">  7  8 -1 -1</clus>
<clus scale="  127.682">  1  5  2 -1</clus>
<clus scale="  129.526">  2  5  1 -1</clus>
</clustering>
</event>
<event>
 9    1  0.1266593E-005  0.1162371E+03  0.7546771E-02  0.1251199E+00
          2   -1    0    0  502    0  0.00000000000E+00  0.00000000000E+00  0.30313370036E+03  0.30313370036E+03  0.00000000000E+00 0. -1.
         -2   -1    0    0    0  501 -0.00000000000E+00 -0.00000000000E+00 -0.11149558357E+03  0.11149558357E+03  0.00000000000E+00 0.  1.
         23    2    1    2    0    0  0.34011334623E+02  0.11349097864E+01 -0.46537432218E+02  0.11251296993E+03  0.96619754203E+02 0.  0.
         23    2    1    2    0    0 -0.69625421995E+02 -0.20780904362E+01  0.24024108685E+03  0.26642991244E+03  0.91744757816E+02 0.  0.
        -11    1    4    4    0    0 -0.24801652433E+02  0.22741313798E+02  0.19560228168E+03  0.19847554488E+03  0.00000000000E+00 0. -1.
         11    1    4    4    0    0 -0.44823769562E+02 -0.24819404234E+02  0.44638805169E+02  0.67954367566E+02  0.00000000000E+00 0.  1.
        -13    1    3    3    0    0  0.57709514915E+02 -0.14770892792E+02 -0.19855109566E+01  0.59602933144E+02  0.00000000000E+00 0.  1.
         13    1    3    3    0    0 -0.23698180292E+02  0.15905802578E+02 -0.44551921261E+02  0.52910036788E+02  0.00000000000E+00 0. -1.
         21    1    1    2  502  501  0.35614087372E+02  0.94318064981E+00 -0.20655378389E+01  0.35686401551E+02  0.00000000000E+00 0.  1.
<scales pt_clust_5="13000.00000" pt_clust_6="13000.00000" pt_clust_7="13000.00000" pt_clust_8="13000.00000" pt_clust_9="35.62657"></scales>
<clustering>
<clus scale="   35.627">  2  9  1 -1</clus>
<clus scale="   91.745">  5  6 -1 -1</clus>
<clus scale="   96.620">  7  8 -1 -1</clus>
<clus scale="  112.218">  1  5  2 -1</clus>
<clus scale="  112.218">  1  5  2 -1</clus>
</clustering>
</event>
<event>
 9    1  0.1266593E-005  0.1314878E+03  0.7546771E-02  0.1225590E+00
         -1   -1    0    0    0  501 -0.00000000000E+00  0.00000000000E+00  0.92862499375E+02  0.92862499375E+02  0.00000000000E+00 0.  1.
          1   -1    0    0  502    0  0.00000000000E+00 -0.00000000000E+00 -0.49791338521E+03  0.49791338521E+03  0.00000000000E+00 0. -1.
         23    2    1    2    0    0 -0.74566573750E+02  0.10772723654E+03 -0.72610002966E+02  0.17576423538E+03  0.91953915072E+02 0.  0.
         23    2    1    2    0    0  0.19680811265E+02 -0.83321554783E+02 -0.33160784101E+03  0.35493854220E+03  0.93208329566E+02 0.  0.
        -13    1    4    4    0    0  0.20660185576E+02  0.13393391937E+01 -0.11211833688E+02  0.23544475194E+02  0.00000000000E+00 0. -1.
         13    1    4    4    0    0 -0.97937431140E+00 -0.84660893976E+02 -0.32039600732E+03  0.33139406701E+03  0.00000000000E+00 0.  1.
        -13    1    3    3    0    0 -0.78209574638E+02  0.50808549991E+02 -0.73463149652E+02  0.11872270496E+03  0.00000000000E+00 0. -1.
         13    1    3    3    0    0  0.36430008873E+01  0.56918686544E+02  0.85314668635E+00  0.57041530420E+02  0.00000000000E+00 0.  1.
         21    1    1    2  502  501  0.54885762486E+02 -0.24405681753E+02 -0.83304186092E+00  0.60073106997E+02  0.00000000000E+00 0.  1.
<scales pt_clust_5="13000.00000" pt_clust_6="13000.00000" pt_clust_7="13000.00000" pt_clust_8="13000.00000" pt_clust_9="60.06733"></scales>
<clustering>
<clus scale="   60.067">  1  9  2 -1</clus>
<clus scale="   91.954">  7  8 -1 -1</clus>
<clus scale="   93.208">  5  6 -1 -1</clus>
<clus scale="  130.602">  1  7  2 -1</clus>
<clus scale="  131.488">  2  5  1 -1</clus>
</clustering>
</event>
<event>
 9    1  0.1266593E-005  0.1188601E+03  0.7546771E-02  0.1245088E+00
          1   -1    0    0  502    0  0.00000000000E+00  0.00000000000E+00  0.23683025915E+03  0.23683025915E+03  0.00000000000E+00 0. -1.
         -1   -1    0    0    0  501 -0.00000000000E+00 -0.00000000000E+00 -0.90600839753E+02  0.90600839753E+02  0.00000000000E+00 0.  1.
         23    2    1    2    0    0  0.20432259849E+02 -0.78458455344E+02 -0.84239906691E+00  0.12242482913E+03  0.91727436980E+02 0.  0.
         23    2    1    2    0    0 -0.36837306430E+02  0.64610921355E+02  0.13858628436E+03  0.18192198854E+03  0.91421514962E+02 0.  0.
        -11    1    4    4    0    0 -0.57634739261E+02  0.34740163565E+02  0.43558867271E+02  0.80162441655E+02  0.00000000000E+00 0. -1.
         11    1    4    4    0    0  0.20797432832E+02  0.29870757790E+02  0.95027417089E+02  0.10175954688E+03  0.00000000000E+00 0.  1.
        -13    1    3    3    0    0  0.47475358623E+02 -0.10760301224E+02 -0.73666560895E+01  0.49233742299E+02  0.00000000000E+00 0.  1.
         13    1    3    3    0    0 -0.27043098774E+02 -0.67698154119E+02  0.65242570225E+01  0.73191086835E+02  0.00000000000E+00 0. -1.
         21    1    1    2  502  501  0.16405046580E+02  0.13847533989E+02  0.84855341046E+01  0.23084281230E+02  0.00000000000E+00 0. -1.
<scales pt_clust_5="13000.00000" pt_clust_6="13000.00000" pt_clust_7="13000.00000" pt_clust_8="13000.00000" pt_clust_9="21.46811"></scales>
<clustering>
<clus scale="   21.468">  2  9  1 -1</clus>
<clus scale="   91.422">  5  6 -1 -1</clus>
<clus scale="   91.727">  7  8 -1 -1</clus>
<clus scale="  118.624">  1  5  2 -1</clus>
<clus scale="  118.624">  1  5  2 -1</clus>
</clustering>
</event>
<event>
 9    1  0.1266593E-005  0.9572629E+02  0.7546771E-02  0.1289558E+00
          1   -1    0    0  502    0  0.00000000000E+00  0.00000000000E+00  0.23187502098E+03  0.23187502098E+03  0.00000000000E+00 0. -1.
         -1   -1    0    0    0  501 -0.00000000000E+00 -0.00000000000E+00 -0.97127299123E+02  0.97127299123E+02  0.00000000000E+00 0.  1.
         23    2    1    2    0    0 -0.25916224571E+02 -0.10916810456E+01 -0.11235871072E+02  0.95966389861E+02  0.91708564054E+02 0.  0.
         23    2    1    2    0    0  0.13105253412E+02  0.27648419987E+02  0.16962078456E+03  0.19524574378E+03  0.91725171653E+02 0.  0.
        -11    1    4    4    0    0  0.25862123368E+02  0.57993776092E+02  0.11856161783E+03  0.13449529625E+03  0.00000000000E+00 0. -1.
         11    1    4    4    0    0 -0.12756869956E+02 -0.30345356104E+02  0.51059166732E+02  0.60750447534E+02  0.00000000000E+00 0.  1.
        -13    1    3    3    0    0 -0.15594666338E+02 -0.44576077684E+02  0.69146907768E+01  0.47728746772E+02  0.00000000000E+00 0.  1.
         13    1    3    3    0    0 -0.10321558233E+02  0.43484396639E+02 -0.18150561849E+02  0.48237643089E+02  0.00000000000E+00 0. -1.
         21    1    1    2  502  501  0.12810971159E+02 -0.26556738942E+02 -0.23637191625E+02  0.37790186467E+02  0.00000000000E+00 0.  1.
<scales pt_clust_5="13000.00000" pt_clust_6="13000.00000" pt_clust_7="13000.00000" pt_clust_8="13000.00000" pt_clust_9="29.48527"></scales>
<clustering>
<clus scale="   29.485">  2  9  1 -1</clus>
<clus scale="   91.709">  7  8 -1 -1</clus>
<clus scale="   91.725">  5  6 -1 -1</clus>
<clus scale="   95.710">  2  7  1 -1</clus>
<clus scale="   95.726">  1  5  2 -1</clus>
</clustering>
</event>
<event>
 9    1  0.1266593E-005  0.9989511E+02  0.7546771E-02  0.1281610E+00
          2   -1    0    0  502    0  0.00000000000E+00  0.00000000000E+00  0.40139473111E+02  0.40139473111E+02  0.00000000000E+00 0. -1.
         -2   -1    0    0    0  501 -0.00000000000E+00 -0.00000000000E+00 -0.45983056217E+03  0.45983056217E+03  0.00000000000E+00 0.  1.
         23    2    1    2    0    0 -0.25083077642E+02  0.45360525785E+02 -0.16738856785E+03  0.19783686003E+03  0.91835464038E+02 0.  0.
         23    2    1    2    0    0  0.13350457250E+02 -0.19960867566E+02 -0.75017783110E+02  0.12265427571E+03  0.94019852288E+02 0.  0.
        -11    1    4    4    0    0  0.44858905164E+02 -0.27721603651E+02 -0.73115901210E+02  0.90148453626E+02  0.00000000000E+00 0.  1.
         11    1    4    4    0    0 -0.31508447914E+02  0.77607360852E+01 -0.19018819004E+01  0.32505822083E+02  0.00000000000E+00 0. -1.
        -13    1    3    3    0    0 -0.43267454282E+02  0.61478416625E+02 -0.93030549256E+02  0.11960916104E+03  0.00000000000E+00 0. -1.
         13    1    3    3    0    0  0.18184376641E+02 -0.16117890840E+02 -0.74358018599E+02  0.78227698988E+02  0.00000000000E+00 0.  1.
         21    1    1    2  502  501  0.11732620392E+02 -0.25399658219E+02 -0.17728473810E+03  0.17947889954E+03  0.00000000000E+00 0.  1.
<scales pt_clust_5="13000.00000" pt_clust_6="13000.00000" pt_clust_7="13000.00000" pt_clust_8="13000.00000" pt_clust_9="27.97851"></scales>
<clustering>
<clus scale="   27.979">  2  9  1 -1</clus>
<clus scale="   91.835">  7  8 -1 -1</clus>
<clus scale="   94.020">  5  6 -1 -1</clus>
<clus scale="   97.842">  2  7  1 -1</clus>
<clus scale="   99.895">  1  5  2 -1</clus>
</clustering>
</event>
<event>
 9    1  0.1266593E-005  0.1428810E+03  0.7546771E-02  0.1209762E+00
          1   -1    0    0  502    0  0.00000000000E+00  0.00000000000E+00  0.43804709490E+02  0.43804709490E+02  0.00000000000E+00 0. -1.
         -1   -1    0    0    0  501 -0.00000000000E+00 -0.00000000000E+00 -0.63814697225E+03  0.63814697225E+03  0.00000000000E+00 0.  1.
         23    2    1    2    0    0  0.10119771292E+02 -0.95807387933E+02 -0.30815091126E+03  0.33571181680E+03  0.91999861247E+02 0.  0.
         23    2    1    2    0    0 -0.29872298245E+02  0.11368476430E+03 -0.16432138467E+03  0.22149191217E+03  0.90777584578E+02 0.  0.
        -11    1    4    4    0    0 -0.93506309011E+01  0.71887978572E+02 -0.15884826819E+03  0.17460838488E+03  0.00000000000E+00 0. -1.
         11    1    4    4    0    0 -0.20521667344E+02  0.41796785727E+02 -0.54731164764E+01  0.46883527296E+02  0.00000000000E+00 0.  1.
        -13    1    3    3    0    0  0.41707495958E+02 -0.88513138121E+02 -0.25865610101E+03  0.27654487778E+03  0.00000000000E+00 0.  1.
         13    1    3    3    0    0 -0.31587724665E+02 -0.72942498116E+01 -0.49494810257E+02  0.59166939013E+02  0.00000000000E+00 0. -1.
         21    1    1    2  502  501  0.19752526953E+02 -0.17877376366E+02 -0.12186996682E+03  0.12474795277E+03  0.00000000000E+00 0.  1.
<scales pt_clust_5="13000.00000" pt_clust_6="13000.00000" pt_clust_7="13000.00000" pt_clust_8="13000.00000" pt_clust_9="26.64138"></scales>
<clustering>
<clus scale="   26.641">  2  9  1 -1</clus>
<clus scale="   90.778">  5  6 -1 -1</clus>
<clus scale="   92.000">  7  8 -1 -1</clus>
<clus scale="  142.097">  1  5  2 -1</clus>
<clus scale="  142.097">  1  5  2 -1</clus>
</clustering>
</event>
<event>
 9    1  0.1266593E-005  0.2436165E+03  0.7546771E-02  0.1118149E+00
          1   -1    0    0  502    0  0.00000000000E+00  0.00000000000E+00  0.34404610334E+03  0.34404610334E+03  0.00000000000E+00 0. -1.
         -1   -1    0    0    0  501 -0.00000000000E+00 -0.00000000000E+00 -0.26290276449E+03  0.26290276449E+03  0.00000000000E+00 0.  1.
         23    2    1    2    0    0 -0.63948987269E+02 -0.24063316152E+03  0.21822038754E+02  0.26573025166E+03  0.90236211560E+02 0.  0.
         23    2    1    2    0    0  0.38613120083E+02  0.20255168439E+03  0.12464560516E+03  0.26147295861E+03  0.10155502600E+03 0.  0.
        -11    1    4    4    0    0  0.56089568389E+02  0.48644182167E+02  0.30908311352E+02  0.80421513610E+02  0.00000000000E+00 0.  1.
         11    1    4    4    0    0 -0.17476448306E+02  0.15390750222E+03  0.93737293811E+02  0.18105144500E+03  0.00000000000E+00 0. -1.
        -13    1    3    3    0    0 -0.34254242639E+02 -0.22178910615E+02 -0.12347644179E+02  0.42634745591E+02  0.00000000000E+00 0. -1.
         13    1    3    3    0    0 -0.29694744631E+02 -0.21845425090E+03  0.34169682933E+02  0.22309550607E+03  0.00000000000E+00 0.  1.
         21    1    1    2  502  501  0.25335867187E+02  0.38081477131E+02 -0.65324305072E+02  0.79745657560E+02  0.00000000000E+00 0. -1.
<scales pt_clust_5="13000.00000" pt_clust_6="13000.00000" pt_clust_7="13000.00000" pt_clust_8="13000.00000" pt_clust_9="45.73954"></scales>
<clustering>
<clus scale="   45.740">  2  9  1 -1</clus>
<clus scale="   90.236">  7  8 -1 -1</clus>
<clus scale="  101.555">  5  6 -1 -1</clus>
<clus scale="  239.120">  2  7  1 -1</clus>
<clus scale="  243.617">  1  5  2 -1</clus>
</clustering>
</event>
<event>
 9    1  0.1266593E-005  0.2660753E+03  0.7546771E-02  0.1103649E+00
         -2   -1    0    0    0  501 -0.00000000000E+00  0.00000000000E+00  0.17403504485E+03  0.17403504485E+03  0.00000000000E+00 0.  1.
          2   -1    0    0  502    0  0.00000000000E+00 -0.00000000000E+00 -0.50393425988E+03  0.50393425988E+03  0.00000000000E+00 0. -1.
         23    2    1    2    0    0  0.84746064417E+02  0.24845895989E+03 -0.18684811199E+03  0.33561925313E+03  0.93884588350E+02 0.  0.
         23    2    1    2    0    0 -0.83220670099E+02 -0.22151379958E+03 -0.16896520781E+03  0.30493468956E+03  0.91879704549E+02 0.  0.
        -11    1    4    4    0    0 -0.97055659253E+02 -0.14019637939E+03 -0.10203741128E+03  0.19871200036E+03  0.00000000000E+00 0.  1.
         11    1    4    4    0    0  0.13834989154E+02 -0.81317420195E+02 -0.66927796522E+02  0.10622268919E+03  0.00000000000E+00 0. -1.
        -11    1    3    3    0    0  0.49546393720E+02  0.16213190775E+03 -0.17147387029E+03  0.24113251301E+03  0.00000000000E+00 0. -1.
         11    1    3    3    0    0  0.35199670697E+02  0.86327052144E+02 -0.15374241700E+02  0.94486740111E+02  0.00000000000E+00 0.  1.
         21    1    1    2  502  501 -0.15253943183E+01 -0.26945160310E+02  0.25914104754E+02  0.37415362048E+02  0.00000000000E+00 0.  1.
<scales pt_clust_5="13000.00000" pt_clust_6="13000.00000" pt_clust_7="13000.00000" pt_clust_8="13000.00000" pt_clust_9="26.98830"></scales>
<clustering>
<clus scale="   26.988">  1  9  2 -1</clus>
<clus scale="   91.880">  5  6 -1 -1</clus>
<clus scale="   93.885">  7  8 -1 -1</clus>
<clus scale="  265.374">  2  5  1 -1</clus>
<clus scale="  265.374">  2  5  1 -1</clus>
</clustering>
</event>
<event>
 9    1  0.1266593E-005  0.1927528E+03  0.7546771E-02  0.1156036E+00
          2   -1    0    0  502    0  0.00000000000E+00  0.00000000000E+00  0.45509453404E+03  0.45509453404E+03  0.00000000000E+00 0. -1.
         -2   -1    0    0    0  501 -0.00000000000E+00 -0.00000000000E+00 -0.14820986526E+03  0.14820986526E+03  0.00000000000E+00 0.  1.
         23    2    1    2    0    0  0.44048449722E+02 -0.19469217120E+03  0.14210946285E+03  0.26282969176E+03  0.95073865956E+02 0.  0.
         23    2    1    2    0    0 -0.36589226369E+02  0.14587001640E+03  0.20886902592E+03  0.27426664328E+03  0.94758052195E+02 0.  0.
        -11    1    4    4    0    0 -0.57998354488E+01  0.13480732046E+03  0.19836184306E+03  0.23990429868E+03  0.00000000000E+00 0. -1.
         11    1    4    4    0    0 -0.30789390920E+02  0.11062695939E+02  0.10507182852E+02  0.34362344597E+02  0.00000000000E+00 0.  1.
        -11    1    3    3    0    0  0.66916081717E+02 -0.12225364445E+03  0.62334567379E+02  0.15267388075E+03  0.00000000000E+00 0.  1.
         11    1    3    3    0    0 -0.22867631995E+02 -0.72438526756E+02  0.79774895471E+02  0.11015581101E+03  0.00000000000E+00 0. -1.
         21    1    1    2  502  501 -0.74592233524E+01  0.48822154803E+02 -0.44093819989E+02  0.66208064266E+02  0.00000000000E+00 0. -1.
<scales pt_clust_5="13000.00000" pt_clust_6="13000.00000" pt_clust_7="13000.00000" pt_clust_8="13000.00000" pt_clust_9="49.38869"></scales>
<clustering>
<clus scale="   49.389">  2  9  1 -1</clus>
<clus scale="   94.758">  5  6 -1 -1</clus>
<clus scale="   95.074">  7  8 -1 -1</clus>
<clus scale="  192.597">  1  5  2 -1</clus>
<clus scale="  192.597">  1  5  2 -1</clus>
</clustering>
</event>
<event>
 9    1  0.1266593E-005  0.9311138E+02  0.7546771E-02  0.1295598E+00
         -1   -1    0    0    0  501 -0.00000000000E+00  0.00000000000E+00  0.23923077081E+03  0.23923077081E+03  0.00000000000E+00 0.  1.
          1   -1    0    0  502    0  0.00000000000E+00 -0.00000000000E+00 -0.87823619143E+02  0.87823619143E+02  0.00000000000E+00 0. -1.
         23    2    1    2    0    0 -0.10659749462E+02 -0.12279991361E+01  0.35661503429E+02  0.98871226317E+02  0.91589509914E+02 0.  0.
         23    2    1    2    0    0 -0.20356605974E+02 -0.23008386303E+02 -0.91609143902E+01  0.97221084882E+02  0.91783657293E+02 0.  0.
        -11    1    4    4    0    0 -0.55654451477E+02 -0.10766981932E+02  0.57878875336E+01  0.56981097841E+02  0.00000000000E+00 0. -1.
         11    1    4    4    0    0  0.35297845503E+02 -0.12241404371E+02 -0.14948801924E+02  0.40239987041E+02  0.00000000000E+00 0.  1.
        -11    1    3    3    0    0  0.40082671138E+01  0.41657544478E+02  0.33305773914E+02  0.53485435337E+02  0.00000000000E+00 0.  1.
         11    1    3    3    0    0 -0.14668016575E+02 -0.42885543614E+02  0.23557295146E+01  0.45385790980E+02  0.00000000000E+00 0. -1.
         21    1    1    2  502  501  0.31016355435E+02  0.24236385439E+02  0.12490656262E+03  0.13096207875E+03  0.00000000000E+00 0.  1.
<scales pt_clust_5="13000.00000" pt_clust_6="13000.00000" pt_clust_7="13000.00000" pt_clust_8="13000.00000" pt_clust_9="39.36263"></scales>
<clustering>
<clus scale="   39.363">  1  9  2 -1</clus>
<clus scale="   91.590">  7  8 -1 -1</clus>
<clus scale="   91.784">  5  6 -1 -1</clus>
<clus scale="   92.920">  1  7  2 -1</clus>
<clus scale="   93.111">  2  5  1 -1</clus>
</clustering>
</event>
<event>
 9    1  0.1266593E-005  0.1322285E+03  0.7546771E-02  0.1224628E+00
         -1   -1    0    0    0  501 -0.00000000000E+00  0.00000000000E+00  0.51071209633E+03  0.51071209633E+03  0.00000000000E+00 0.  1.
          1   -1    0    0  502    0  0.00000000000E+00 -0.00000000000E+00 -0.10744698828E+03  0.10744698828E+03  0.00000000000E+00 0. -1.
         23    2    1    2    0    0  0.10151035924E+02 -0.56572046195E+02  0.37657325865E+03  0.39145430708E+03  0.90142195782E+02 0.  0.
         23    2    1    2    0    0 -0.66355503887E+02  0.78898360633E+02 -0.35106834170E+02  0.14023811444E+03  0.88352898821E+02 0.  0.
        -11    1    4    4    0    0  0.19201181924E+02  0.30120166941E+02 -0.11016138304E+00  0.35720050103E+02  0.00000000000E+00 0.  1.
         11    1    4    4    0    0 -0.85556685811E+02  0.48778193692E+02 -0.34996672786E+02  0.10451806434E+03  0.00000000000E+00 0. -1.
        -11    1    3    3    0    0 -0.39514404259E+02 -0.15621381951E+02  0.15536602001E+03  0.16107146207E+03  0.00000000000E+00 0. -1.
         11    1    3    3    0    0  0.49665440183E+02 -0.40950664244E+02  0.22120723863E+03  0.23038284501E+03  0.00000000000E+00 0.  1.
         21    1    1    2  502  501  0.56204467963E+02 -0.22326314438E+02  0.61798683578E+02  0.86466663098E+02  0.00000000000E+00 0. -1.
<scales pt_clust_5="13000.00000" pt_clust_6="13000.00000" pt_clust_7="13000.00000" pt_clust_8="13000.00000" pt_clust_9="60.47650"></scales>
<clustering>
<clus scale="   60.476">  1  9  2 -1</clus>
<clus scale="   88.353">  5  6 -1 -1</clus>
<clus scale="   90.142">  7  8 -1 -1</clus>
<clus scale="  131.015">  2  5  1 -1</clus>
<clus scale="  131.015">  2  5  1 -1</clus>
</clustering>
</event>
<event>
 9    1  0.1266593E-005  0.1402362E+03  0.7546771E-02  0.1213145E+00
          2   -1    0    0  502    0  0.00000000000E+00  0.00000000000E+00  0.19965609826E+03  0.19965609826E+03  0.00000000000E+00 0. -1.
         -2   -1    0    0    0  501 -0.00000000000E+00 -0.00000000000E+00 -0.30832494701E+03  0.30832494701E+03  0.00000000000E+00 0.  1.
         23    2    1    2    0    0 -0.48741636195E+02 -0.11002391725E+03 -0.15655042922E+03  0.21700456716E+03  0.90010753863E+02 0.  0.
         23    2    1    2    0    0 -0.29593596143E+02  0.99527470978E+02 -0.65639089118E+02  0.15265248730E+03  0.90624463845E+02 0.  0.
        -13    1    4    4    0    0  0.19878548843E+02  0.19446723404E+02 -0.50027207411E+02  0.57236817142E+02  0.00000000000E+00 0.  1.
         13    1    4    4    0    0 -0.49472144986E+02  0.80080747574E+02 -0.15611881707E+02  0.95415670159E+02  0.00000000000E+00 0. -1.
        -13    1    3    3    0    0 -0.27086772857E+02 -0.11445696938E+03 -0.15537014474E+03  0.19486911756E+03  0.00000000000E+00 0. -1.
         13    1    3    3    0    0 -0.21654863338E+02  0.44330521267E+01 -0.11802844834E+01  0.22135449595E+02  0.00000000000E+00 0.  1.
         21    1    1    2  502  501  0.78335232338E+02  0.10496446273E+02  0.11352066960E+03  0.13832399082E+03  0.00000000000E+00 0. -1.
<scales pt_clust_5="13000.00000" pt_clust_6="13000.00000" pt_clust_7="13000.00000" pt_clust_8="13000.00000" pt_clust_9="79.03533"></scales>
<clustering>
<clus scale="   79.035">  1  9  2 -1</clus>
<clus scale="   90.011">  7  8 -1 -1</clus>
<clus scale="   90.624">  5  6 -1 -1</clus>
<clus scale="  139.840">  2  7  1 -1</clus>
<clus scale="   79.035">  1  5  2 -1</clus>
</clustering>
</event>
<event>
 9    1  0.1266593E-005  0.1016909E+03  0.7546771E-02  0.1281015E+00
         -2   -1    0    0    0  501 -0.00000000000E+00  0.00000000000E+00  0.16128572608E+03  0.16128572608E+03  0.00000000000E+00 0.  1.
          2   -1    0    0  502    0  0.00000000000E+00 -0.00000000000E+00 -0.40551492746E+03  0.40551492746E+03  0.00000000000E+00 0. -1.
         23    2    1    2    0    0 -0.93400812881E+01 -0.13496468697E+02 -0.65494474788E+02  0.11969241943E+03  0.98829941086E+02 0.  0.
         23    2    1    2    0    0 -0.29048060786E+02 -0.19556934405E+02 -0.30017501841E+03  0.31552585920E+03  0.90693233640E+02 0.  0.
        -11    1    3    3    0    0 -0.30820717539E+02 -0.47663197920E+02 -0.52437186997E+02  0.77274547205E+02  0.00000000000E+00 0. -1.
         11    1    3    3    0    0  0.21480636251E+02  0.34166729223E+02 -0.13057287791E+02  0.42417872224E+02  0.00000000000E+00 0.  1.
        -11    1    4    4    0    0  0.52259416221E+01 -0.47515023233E+02 -0.20611292891E+03  0.21158338158E+03  0.00000000000E+00 0.  1.
         11    1    4    4    0    0 -0.34274002409E+02  0.27958088828E+02 -0.94062089508E+02  0.10394247762E+03  0.00000000000E+00 0. -1.
         21    1    1    2  502  501  0.38388142075E+02  0.33053403102E+02  0.12144029182E+03  0.13158237491E+03  0.00000000000E+00 0.  1.
<scales pt_clust_5="13000.00000" pt_clust_6="13000.00000" pt_clust_7="13000.00000" pt_clust_8="13000.00000" pt_clust_9="50.65745"></scales>
<clustering>
<clus scale="   50.657">  1  9  2 -1</clus>
<clus scale="   90.693">  7  8 -1 -1</clus>
<clus scale="   93.803">  2  7  1 -1</clus>
<clus scale="   98.830">  5  6 -1 -1</clus>
<clus scale="   93.803">  2  5  1 -1</clus>
</clustering>
</event>
<event>
 9    1  0.1266593E-005  0.9713944E+02  0.7546771E-02  0.1288511E+00
         -1   -1    0    0    0  501 -0.00000000000E+00  0.00000000000E+00  0.20993760034E+03  0.20993760034E+03  0.00000000000E+00 0.  1.
          1   -1    0    0  502    0  0.00000000000E+00 -0.00000000000E+00 -0.43904110808E+03  0.43904110808E+03  0.00000000000E+00 0. -1.
         23    2    1    2    0    0 -0.43890157942E+02  0.26387147755E+02  0.34458416121E+01  0.10453892343E+03  0.91070770045E+02 0.  0.
         23    2    1    2    0    0  0.15664637360E+02 -0.75744814897E+01 -0.38055695111E+03  0.39259497408E+03  0.94891870072E+02 0.  0.
        -11    1    3    3    0    0  0.23772649153E+02  0.20033069452E+02 -0.14419713225E+02  0.34269386468E+02  0.00000000000E+00 0. -1.
         11    1    3    3    0    0 -0.67662807095E+02  0.63540783025E+01  0.17865554837E+02  0.70269536961E+02  0.00000000000E+00 0.  1.
        -11    1    4    4    0    0 -0.42943351369E+01 -0.49685598631E+02 -0.19783112027E+03  0.20402022491E+03  0.00000000000E+00 0.  1.
         11    1    4    4    0    0  0.19958972497E+02  0.42111117141E+02 -0.18272583084E+03  0.18857474917E+03  0.00000000000E+00 0. -1.
         21    1    1    2  502  501  0.28225520582E+02 -0.18812666265E+02  0.14800760175E+03  0.15184481091E+03  0.00000000000E+00 0.  1.
<scales pt_clust_5="13000.00000" pt_clust_6="13000.00000" pt_clust_7="13000.00000" pt_clust_8="13000.00000" pt_clust_9="33.92044"></scales>
<clustering>
<clus scale="   33.920">  1  9  2 -1</clus>
<clus scale="   91.071">  5  6 -1 -1</clus>
<clus scale="   93.410">  1  5  2 -1</clus>
<clus scale="   94.892">  7  8 -1 -1</clus>
<clus scale="   97.139">  2  5  1 -1</clus>
</clustering>
</event>
<event>
 9    1  0.1266593E-005  0.1201971E+03  0.7546771E-02  0.1252359E+00
         -1   -1    0    0    0  501 -0.00000000000E+00  0.00000000000E+00  0.33728070401E+02  0.33728070401E+02  0.00000000000E+00 0.  1.
          1   -1    0    0  502    0  0.00000000000E+00 -0.00000000000E+00 -0.51466947499E+03  0.51466947499E+03  0.00000000000E+00 0. -1.
         23    2    1    2    0    0  0.73907188278E+02 -0.51031452765E+02 -0.23668298013E+03  0.26050797604E+03  0.61474310444E+02 0.  0.
         23    2    1    2    0    0 -0.46204206141E+02  0.46257673299E+02 -0.23068160051E+03  0.25667139615E+03  0.91605697343E+02 0.  0.
        -11    1    4    4    0    0 -0.26818179216E+02 -0.25016850137E+02 -0.55143327747E+02  0.66225705903E+02  0.00000000000E+00 0.  1.
         11    1    4    4    0    0 -0.19386026925E+02  0.71274523436E+02 -0.17553827276E+03  0.19044569025E+03  0.00000000000E+00 0. -1.
        -13    1    3    3    0    0  0.34504748171E+02  0.89869528089E+01 -0.99081655260E+02  0.10530202931E+03  0.00000000000E+00 0. -1.
         13    1    3    3    0    0  0.39402440106E+02 -0.60018405574E+02 -0.13760132487E+03  0.15520594673E+03  0.00000000000E+00 0.  1.
         21    1    1    2  502  501 -0.27702982137E+02  0.47737794656E+01 -0.13576823953E+02  0.31218173206E+02  0.00000000000E+00 0. -1.
<scales pt_clust_5="13000.00000" pt_clust_6="13000.00000" pt_clust_7="13000.00000" pt_clust_8="13000.00000" pt_clust_9="28.11128"></scales>
<clustering>
<clus scale="   28.111">  1  9  2 -1</clus>
<clus scale="   61.474">  7  8 -1 -1</clus>
<clus scale="   91.606">  5  6 -1 -1</clus>
<clus scale="   99.171">  1  7  2 -1</clus>
<clus scale="  120.197">  2  5  1 -1</clus>
</clustering>
</event>
<event>
 9    1  0.1266593E-005  0.1069420E+03  0.7546771E-02  0.1267577E+00
          1   -1    0    0  502    0  0.00000000000E+00  0.00000000000E+00  0.54415639859E+03  0.54415639859E+03  0.00000000000E+00 0. -1.
         -1   -1    0    0    0  501 -0.00000000000E+00 -0.00000000000E+00 -0.29147460014E+02  0.29147460014E+02  0.00000000000E+00 0.  1.
         23    2    1    2    0    0 -0.60181583466E+01 -0.63523253474E+02  0.27621587220E+03  0.29870920426E+03  0.94130540680E+02 0.  0.
         23    2    1    2    0    0  0.14362457279E+02  0.36448561036E+02  0.21770163215E+03  0.23927447750E+03  0.91233202071E+02 0.  0.
        -11    1    3    3    0    0  0.31951263195E+02 -0.61093531377E+02  0.22211673237E+03  0.23257073245E+03  0.00000000000E+00 0. -1.
         11    1    3    3    0    0 -0.37969421541E+02 -0.24297220978E+01  0.54099139838E+02  0.66138471806E+02  0.00000000000E+00 0.  1.
        -11    1    4    4    0    0  0.33159031732E+02  0.56831396987E+02  0.11106416616E+03  0.12909135553E+03  0.00000000000E+00 0.  1.
         11    1    4    4    0    0 -0.18796574453E+02 -0.20382835952E+02  0.10663746599E+03  0.11018312196E+03  0.00000000000E+00 0. -1.
         21    1    1    2  502  501 -0.83442989324E+01  0.27074692439E+02  0.21091434228E+02  0.35320176856E+02  0.00000000000E+00 0.  1.
<scales pt_clust_5="13000.00000" pt_clust_6="13000.00000" pt_clust_7="13000.00000" pt_clust_8="13000.00000" pt_clust_9="28.33137"></scales>
<clustering>
<clus scale="   28.331">  2  9  1 -1</clus>
<clus scale="   91.233">  7  8 -1 -1</clus>
<clus scale="   94.131">  5  6 -1 -1</clus>
<clus scale="  104.401">  1  7  2 -1</clus>
<clus scale="  104.401">  1  5  2 -1</clus>
</clustering>
</event>
<event>
 9    1  0.1266593E-005  0.1001322E+03  0.7546771E-02  0.1280353E+00
         -2   -1    0    0    0  501 -0.00000000000E+00  0.00000000000E+00  0.22235068648E+03  0.22235068648E+03  0.00000000000E+00 0.  1.
          2   -1    0    0  502    0  0.00000000000E+00 -0.00000000000E+00 -0.22419838802E+03  0.22419838802E+03  0.00000000000E+00 0. -1.
         23    2    1    2    0    0  0.56744352473E+01  0.78158095495E+02 -0.54798332911E+02  0.13213829647E+03  0.91196408910E+02 0.  0.
         23    2    1    2    0    0  0.23733099995E+02 -0.17290107977E+02 -0.10500967778E+03  0.14259350793E+03  0.91889434692E+02 0.  0.
        -13    1    3    3    0    0  0.67643816544E+01  0.45699024476E+02  0.20192185216E+02  0.50417080846E+02  0.00000000000E+00 0.  1.
         13    1    3    3    0    0 -0.10899464071E+01  0.32459071019E+02 -0.74990518126E+02  0.81721215626E+02  0.00000000000E+00 0. -1.
        -13    1    4    4    0    0  0.39534466369E+02 -0.45918281922E+02 -0.84552745295E+02  0.10402225427E+03  0.00000000000E+00 0. -1.
         13    1    4    4    0    0 -0.15801366374E+02  0.28628173946E+02 -0.20456932485E+02  0.38571253667E+02  0.00000000000E+00 0.  1.
         21    1    1    2  502  501 -0.29407535242E+02 -0.60867987518E+02  0.15796030916E+03  0.17181727009E+03  0.00000000000E+00 0.  1.
<scales pt_clust_5="13000.00000" pt_clust_6="13000.00000" pt_clust_7="13000.00000" pt_clust_8="13000.00000" pt_clust_9="67.59967"></scales>
<clustering>
<clus scale="   67.600">  1  9  2 -1</clus>
<clus scale="   91.196">  5  6 -1 -1</clus>
<clus scale="   91.889">  7  8 -1 -1</clus>
<clus scale="   99.497">  1  5  2 -1</clus>
<clus scale="  100.132">  2  5  1 -1</clus>
</clustering>
</event>
<event>
 9    1  0.1266593E-005  0.1488414E+03  0.7546771E-02  0.1202080E+00
          1   -1    0    0  502    0  0.00000000000E+00  0.00000000000E+00  0.25151406848E+03  0.25151406848E+03  0.00000000000E+00 0. -1.
         -1   -1    0    0    0  501 -0.00000000000E+00 -0.00000000000E+00 -0.22902068347E+03  0.22902068347E+03  0.00000000000E+00 0.  1.
         23    2    1    2    0    0 -0.66489189480E+02  0.10247303493E+03  0.54336018947E+02  0.16192820803E+03  0.91360858113E+02 0.  0.
         23    2    1    2    0    0  0.10303906984E+03 -0.60629344915E+02  0.96824381847E+02  0.17845666309E+03  0.90437007382E+02 0.  0.
        -11    1    4    4    0    0  0.42829935902E+01 -0.40483961985E+02  0.31068534191E+01  0.40828271458E+02  0.00000000000E+00 0.  1.
         11    1    4    4    0    0  0.98756076246E+02 -0.20145382929E+02  0.93717528428E+02  0.13762839163E+03  0.00000000000E+00 0. -1.
        -13    1    3    3    0    0 -0.37585554109E+02  0.11502829730E+03  0.42227813666E+02  0.12816930719E+03  0.00000000000E+00 0.  1.
         13    1    3    3    0    0 -0.28903635371E+02 -0.12555262373E+02  0.12108205282E+02  0.33758900842E+02  0.00000000000E+00 0. -1.
         21    1    1    2  502  501 -0.36549880356E+02 -0.41843690014E+02 -0.12866701578E+03  0.14014988083E+03  0.00000000000E+00 0.  1.
<scales pt_clust_5="13000.00000" pt_clust_6="13000.00000" pt_clust_7="13000.00000" pt_clust_8="13000.00000" pt_clust_9="55.55887"></scales>
<clustering>
<clus scale="   55.559">  2  9  1 -1</clus>
<clus scale="   90.437">  5  6 -1 -1</clus>
<clus scale="   91.361">  7  8 -1 -1</clus>
<clus scale="  148.276">  1  5  2 -1</clus>
<clus scale="  148.276">  1  5  2 -1</clus>
</clustering>
</event>
<event>
 9    1  0.1266593E-005  0.1088478E+03  0.7546771E-02  0.1267372E+00
          1   -1    0    0  502    0  0.00000000000E+00  0.00000000000E+00  0.20065578754E+03  0.20065578754E+03  0.00000000000E+00 0. -1.
         -1   -1    0    0    0  501 -0.00000000000E+00 -0.00000000000E+00 -0.43232707687E+03  0.43232707687E+03  0.00000000000E+00 0.  1.
         23    2    1    2    0    0 -0.58126331126E+02  0.79203437772E+02 -0.12880830437E+03  0.18763220605E+03  0.94670008702E+02 0.  0.
         23    2    1    2    0    0  0.12281778620E+02 -0.48765933126E+02  0.15418452888E+03  0.18247884730E+03  0.83646293674E+02 0.  0.
        -11    1    3    3    0    0 -0.62204617172E+02  0.25713127963E+02 -0.26937629277E+02  0.72499760126E+02  0.00000000000E+00 0.  1.
         11    1    3    3    0    0  0.40782860463E+01  0.53490309810E+02 -0.10187067510E+03  0.11513244593E+03  0.00000000000E+00 0. -1.
        -13    1    4    4    0    0 -0.53810186307E+01 -0.22858789209E+02 -0.16306058417E+01  0.23540146155E+02  0.00000000000E+00 0.  1.
         13    1    4    4    0    0  0.17662797251E+02 -0.25907143918E+02  0.15581513472E+03  0.15893870114E+03  0.00000000000E+00 0. -1.
         21    1    1    2  502  501  0.45844552506E+02 -0.30437504646E+02 -0.25704751384E+03  0.26287181106E+03  0.00000000000E+00 0.  1.
<scales pt_clust_5="13000.00000" pt_clust_6="13000.00000" pt_clust_7="13000.00000" pt_clust_8="13000.00000" pt_clust_9="55.02876"></scales>
<clustering>
<clus scale="   55.029">  2  9  1 -1</clus>
<clus scale="   83.646">  7  8 -1 -1</clus>
<clus scale="   94.670">  5  6 -1 -1</clus>
<clus scale="   99.409">  1  7  2 -1</clus>
<clus scale="   99.409">  1  5  2 -1</clus>
</clustering>
</event>
<event>
 9    1  0.1266593E-005  0.1913247E+03  0.7546771E-02  0.1157821E+00
          1   -1    0    0  502    0  0.00000000000E+00  0.00000000000E+00  0.18762262188E+03  0.18762262188E+03  0.00000000000E+00 0. -1.
         -1   -1    0    0    0  501 -0.00000000000E+00 -0.00000000000E+00 -0.37620165312E+03  0.37620165312E+03  0.00000000000E+00 0.  1.
         23    2    1    2    0    0  0.59074822318E+02  0.17910728987E+03 -0.98157713489E+02  0.22946003050E+03  0.86300133033E+02 0.  0.
         23    2    1    2    0    0 -0.56617351962E+02 -0.14885938898E+03  0.50267031911E+02  0.19044000610E+03  0.91520375851E+02 0.  0.
        -11    1    4    4    0    0  0.20271913771E+02 -0.12310313993E+02  0.19579961821E+02  0.30754986968E+02  0.00000000000E+00 0.  1.
         11    1    4    4    0    0 -0.76889265733E+02 -0.13654907498E+03  0.30687070091E+02  0.15968501913E+03  0.00000000000E+00 0. -1.
        -13    1    3    3    0    0 -0.16761695281E+01  0.12684954654E+03 -0.53087994440E+02  0.13752073355E+03  0.00000000000E+00 0.  1.
         13    1    3    3    0    0  0.60750991846E+02  0.52257743327E+02 -0.45069719049E+02  0.91939296947E+02  0.00000000000E+00 0. -1.
         21    1    1    2  502  501 -0.24574703558E+01 -0.30247900894E+02 -0.14068834967E+03  0.14392423841E+03  0.00000000000E+00 0.  1.
<scales pt_clust_5="13000.00000" pt_clust_6="13000.00000" pt_clust_7="13000.00000" pt_clust_8="13000.00000" pt_clust_9="30.34756"></scales>
<clustering>
<clus scale="   30.348">  2  9  1 -1</clus>
<clus scale="   86.300">  7  8 -1 -1</clus>
<clus scale="   91.520">  5  6 -1 -1</clus>
<clus scale="  188.883">  2  7  1 -1</clus>
<clus scale="  191.325">  1  5  2 -1</clus>
</clustering>
</event>
<event>
 9    1  0.1266593E-005  0.1126547E+03  0.7546771E-02  0.1257109E+00
         -1   -1    0    0    0  501 -0.00000000000E+00  0.00000000000E+00  0.31692719019E+03  0.31692719019E+03  0.00000000000E+00 0.  1.
          1   -1    0    0  502    0  0.00000000000E+00 -0.00000000000E+00 -0.56144828804E+02  0.56144828804E+02  0.00000000000E+00 0. -1.
         23    2    1    2    0    0 -0.12941768530E+02  0.76019240634E+02  0.10325656125E+03  0.16011856040E+03  0.95024321234E+02 0.  0.
         23    2    1    2    0    0  0.47978725423E+01 -0.46883041189E+02  0.81809662872E+02  0.13141711944E+03  0.91414436551E+02 0.  0.
        -11    1    4    4    0    0 -0.29138104291E+02  0.14551926012E+02  0.28559774971E+02  0.43317991859E+02  0.00000000000E+00 0.  1.
         11    1    4    4    0    0  0.33935976833E+02 -0.61434967201E+02  0.53249887901E+02  0.88099127578E+02  0.00000000000E+00 0. -1.
        -11    1    3    3    0    0 -0.33684304943E+02  0.73250963240E+02  0.11152655189E+03  0.13761725107E+03  0.00000000000E+00 0.  1.
         11    1    3    3    0    0  0.20742536413E+02  0.27682773937E+01 -0.82699906432E+01  0.22501309335E+02  0.00000000000E+00 0. -1.
         21    1    1    2  502  501  0.81438959875E+01 -0.29136199444E+02  0.75716137271E+02  0.81536339157E+02  0.00000000000E+00 0.  1.
<scales pt_clust_5="13000.00000" pt_clust_6="13000.00000" pt_clust_7="13000.00000" pt_clust_8="13000.00000" pt_clust_9="30.25295"></scales>
<clustering>
<clus scale="   30.253">  1  9  2 -1</clus>
<clus scale="   91.414">  5  6 -1 -1</clus>
<clus scale="   95.024">  7  8 -1 -1</clus>
<clus scale="  109.627">  2  5  1 -1</clus>
<clus scale="  109.627">  2  5  1 -1</clus>
</clustering>
</event>
<event>
 9    1  0.1266593E-005  0.1007776E+03  0.7546771E-02  0.1278840E+00
         -1   -1    0    0    0  501 -0.00000000000E+00  0.00000000000E+00  0.10837260260E+03  0.10837260260E+03  0.00000000000E+00 0.  1.
          1   -1    0    0  502    0  0.00000000000E+00 -0.00000000000E+00 -0.13977856182E+03  0.13977856182E+03  0.00000000000E+00 0. -1.
         23    2    1    2    0    0 -0.32124486579E+02 -0.47968329819E+02 -0.34813849918E+02  0.11075963262E+03  0.87879171418E+02 0.  0.
         23    2    1    2    0    0  0.31988624917E+02  0.27306682085E+02 -0.26869247037E+02  0.10073601086E+03  0.87503488144E+02 0.  0.
        -13    1    4    4    0    0 -0.22612321178E+02 -0.11722395565E+02 -0.21631090117E+02  0.33416099211E+02  0.00000000000E+00 0. -1.
         13    1    4    4    0    0  0.54600946095E+02  0.39029077650E+02 -0.52381569191E+01  0.67319911650E+02  0.00000000000E+00 0.  1.
        -13    1    3    3    0    0 -0.24930042250E+02  0.22627243916E+02 -0.61331501522E+01  0.34221553217E+02  0.00000000000E+00 0.  1.
         13    1    3    3    0    0 -0.71944443290E+01 -0.70595573735E+02 -0.28680699766E+02  0.76538079406E+02  0.00000000000E+00 0. -1.
         21    1    1    2  502  501  0.13586166194E+00  0.20661647734E+02  0.30277137740E+02  0.36655520938E+02  0.00000000000E+00 0.  1.
<scales pt_clust_5="13000.00000" pt_clust_6="13000.00000" pt_clust_7="13000.00000" pt_clust_8="13000.00000" pt_clust_9="20.66209"></scales>
<clustering>
<clus scale="   20.662">  1  9  2 -1</clus>
<clus scale="   87.503">  5  6 -1 -1</clus>
<clus scale="   87.879">  7  8 -1 -1</clus>
<clus scale="  100.450">  2  5  1 -1</clus>
<clus scale="  100.450">  2  5  1 -1</clus>
</clustering>
</event>
<event>
 9    1  0.1266593E-005  0.1671952E+03  0.7546771E-02  0.1181843E+00
         -1   -1    0    0    0  501 -0.00000000000E+00  0.00000000000E+00  0.18279269746E+03  0.18279269746E+03  0.00000000000E+00 0.  1.
          1   -1    0    0  502    0  0.00000000000E+00 -0.00000000000E+00 -0.18483988110E+03  0.18483988110E+03  0.00000000000E+00 0. -1.
         23    2    1    2    0    0  0.11524719044E+03  0.81576330821E+02 -0.67969975615E+01  0.16654745234E+03  0.88063852125E+02 0.  0.
         23    2    1    2    0    0 -0.12012802850E+03 -0.61549709604E+02 -0.22847996263E+02  0.16663912116E+03  0.95012924304E+02 0.  0.
        -11    1    3    3    0    0  0.52621896038E+02  0.79537878654E+02 -0.29617669161E+02  0.99862627694E+02  0.00000000000E+00 0.  1.
         11    1    3    3    0    0  0.62625294398E+02  0.20384521676E+01  0.22820671599E+02  0.66684824645E+02  0.00000000000E+00 0. -1.
        -13    1    4    4    0    0 -0.27462600007E+02 -0.47990533596E+02 -0.43958212478E+02  0.70637172637E+02  0.00000000000E+00 0. -1.
         13    1    4    4    0    0 -0.92665428496E+02 -0.13559176008E+02  0.21110216215E+02  0.96001948527E+02  0.00000000000E+00 0.  1.
         21    1    1    2  502  501  0.48808380667E+01 -0.20026621217E+02  0.27597810184E+02  0.34446005059E+02  0.00000000000E+00 0. -1.
<scales pt_clust_5="13000.00000" pt_clust_6="13000.00000" pt_clust_7="13000.00000" pt_clust_8="13000.00000" pt_clust_9="20.61281"></scales>
<clustering>
<clus scale="   20.613">  1  9  2 -1</clus>
<clus scale="   88.064">  5  6 -1 -1</clus>
<clus scale="   95.013">  7  8 -1 -1</clus>
<clus scale="  163.346">  1  5  2 -1</clus>
<clus scale="  167.195">  2  5  1 -1</clus>
</clustering>
</event>
<event>
 9    1  0.1266593E-005  0.2217094E+03  0.7546771E-02  0.1132877E+00
         -1   -1    0    0    0  501 -0.00000000000E+00  0.00000000000E+00  0.30418159491E+03  0.30418159491E+03  0.00000000000E+00 0.  1.
          1   -1    0    0  502    0  0.00000000000E+00 -0.00000000000E+00 -0.60657158848E+03  0.60657158848E+03  0.00000000000E+00 0. -1.
         23    2    1    2    0    0 -0.24584791985E+02  0.22293178021E+03  0.50616427192E+02  0.24832265499E+03  0.93803665482E+02 0.  0.
         23    2    1    2    0    0 -0.11514127059E+02 -0.19730600224E+03 -0.48055555096E+03  0.52741722140E+03  0.90404945851E+02 0.  0.
        -11    1    3    3    0    0 -0.47152513678E+02  0.11526950484E+03  0.59379069848E+02  0.13797207047E+03  0.00000000000E+00 0.  1.
         11    1    3    3    0    0  0.22567721693E+02  0.10766227536E+03 -0.87626426561E+01  0.11035058452E+03  0.00000000000E+00 0. -1.
        -11    1    4    4    0    0  0.13724531609E+02 -0.64395246241E+02 -0.26392251262E+03  0.27201140265E+03  0.00000000000E+00 0.  1.
         11    1    4    4    0    0 -0.25238658668E+02 -0.13291075600E+03 -0.21663303834E+03  0.25540581875E+03  0.00000000000E+00 0. -1.
         21    1    1    2  502  501  0.36098919044E+02 -0.25625777967E+02  0.12754913019E+03  0.13501330700E+03  0.00000000000E+00 0.  1.
<scales pt_clust_5="13000.00000" pt_clust_6="13000.00000" pt_clust_7="13000.00000" pt_clust_8="13000.00000" pt_clust_9="44.26977"></scales>
<clustering>
<clus scale="   44.270">  1  9  2 -1</clus>
<clus scale="   90.405">  7  8 -1 -1</clus>
<clus scale="   93.804">  5  6 -1 -1</clus>
<clus scale="  220.293">  2  7  1 -1</clus>
<clus scale="  220.293">  2  5  1 -1</clus>
</clustering>
</event>
<event>
 9    1  0.1266593E-005  0.9950887E+02  0.7546771E-02  0.1285320E+00
          1   -1    0    0  502    0  0.00000000000E+00  0.00000000000E+00  0.26154723231E+03  0.26154723231E+03  0.00000000000E+00 0. -1.
         -1   -1    0    0    0  501 -0.00000000000E+00 -0.00000000000E+00 -0.60512300603E+02  0.60512300603E+02  0.00000000000E+00 0.  1.
         23    2    1    2    0    0  0.35613716451E+02  0.12230367021E+02  0.52714519855E+02  0.10929559674E+03  0.88027201394E+02 0.  0.
         23    2    1    2    0    0 -0.21687968477E+02  0.18535326501E+02  0.14861991262E+03  0.17899199435E+03  0.95584147789E+02 0.  0.
        -11    1    4    4    0    0 -0.28350849642E+01  0.37801187586E+02  0.12034072108E+02  0.39771678129E+02  0.00000000000E+00 0.  1.
         11    1    4    4    0    0 -0.18852883513E+02 -0.19265861085E+02  0.13658584051E+03  0.13922031622E+03  0.00000000000E+00 0. -1.
        -13    1    3    3    0    0 -0.84545873648E+01 -0.22160768370E+02  0.47575572621E+02  0.53160274760E+02  0.00000000000E+00 0. -1.
         13    1    3    3    0    0  0.44068303815E+02  0.34391135391E+02  0.51389472339E+01  0.56135321976E+02  0.00000000000E+00 0.  1.
         21    1    1    2  502  501 -0.13925747973E+02 -0.30765693523E+02 -0.29950076280E+00  0.33771941834E+02  0.00000000000E+00 0.  1.
<scales pt_clust_5="13000.00000" pt_clust_6="13000.00000" pt_clust_7="13000.00000" pt_clust_8="13000.00000" pt_clust_9="33.77061"></scales>
<clustering>
<clus scale="   33.771">  2  9  1 -1</clus>
<clus scale="   88.027">  7  8 -1 -1</clus>
<clus scale="   92.274">  2  7  1 -1</clus>
<clus scale="   95.584">  5  6 -1 -1</clus>
<clus scale="   99.509">  1  5  2 -1</clus>
</clustering>
</event>
<event>
 9    1  0.1266593E-005  0.1001149E+03  0.7546771E-02  0.1282475E+00
          3   -1    0    0  502    0  0.00000000000E+00  0.00000000000E+00  0.32874358624E+03  0.32874358624E+03  0.00000000000E+00 0. -1.
         -3   -1    0    0    0  501 -0.00000000000E+00 -0.00000000000E+00 -0.47971814196E+02  0.47971814196E+02  0.00000000000E+00 0.  1.
         23    2    1    2    0    0  0.49628874074E+02  0.16574298879E+02  0.95007457535E+02  0.14200288038E+03  0.91655160922E+02 0.  0.
         23    2    1    2    0    0 -0.34184895916E+02  0.20004445212E+02  0.16330096259E+03  0.18909319126E+03  0.86719349980E+02 0.  0.
        -11    1    4    4    0    0  0.17883098460E+02  0.24150905338E+02  0.18813804835E+02  0.35454628633E+02  0.00000000000E+00 0.  1.
         11    1    4    4    0    0 -0.52067994376E+02 -0.41464601262E+01  0.14448715775E+03  0.15363856263E+03  0.00000000000E+00 0. -1.
        -13    1    3    3    0    0  0.19366007742E+01 -0.32739151881E+02  0.13497243243E+02  0.35465166905E+02  0.00000000000E+00 0.  1.
         13    1    3    3    0    0  0.47692273299E+02  0.49313450760E+02  0.81510214292E+02  0.10653771347E+03  0.00000000000E+00 0. -1.
         21    1    1    2  502  501 -0.15443978157E+02 -0.36578744091E+02  0.22463351921E+02  0.45619328799E+02  0.00000000000E+00 0.  1.
<scales pt_clust_5="13000.00000" pt_clust_6="13000.00000" pt_clust_7="13000.00000" pt_clust_8="13000.00000" pt_clust_9="39.70543"></scales>
<clustering>
<clus scale="   39.705">  2  9  1 -1</clus>
<clus scale="   86.719">  5  6 -1 -1</clus>
<clus scale="   91.655">  7  8 -1 -1</clus>
<clus scale="   95.617">  1  5  2 -1</clus>
<clus scale="   95.617">  1  5  2 -1</clus>
</clustering>
</event>
<event>
 9    1  0.1266593E-005  0.9791728E+02  0.7546771E-02  0.1285830E+00
          1   -1    0    0  502    0  0.00000000000E+00  0.00000000000E+00  0.27286901901E+03  0.27286901901E+03  0.00000000000E+00 0. -1.
         -1   -1    0    0    0  501 -0.00000000000E+00 -0.00000000000E+00 -0.78733168342E+02  0.78733168342E+02  0.00000000000E+00 0.  1.
         23    2    1    2    0    0  0.44279390173E+02 -0.20869241671E+02  0.11802290785E+03  0.15663152467E+03  0.90597119713E+02 0.  0.
         23    2    1    2    0    0 -0.12401755306E+02  0.28903150188E+02  0.11211472151E+03  0.14621765908E+03  0.88434707114E+02 0.  0.
        -11    1    3    3    0    0  0.16223207157E+02 -0.16994355897E+02  0.12522311829E+03  0.12740812351E+03  0.00000000000E+00 0. -1.
         11    1    3    3    0    0  0.28056183016E+02 -0.38748857731E+01 -0.72002104322E+01  0.29223401161E+02  0.00000000000E+00 0.  1.
        -13    1    4    4    0    0 -0.27511011499E+02  0.52443385567E+02  0.47875650605E+02  0.76152756774E+02  0.00000000000E+00 0.  1.
         13    1    4    4    0    0  0.15109256193E+02 -0.23540235380E+02  0.64239070908E+02  0.70064902309E+02  0.00000000000E+00 0. -1.
         21    1    1    2  502  501 -0.31877634868E+02 -0.80339085171E+01 -0.36001778697E+02  0.48753003601E+02  0.00000000000E+00 0.  1.
<scales pt_clust_5="13000.00000" pt_clust_6="13000.00000" pt_clust_7="13000.00000" pt_clust_8="13000.00000" pt_clust_9="32.87442"></scales>
<clustering>
<clus scale="   32.874">  2  9  1 -1</clus>
<clus scale="   88.435">  7  8 -1 -1</clus>
<clus scale="   90.597">  5  6 -1 -1</clus>
<clus scale="   95.920">  1  7  2 -1</clus>
<clus scale="   95.920">  1  5  2 -1</clus>
</clustering>
</event>
<event>
 9    1  0.1266593E-005  0.1077201E+03  0.7546771E-02  0.1266093E+00
         -1   -1    0    0    0  501 -0.00000000000E+00  0.00000000000E+00  0.10012298820E+03  0.10012298820E+03  0.00000000000E+00 0.  1.
          1   -1    0    0  502    0  0.00000000000E+00 -0.00000000000E+00 -0.38371631673E+03  0.38371631673E+03  0.00000000000E+00 0. -1.
         23    2    1    2    0    0  0.61131257105E+02 -0.10356471860E+03 -0.34821852795E+02  0.15580940582E+03  0.92743344642E+02 0.  0.
         23    2    1    2    0    0 -0.43499719889E+01  0.44141972632E+02 -0.21868337481E+03  0.24050578303E+03  0.89739496587E+02 0.  0.
        -11    1    4    4    0    0  0.44552434504E+01  0.62921959445E+02 -0.20763433332E+03  0.21700469707E+03  0.00000000000E+00 0. -1.
         11    1    4    4    0    0 -0.88052154393E+01 -0.18779986812E+02 -0.11049041487E+02  0.23501085962E+02  0.00000000000E+00 0.  1.
        -11    1    3    3    0    0  0.38647041032E+02  0.58010822523E+01 -0.17505002979E+02  0.42821390275E+02  0.00000000000E+00 0. -1.
         11    1    3    3    0    0  0.22484216073E+02 -0.10936580086E+03 -0.17316849817E+02  0.11298801555E+03  0.00000000000E+00 0.  1.
         21    1    1    2  502  501 -0.56781285116E+02  0.59422745972E+02 -0.30088100931E+02  0.87524116082E+02  0.00000000000E+00 0.  1.
<scales pt_clust_5="13000.00000" pt_clust_6="13000.00000" pt_clust_7="13000.00000" pt_clust_8="13000.00000" pt_clust_9="82.18988"></scales>
<clustering>
<clus scale="   82.190">  1  9  2 -1</clus>
<clus scale="   89.739">  5  6 -1 -1</clus>
<clus scale="   92.743">  7  8 -1 -1</clus>
<clus scale="  105.145">  2  5  1 -1</clus>
<clus scale="  105.145">  2  5  1 -1</clus>
</clustering>
</event>
<event>
 9    1  0.1266593E-005  0.9702329E+02  0.7546771E-02  0.1286823E+00
          1   -1    0    0  502    0  0.00000000000E+00  0.00000000000E+00  0.18040834242E+03  0.18040834242E+03  0.00000000000E+00 0. -1.
         -1   -1    0    0    0  501 -0.00000000000E+00 -0.00000000000E+00 -0.96303803463E+02  0.96303803463E+02  0.00000000000E+00 0.  1.
         23    2    1    2    0    0  0.63911891966E+01  0.16176623486E+02 -0.93211987901E+01  0.92813453897E+02  0.90691355877E+02 0.  0.
         23    2    1    2    0    0 -0.89922350114E+01 -0.38670214778E+02  0.11549341683E+03  0.15228050816E+03  0.90963608296E+02 0.  0.
        -13    1    4    4    0    0  0.15201638952E+02 -0.49436284380E+02  0.11466102034E+03  0.12578626962E+03  0.00000000000E+00 0. -1.
         13    1    4    4    0    0 -0.24193873964E+02  0.10766069602E+02  0.83239649038E+00  0.26494238543E+02  0.00000000000E+00 0.  1.
        -13    1    3    3    0    0 -0.25485665178E+02  0.30506112309E+02 -0.32102118247E+02  0.51094892248E+02  0.00000000000E+00 0.  1.
         13    1    3    3    0    0  0.31876854375E+02 -0.14329488824E+02  0.22780919457E+02  0.41718561650E+02  0.00000000000E+00 0. -1.
         21    1    1    2  502  501  0.26010458149E+01  0.22493591292E+02 -0.22067679078E+02  0.31618183826E+02  0.00000000000E+00 0. -1.
<scales pt_clust_5="13000.00000" pt_clust_6="13000.00000" pt_clust_7="13000.00000" pt_clust_8="13000.00000" pt_clust_9="22.64348"></scales>
<clustering>
<clus scale="   22.643">  2  9  1 -1</clus>
<clus scale="   90.691">  7  8 -1 -1</clus>
<clus scale="   90.964">  5  6 -1 -1</clus>
<clus scale="   96.768">  2  7  1 -1</clus>
<clus scale="   97.023">  1  5  2 -1</clus>
</clustering>
</event>
<event>
 9    1  0.1266593E-005  0.2675263E+03  0.7546771E-02  0.1102716E+00
          1   -1    0    0  502    0  0.00000000000E+00  0.00000000000E+00  0.14386929962E+04  0.14386929962E+04  0.00000000000E+00 0. -1.
         -1   -1    0    0    0  501 -0.00000000000E+00 -0.00000000000E+00 -0.66448720894E+02  0.66448720894E+02  0.00000000000E+00 0.  1.
         23    2    1    2    0    0 -0.23713335327E+03  0.66378749138E+02  0.47294661139E+03  0.54086868742E+03  0.90675654024E+02 0.  0.
         23    2    1    2    0    0  0.22833099200E+03 -0.13386324111E+03  0.73040193787E+03  0.78218128220E+03  0.90918414848E+02 0.  0.
        -13    1    4    4    0    0  0.12458590663E+02 -0.44309555127E+02  0.12886673484E+03  0.13684001061E+03  0.00000000000E+00 0.  1.
         13    1    4    4    0    0  0.21587240133E+03 -0.89553685982E+02  0.60153520303E+03  0.64534127159E+03  0.00000000000E+00 0. -1.
        -13    1    3    3    0    0 -0.47453869996E+02 -0.22636133921E+02  0.10570900428E+03  0.11806209350E+03  0.00000000000E+00 0. -1.
         13    1    3    3    0    0 -0.18967948327E+03  0.89014883059E+02  0.36723760711E+03  0.42280659391E+03  0.00000000000E+00 0.  1.
         21    1    1    2  502  501  0.88023612722E+01  0.67484491971E+02  0.16889572602E+03  0.18209174745E+03  0.00000000000E+00 0.  1.
<scales pt_clust_5="13000.00000" pt_clust_6="13000.00000" pt_clust_7="13000.00000" pt_clust_8="13000.00000" pt_clust_9="68.05614"></scales>
<clustering>
<clus scale="   68.056">  1  9  2 -1</clus>
<clus scale="   90.676">  7  8 -1 -1</clus>
<clus scale="   90.918">  5  6 -1 -1</clus>
<clus scale="  267.444">  2  7  1 -1</clus>
<clus scale="   68.056">  1  5  2 -1</clus>
</clustering>
</event>
<event>
 9    1  0.1266593E-005  0.9777830E+02  0.7546771E-02  0.1287114E+00
          1   -1    0    0  502    0  0.00000000000E+00  0.00000000000E+00  0.28318978096E+03  0.28318978096E+03  0.00000000000E+00 0. -1.
         -1   -1    0    0    0  501 -0.00000000000E+00 -0.00000000000E+00 -0.70819691291E+02  0.70819691291E+02  0.00000000000E+00 0.  1.
         23    2    1    2    0    0  0.36277520962E+02  0.15754878204E+02 -0.16492220355E+01  0.10084505242E+03  0.92750902695E+02 0.  0.
         23    2    1    2    0    0 -0.28288886522E+02  0.13941382926E+02  0.19612728622E+03  0.21758618517E+03  0.88787455867E+02 0.  0.
        -11    1    3    3    0    0  0.46813079267E+02  0.45064129707E+02  0.13255577658E+02  0.66317045439E+02  0.00000000000E+00 0.  1.
         11    1    3    3    0    0 -0.10535558305E+02 -0.29309251503E+02 -0.14904799693E+02  0.34528006985E+02  0.00000000000E+00 0. -1.
        -13    1    4    4    0    0 -0.37560978486E+02 -0.21398309273E+02  0.46196275357E+02  0.63267769057E+02  0.00000000000E+00 0.  1.
         13    1    4    4    0    0  0.92720919640E+01  0.35339692199E+02  0.14993101086E+03  0.15431841611E+03  0.00000000000E+00 0. -1.
         21    1    1    2  502  501 -0.79886344400E+01 -0.29696261129E+02  0.17892025488E+02  0.35578234658E+02  0.00000000000E+00 0.  1.
<scales pt_clust_5="13000.00000" pt_clust_6="13000.00000" pt_clust_7="13000.00000" pt_clust_8="13000.00000" pt_clust_9="30.75201"></scales>
<clustering>
<clus scale="   30.752">  2  9  1 -1</clus>
<clus scale="   88.787">  7  8 -1 -1</clus>
<clus scale="   92.751">  5  6 -1 -1</clus>
<clus scale="   94.027">  1  7  2 -1</clus>
<clus scale="   94.027">  1  5  2 -1</clus>
</clustering>
</event>
<event>
 9    1  0.1266593E-005  0.2088000E+03  0.7546771E-02  0.1143001E+00
         -2   -1    0    0    0  501 -0.00000000000E+00  0.00000000000E+00  0.62862939640E+02  0.62862939640E+02  0.00000000000E+00 0.  1.
          2   -1    0    0  502    0  0.00000000000E+00 -0.00000000000E+00 -0.85350831863E+03  0.85350831863E+03  0.00000000000E+00 0. -1.
         23    2    1    2    0    0  0.18084301366E+03 -0.96396964938E+01 -0.22994624399E+03  0.30811225709E+03  0.96232886807E+02 0.  0.
         23    2    1    2    0    0 -0.18540100182E+03  0.29366855863E+02 -0.54181361012E+03  0.58057147470E+03  0.90913725168E+02 0.  0.
        -11    1    3    3    0    0  0.90775830323E+02 -0.49255105238E+02 -0.14562531782E+03  0.17853024941E+03  0.00000000000E+00 0.  1.
         11    1    3    3    0    0  0.90067183339E+02  0.39615408744E+02 -0.84320926175E+02  0.12958200768E+03  0.00000000000E+00 0. -1.
        -11    1    4    4    0    0 -0.46283261174E+01  0.27284920649E+02 -0.65734053957E+02  0.71322185518E+02  0.00000000000E+00 0.  1.
         11    1    4    4    0    0 -0.18077267570E+03  0.20819352135E+01 -0.47607955617E+03  0.50924928918E+03  0.00000000000E+00 0. -1.
         21    1    1    2  502  501  0.45579881557E+01 -0.19727159369E+02 -0.18885524868E+02  0.27687526476E+02  0.00000000000E+00 0.  1.
<scales pt_clust_5="13000.00000" pt_clust_6="13000.00000" pt_clust_7="13000.00000" pt_clust_8="13000.00000" pt_clust_9="20.24688"></scales>
<clustering>
<clus scale="   20.247">  1  9  2 -1</clus>
<clus scale="   90.914">  7  8 -1 -1</clus>
<clus scale="   96.233">  5  6 -1 -1</clus>
<clus scale="  206.402">  2  7  1 -1</clus>
<clus scale="  206.402">  2  5  1 -1</clus>
</clustering>
</event>
<event>
 9    1  0.1266593E-005  0.9286426E+02  0.7546771E-02  0.1296911E+00
         -1   -1    0    0    0  501 -0.00000000000E+00  0.00000000000E+00  0.35966000473E+02  0.35966000473E+02  0.00000000000E+00 0.  1.
          1   -1    0    0  502    0  0.00000000000E+00 -0.00000000000E+00 -0.68397855427E+03  0.68397855427E+03  0.00000000000E+00 0. -1.
         23    2    1    2    0    0  0.47066920009E+02  0.54167840241E+01 -0.18134566993E+03  0.20848644744E+03  0.91300110927E+02 0.  0.
         23    2    1    2    0    0  0.25718908771E+02  0.40815100252E+00 -0.40377145804E+03  0.41508621654E+03  0.92755312415E+02 0.  0.
        -11    1    4    4    0    0 -0.28167258155E+02  0.23368632577E+02 -0.18653823957E+03  0.19009471914E+03  0.00000000000E+00 0.  1.
         11    1    4    4    0    0  0.53886166926E+02 -0.22960481574E+02 -0.21723321846E+03  0.22499149740E+03  0.00000000000E+00 0. -1.
        -13    1    3    3    0    0  0.53862479145E+02 -0.33379225210E+02 -0.10715745945E+03  0.12449120632E+03  0.00000000000E+00 0. -1.
         13    1    3    3    0    0 -0.67955591366E+01  0.38796009234E+02 -0.74188210477E+02  0.83995241117E+02  0.00000000000E+00 0.  1.
         21    1    1    2  502  501 -0.72785828780E+02 -0.58249350266E+01 -0.62895425839E+02  0.96371890771E+02  0.00000000000E+00 0.  1.
<scales pt_clust_5="13000.00000" pt_clust_6="13000.00000" pt_clust_7="13000.00000" pt_clust_8="13000.00000" pt_clust_9="73.01854"></scales>
<clustering>
<clus scale="   73.019">  1  9  2 -1</clus>
<clus scale="   91.300">  7  8 -1 -1</clus>
<clus scale="   91.411">  1  7  2 -1</clus>
<clus scale="   92.755">  5  6 -1 -1</clus>
<clus scale="   92.864">  2  5  1 -1</clus>
</clustering>
</event>
<event>
 9    1  0.1266593E-005  0.2038172E+03  0.7546771E-02  0.1146937E+00
         -1   -1    0    0    0  501 -0.00000000000E+00  0.00000000000E+00  0.33755199906E+03  0.33755199906E+03  0.00000000000E+00 0.  1.
          1   -1    0    0  502    0  0.00000000000E+00 -0.00000000000E+00 -0.23625239221E+03  0.23625239221E+03  0.00000000000E+00 0. -1.
         23    2    1    2    0    0 -0.35099323897E+02  0.17260617429E+03  0.20815841221E+03  0.28719960461E+03  0.90160048664E+02 0.  0.
         23    2    1    2    0    0  0.15237649430E+02 -0.18132952887E+03 -0.13916202692E+03  0.24769359096E+03  0.94199051301E+02 0.  0.
        -11    1    3    3    0    0 -0.17922269517E+02  0.28498074077E+02  0.27160196719E+00  0.33666329446E+02  0.00000000000E+00 0. -1.
         11    1    3    3    0    0 -0.17177054380E+02  0.14410810022E+03  0.20788681024E+03  0.25353327517E+03  0.00000000000E+00 0.  1.
        -11    1    4    4    0    0  0.35529720982E+02 -0.61881181417E+02 -0.94831053269E+02  0.11867843254E+03  0.00000000000E+00 0.  1.
         11    1    4    4    0    0 -0.20292071552E+02 -0.11944834745E+03 -0.44330973654E+02  0.12901515842E+03  0.00000000000E+00 0. -1.
         21    1    1    2  502  501  0.19861674467E+02  0.87233545749E+01  0.32303221562E+02  0.38911195702E+02  0.00000000000E+00 0.  1.
<scales pt_clust_5="13000.00000" pt_clust_6="13000.00000" pt_clust_7="13000.00000" pt_clust_8="13000.00000" pt_clust_9="21.69293"></scales>
<clustering>
<clus scale="   21.693">  1  9  2 -1</clus>
<clus scale="   90.160">  5  6 -1 -1</clus>
<clus scale="   94.199">  7  8 -1 -1</clus>
<clus scale="  201.982">  1  5  2 -1</clus>
<clus scale="  203.817">  2  5  1 -1</clus>
</clustering>
</event>
<event>
 9    1  0.1266593E-005  0.1319170E+03  0.7546771E-02  0.1225962E+00
         -1   -1    0    0    0  501 -0.00000000000E+00  0.00000000000E+00  0.95141244267E+02  0.95141244267E+02  0.00000000000E+00 0.  1.
          1   -1    0    0  502    0  0.00000000000E+00 -0.00000000000E+00 -0.54939081428E+03  0.54939081428E+03  0.00000000000E+00 0. -1.
         23    2    1    2    0    0  0.85679955585E+02  0.93932168740E+00 -0.40226016889E+02  0.13192167953E+03  0.91887213373E+02 0.  0.
         23    2    1    2    0    0 -0.77123862888E+02  0.64440657769E+02 -0.42547096868E+03  0.44568660328E+03  0.86662071004E+02 0.  0.
        -13    1    4    4    0    0 -0.45250499215E+02  0.88600058232E+01 -0.65765185092E+02  0.80319156822E+02  0.00000000000E+00 0.  1.
         13    1    4    4    0    0 -0.31873363673E+02  0.55580651946E+02 -0.35970578359E+03  0.36536744646E+03  0.00000000000E+00 0. -1.
        -13    1    3    3    0    0  0.48171196904E+01 -0.35802603616E+02 -0.18014705845E+02  0.40367817559E+02  0.00000000000E+00 0. -1.
         13    1    3    3    0    0  0.80862835894E+02  0.36741925303E+02 -0.22211311044E+02  0.91553861973E+02  0.00000000000E+00 0.  1.
         21    1    1    2  502  501 -0.85560926965E+01 -0.65379979457E+02  0.11447415556E+02  0.66923775737E+02  0.00000000000E+00 0.  1.
<scales pt_clust_5="13000.00000" pt_clust_6="13000.00000" pt_clust_7="13000.00000" pt_clust_8="13000.00000" pt_clust_9="65.93746"></scales>
<clustering>
<clus scale="   65.937">  1  9  2 -1</clus>
<clus scale="   86.662">  5  6 -1 -1</clus>
<clus scale="   91.887">  7  8 -1 -1</clus>
<clus scale="  128.332">  2  5  1 -1</clus>
<clus scale="  128.332">  2  5  1 -1</clus>
</clustering>
</event>
<event>
 9    1  0.1266593E-005  0.9483298E+02  0.7546771E-02  0.1293512E+00
         -2   -1    0    0    0  501 -0.00000000000E+00  0.00000000000E+00  0.41396407208E+02  0.41396407208E+02  0.00000000000E+00 0.  1.
          2   -1    0    0  502    0  0.00000000000E+00 -0.00000000000E+00 -0.34013796132E+03  0.34013796132E+03  0.00000000000E+00 0. -1.
         23    2    1    2    0    0  0.32801698315E+02 -0.17463526177E+02 -0.97631389920E+02  0.13793655676E+03  0.90075963683E+02 0.  0.
         23    2    1    2    0    0 -0.53863316747E+01 -0.63869979261E+01 -0.17582315929E+03  0.19932725220E+03  0.93529480986E+02 0.  0.
        -11    1    3    3    0    0 -0.24089967191E+01 -0.37094263724E+02 -0.57685098173E+01  0.37617328081E+02  0.00000000000E+00 0.  1.
         11    1    3    3    0    0  0.35210695034E+02  0.19630737548E+02 -0.91862880102E+02  0.10031922868E+03  0.00000000000E+00 0. -1.
        -13    1    4    4    0    0 -0.28938675023E+02  0.18740261885E+02 -0.20241817256E+02  0.39979688511E+02  0.00000000000E+00 0.  1.
         13    1    4    4    0    0  0.23552343349E+02 -0.25127259811E+02 -0.15558134204E+03  0.15934756369E+03  0.00000000000E+00 0. -1.
         21    1    1    2  502  501 -0.27415366641E+02  0.23850524103E+02 -0.25287004897E+02  0.44270559570E+02  0.00000000000E+00 0. -1.
<scales pt_clust_5="13000.00000" pt_clust_6="13000.00000" pt_clust_7="13000.00000" pt_clust_8="13000.00000" pt_clust_9="36.33799"></scales>
<clustering>
<clus scale="   36.338">  1  9  2 -1</clus>
<clus scale="   90.076">  5  6 -1 -1</clus>
<clus scale="   91.429">  1  5  2 -1</clus>
<clus scale="   93.529">  7  8 -1 -1</clus>
<clus scale="   94.833">  2  5  1 -1</clus>
</clustering>
</event>
<event>
 9    1  0.1266593E-005  0.1381745E+03  0.7546771E-02  0.1224167E+00
         -1   -1    0    0    0  501 -0.00000000000E+00  0.00000000000E+00  0.25368678441E+03  0.25368678441E+03  0.00000000000E+00 0.  1.
          1   -1    0    0  502    0  0.00000000000E+00 -0.00000000000E+00 -0.18206000189E+03  0.18206000189E+03  0.00000000000E+00 0. -1.
         23    2    1    2    0    0 -0.18323264149E+02 -0.72014729986E+02  0.11604144794E+03  0.18101930542E+03  0.11739040827E+03 0.  0.
         23    2    1    2    0    0 -0.18786298001E+02  0.71505222723E+02 -0.12198105091E+03  0.16873955522E+03  0.90153972979E+02 0.  0.
        -11    1    4    4    0    0 -0.38323971022E+02  0.28498738019E+02 -0.11012928846E+03  0.12003901449E+03  0.00000000000E+00 0.  1.
         11    1    4    4    0    0  0.19537673021E+02  0.43006484704E+02 -0.11851762451E+02  0.48700540724E+02  0.00000000000E+00 0. -1.
        -13    1    3    3    0    0 -0.30974656030E+02 -0.23991886098E+02 -0.14166705211E+02  0.41662158504E+02  0.00000000000E+00 0. -1.
         13    1    3    3    0    0  0.12651391880E+02 -0.48022843888E+02  0.13020815315E+03  0.13935714692E+03  0.00000000000E+00 0.  1.
         21    1    1    2  502  501  0.37109562150E+02  0.50950726346E+00  0.77566385495E+02  0.85987925661E+02  0.00000000000E+00 0.  1.
<scales pt_clust_5="13000.00000" pt_clust_6="13000.00000" pt_clust_7="13000.00000" pt_clust_8="13000.00000" pt_clust_9="37.11306"></scales>
<clustering>
<clus scale="   37.113">  1  9  2 -1</clus>
<clus scale="   90.154">  5  6 -1 -1</clus>
<clus scale="  115.929">  2  5  1 -1</clus>
<clus scale="  117.390">  7  8 -1 -1</clus>
<clus scale="  115.929">  2  5  1 -1</clus>
</clustering>
</event>
<event>
 9    1  0.1266593E-005  0.2179951E+03  0.7546771E-02  0.1157349E+00
          1   -1    0    0  502    0  0.00000000000E+00  0.00000000000E+00  0.11375011496E+04  0.11375011496E+04  0.00000000000E+00 0. -1.
         -1   -1    0    0    0  501 -0.00000000000E+00 -0.00000000000E+00 -0.61463282219E+03  0.61463282219E+03  0.00000000000E+00 0.  1.
         23    2    1    2    0    0 -0.22157920242E+03 -0.67608169176E+02  0.98530488995E+03  0.10161482034E+04  0.89795532300E+02 0.  0.
         23    2    1    2    0    0  0.67643865952E+02 -0.57491602140E+02  0.84423924419E+02  0.15426209455E+03  0.93746561977E+02 0.  0.
        -13    1    3    3    0    0 -0.10748044895E+03 -0.45576777714E+02  0.31696890353E+03  0.33778480632E+03  0.00000000000E+00 0.  1.
         13    1    3    3    0    0 -0.11409875347E+03 -0.22031391461E+02  0.66833598642E+03  0.67836339707E+03  0.00000000000E+00 0. -1.
        -13    1    4    4    0    0  0.46274393460E+02 -0.71056116177E+02  0.94547053054E+02  0.12700171801E+03  0.00000000000E+00 0.  1.
         13    1    4    4    0    0  0.21369472492E+02  0.13564514037E+02 -0.10123128635E+02  0.27260376538E+02  0.00000000000E+00 0. -1.
         21    1    1    2  502  501  0.15393533646E+03  0.12509977132E+03 -0.54686048693E+03  0.58172367389E+03  0.00000000000E+00 0.  1.
<scales pt_clust_5="13000.00000" pt_clust_6="13000.00000" pt_clust_7="13000.00000" pt_clust_8="13000.00000" pt_clust_9="198.64196"></scales>
<clustering>
<clus scale="   89.796">  5  6 -1 -1</clus>
<clus scale="   93.747">  7  8 -1 -1</clus>
<clus scale="  129.110">  1  7  2 -1</clus>
<clus scale="  198.642">  2  9  1 -1</clus>
<clus scale="  129.110">  1  5  2 -1</clus>
</clustering>
</event>
<event>
 9    1  0.1266593E-005  0.1464719E+03  0.7546771E-02  0.1205164E+00
          1   -1    0    0  502    0  0.00000000000E+00  0.00000000000E+00  0.25041562207E+03  0.25041562207E+03  0.00000000000E+00 0. -1.
         -1   -1    0    0    0  501 -0.00000000000E+00 -0.00000000000E+00 -0.13808882682E+03  0.13808882682E+03  0.00000000000E+00 0.  1.
         23    2    1    2    0    0 -0.33741081589E+02  0.79214690130E+02 -0.19106480890E+02  0.12578184100E+03  0.89680467187E+02 0.  0.
         23    2    1    2    0    0  0.64975007702E+02 -0.11072071431E+03  0.14730274265E+03  0.21560543833E+03  0.91141531917E+02 0.  0.
        -11    1    3    3    0    0 -0.55098188909E+02  0.38723257046E+02  0.14629510591E+02  0.68915336736E+02  0.00000000000E+00 0.  1.
         11    1    3    3    0    0  0.21357107321E+02  0.40491433084E+02 -0.33735991481E+02  0.56866504267E+02  0.00000000000E+00 0. -1.
        -13    1    4    4    0    0 -0.19953312967E+02 -0.55133959445E+01  0.10312089119E+02  0.23127287243E+02  0.00000000000E+00 0.  1.
         13    1    4    4    0    0  0.84928320669E+02 -0.10520731837E+03  0.13699065354E+03  0.19247815109E+03  0.00000000000E+00 0. -1.
         21    1    1    2  502  501 -0.31233926114E+02  0.31506024182E+02 -0.15869466509E+02  0.47117169562E+02  0.00000000000E+00 0.  1.
<scales pt_clust_5="13000.00000" pt_clust_6="13000.00000" pt_clust_7="13000.00000" pt_clust_8="13000.00000" pt_clust_9="44.36426"></scales>
<clustering>
<clus scale="   44.364">  2  9  1 -1</clus>
<clus scale="   89.680">  5  6 -1 -1</clus>
<clus scale="   91.142">  7  8 -1 -1</clus>
<clus scale="  145.567">  2  5  1 -1</clus>
<clus scale="  146.472">  1  5  2 -1</clus>
</clustering>
</event>
<event>
 9    1  0.1266593E-005  0.9652674E+02  0.7546771E-02  0.1290789E+00
         -2   -1    0    0    0  501 -0.00000000000E+00  0.00000000000E+00  0.41156074337E+02  0.41156074337E+02  0.00000000000E+00 0.  1.
          2   -1    0    0  502    0  0.00000000000E+00 -0.00000000000E+00 -0.56261304981E+03  0.56261304981E+03  0.00000000000E+00 0. -1.
         23    2    1    2    0    0 -0.28750237406E+02 -0.18088024373E+02 -0.13324378194E+03  0.16683117514E+03  0.94472127091E+02 0.  0.
         23    2    1    2    0    0 -0.11832766339E+02 -0.63609307391E+02 -0.19722056556E+03  0.22527874616E+03  0.87569421853E+02 0.  0.
        -11    1    3    3    0    0 -0.13658723925E+02 -0.56637231326E+02 -0.87655666926E+02  0.10525137840E+03  0.00000000000E+00 0. -1.
         11    1    3    3    0    0 -0.15091513482E+02  0.38549206953E+02 -0.45588115014E+02  0.61579796739E+02  0.00000000000E+00 0.  1.
        -13    1    4    4    0    0  0.12172637050E+02 -0.67646349274E+02 -0.18634573072E+03  0.19861755467E+03  0.00000000000E+00 0. -1.
         13    1    4    4    0    0 -0.24005403389E+02  0.40370418827E+01 -0.10874834842E+02  0.26661191494E+02  0.00000000000E+00 0.  1.
         21    1    1    2  502  501  0.40583003746E+02  0.81697331765E+02 -0.19099262797E+03  0.21165920285E+03  0.00000000000E+00 0.  1.
<scales pt_clust_5="13000.00000" pt_clust_6="13000.00000" pt_clust_7="13000.00000" pt_clust_8="13000.00000" pt_clust_9="91.22190"></scales>
<clustering>
<clus scale="   87.569">  7  8 -1 -1</clus>
<clus scale="   91.222">  2  9  1 -1</clus>
<clus scale="   91.222">  2  7  1 -1</clus>
<clus scale="   94.472">  5  6 -1 -1</clus>
<clus scale="   91.222">  2  5  1 -1</clus>
</clustering>
</event>
<event>
 9    1  0.1266593E-005  0.1012103E+03  0.7546771E-02  0.1278912E+00
         -1   -1    0    0    0  501 -0.00000000000E+00  0.00000000000E+00  0.92001065516E+02  0.92001065516E+02  0.00000000000E+00 0.  1.
          1   -1    0    0  502    0  0.00000000000E+00 -0.00000000000E+00 -0.14861265541E+03  0.14861265541E+03  0.00000000000E+00 0. -1.
         23    2    1    2    0    0 -0.74467616949E+01 -0.59569586586E+02 -0.25226935975E+02  0.11204199142E+03  0.91175762328E+02 0.  0.
         23    2    1    2    0    0 -0.15779968530E+01  0.31521550283E+02 -0.30795805548E+02  0.99101654013E+02  0.88750537928E+02 0.  0.
        -11    1    4    4    0    0  0.20919861574E+02  0.46770488376E+02  0.78725750493E+01  0.51837212783E+02  0.00000000000E+00 0.  1.
         11    1    4    4    0    0 -0.22497858427E+02 -0.15248938093E+02 -0.38668380597E+02  0.47264441230E+02  0.00000000000E+00 0. -1.
        -11    1    3    3    0    0  0.33811319349E+02  0.31581479604E+01 -0.10366336160E+02  0.35505494505E+02  0.00000000000E+00 0.  1.
         11    1    3    3    0    0 -0.41258081044E+02 -0.62727734546E+02 -0.14860599815E+02  0.76536496912E+02  0.00000000000E+00 0. -1.
         21    1    1    2  502  501  0.90247585479E+01  0.28048036303E+02 -0.58884837172E+00  0.29470075496E+02  0.00000000000E+00 0.  1.
<scales pt_clust_5="13000.00000" pt_clust_6="13000.00000" pt_clust_7="13000.00000" pt_clust_8="13000.00000" pt_clust_9="29.46419"></scales>
<clustering>
<clus scale="   29.464">  1  9  2 -1</clus>
<clus scale="   88.751">  5  6 -1 -1</clus>
<clus scale="   91.176">  7  8 -1 -1</clus>
<clus scale="   99.031">  2  5  1 -1</clus>
<clus scale="   99.031">  2  5  1 -1</clus>
</clustering>
</event>
<event>
 9    1  0.1266593E-005  0.1021177E+03  0.7546771E-02  0.1280954E+00
          1   -1    0    0  502    0  0.00000000000E+00  0.00000000000E+00  0.40292614672E+03  0.40292614672E+03  0.00000000000E+00 0. -1.
         -1   -1    0    0    0  501 -0.00000000000E+00 -0.00000000000E+00 -0.40633048805E+02  0.40633048805E+02  0.00000000000E+00 0.  1.
         23    2    1    2    0    0 -0.66389630086E+02 -0.10608851841E+02  0.15680140676E+03  0.19428677975E+03  0.92954509861E+02 0.  0.
         23    2    1    2    0    0  0.24493540252E+02  0.18193933903E+02  0.17807449798E+03  0.19863134257E+03  0.82540479018E+02 0.  0.
        -13    1    4    4    0    0  0.23634004710E+02 -0.30052895640E+02  0.97284315022E+02  0.10452741585E+03  0.00000000000E+00 0.  1.
         13    1    4    4    0    0  0.85953554198E+00  0.48246829543E+02  0.80790182960E+02  0.94103926725E+02  0.00000000000E+00 0. -1.
        -13    1    3    3    0    0  0.20982208314E+02  0.91458198578E+01  0.18129316587E+02  0.29198822005E+02  0.00000000000E+00 0.  1.
         13    1    3    3    0    0 -0.87371838401E+02 -0.19754671698E+02  0.13867209018E+03  0.16508795775E+03  0.00000000000E+00 0. -1.
         21    1    1    2  502  501  0.41896089834E+02 -0.75850820625E+01  0.27417193172E+02  0.50641073199E+02  0.00000000000E+00 0.  1.
<scales pt_clust_5="13000.00000" pt_clust_6="13000.00000" pt_clust_7="13000.00000" pt_clust_8="13000.00000" pt_clust_9="42.57717"></scales>
<clustering>
<clus scale="   42.577">  2  9  1 -1</clus>
<clus scale="   82.540">  5  6 -1 -1</clus>
<clus scale="   92.738">  1  5  2 -1</clus>
<clus scale="   92.955">  7  8 -1 -1</clus>
<clus scale="   92.738">  1  5  2 -1</clus>
</clustering>
</event>
<event>
 9    1  0.1266593E-005  0.9151949E+02  0.7546771E-02  0.1300158E+00
         -1   -1    0    0    0  501 -0.00000000000E+00  0.00000000000E+00  0.40546711655E+03  0.40546711655E+03  0.00000000000E+00 0.  1.
          1   -1    0    0  502    0  0.00000000000E+00 -0.00000000000E+00 -0.47806287938E+02  0.47806287938E+02  0.00000000000E+00 0. -1.
         23    2    1    2    0    0 -0.25490746166E+02 -0.60707998966E+01  0.18628333624E+03  0.20857189860E+03  0.90078425675E+02 0.  0.
         23    2    1    2    0    0 -0.75442830361E+01  0.19235425538E+02  0.25231369661E+02  0.94291035157E+02  0.88471800558E+02 0.  0.
        -13    1    4    4    0    0  0.35650980647E+02 -0.25075608566E+01 -0.66719514803E+01  0.36356501744E+02  0.00000000000E+00 0. -1.
         13    1    4    4    0    0 -0.43195263683E+02  0.21742986395E+02  0.31903321141E+02  0.57934533413E+02  0.00000000000E+00 0.  1.
        -13    1    3    3    0    0 -0.56149032993E+02 -0.18668527402E+02  0.13638809661E+03  0.14867057785E+03  0.00000000000E+00 0.  1.
         13    1    3    3    0    0  0.30658286827E+02  0.12597727505E+02  0.49895239629E+02  0.59901320746E+02  0.00000000000E+00 0. -1.
         21    1    1    2  502  501  0.33035029202E+02 -0.13164625642E+02  0.14614612271E+03  0.15041047074E+03  0.00000000000E+00 0.  1.
<scales pt_clust_5="13000.00000" pt_clust_6="13000.00000" pt_clust_7="13000.00000" pt_clust_8="13000.00000" pt_clust_9="35.56150"></scales>
<clustering>
<clus scale="   35.562">  1  9  2 -1</clus>
<clus scale="   88.472">  5  6 -1 -1</clus>
<clus scale="   89.939">  2  5  1 -1</clus>
<clus scale="   90.078">  7  8 -1 -1</clus>
<clus scale="   89.939">  2  5  1 -1</clus>
</clustering>
</event>
<event>
 9    1  0.1266593E-005  0.9437320E+02  0.7546771E-02  0.1293524E+00
          3   -1    0    0  502    0  0.00000000000E+00  0.00000000000E+00  0.41281759095E+02  0.41281759095E+02  0.00000000000E+00 0. -1.
         -3   -1    0    0    0  501 -0.00000000000E+00 -0.00000000000E+00 -0.30457907803E+03  0.30457907803E+03  0.00000000000E+00 0.  1.
         23    2    1    2    0    0  0.41204011476E+02 -0.27058663050E+01 -0.12948635872E+03  0.16290718165E+03  0.89816148135E+02 0.  0.
         23    2    1    2    0    0 -0.87190313553E+01  0.43876289722E+01 -0.93879149977E+02  0.13144975535E+03  0.91490275900E+02 0.  0.
        -11    1    4    4    0    0 -0.45654430351E+02  0.21141803747E+02 -0.62109001416E+02  0.79930162850E+02  0.00000000000E+00 0.  1.
         11    1    4    4    0    0  0.36935398995E+02 -0.16754174775E+02 -0.31770148561E+02  0.51519592496E+02  0.00000000000E+00 0. -1.
        -13    1    3    3    0    0  0.39197538351E+02  0.39132580328E+02 -0.59078655867E+02  0.80982056253E+02  0.00000000000E+00 0. -1.
         13    1    3    3    0    0  0.20064731248E+01 -0.41838446633E+02 -0.70407702848E+02  0.81925125397E+02  0.00000000000E+00 0.  1.
         21    1    1    2  502  501 -0.32484980121E+02 -0.16817626672E+01 -0.39931810238E+02  0.51503900124E+02  0.00000000000E+00 0.  1.
<scales pt_clust_5="13000.00000" pt_clust_6="13000.00000" pt_clust_7="13000.00000" pt_clust_8="13000.00000" pt_clust_9="32.52848"></scales>
<clustering>
<clus scale="   32.528">  2  9  1 -1</clus>
<clus scale="   89.816">  7  8 -1 -1</clus>
<clus scale="   91.490">  5  6 -1 -1</clus>
<clus scale="   92.751">  2  7  1 -1</clus>
<clus scale="   94.373">  1  5  2 -1</clus>
</clustering>
</event>
<event>
 9    1  0.1266593E-005  0.2067727E+03  0.7546771E-02  0.1144376E+00
         -2   -1    0    0    0  501 -0.00000000000E+00  0.00000000000E+00  0.10691748834E+03  0.10691748834E+03  0.00000000000E+00 0.  1.
          2   -1    0    0  502    0  0.00000000000E+00 -0.00000000000E+00 -0.53431268217E+03  0.53431268217E+03  0.00000000000E+00 0. -1.
         23    2    1    2    0    0 -0.74729189323E+02  0.16037660531E+03 -0.88275071112E+02  0.21785319875E+03  0.91446272517E+02 0.  0.
         23    2    1    2    0    0  0.97890626949E+02 -0.17972228997E+03 -0.30361596761E+03  0.37678026868E+03  0.88870910466E+02 0.  0.
        -11    1    4    4    0    0  0.39073298124E+02 -0.14513394674E+03 -0.17118530792E+03  0.22780472947E+03  0.00000000000E+00 0.  1.
         11    1    4    4    0    0  0.58817328826E+02 -0.34588343228E+02 -0.13243065969E+03  0.14897553921E+03  0.00000000000E+00 0. -1.
        -13    1    3    3    0    0  0.68835960911E+01  0.35368138488E+02  0.12039500987E+02  0.37989981565E+02  0.00000000000E+00 0.  1.
         13    1    3    3    0    0 -0.81612785414E+02  0.12500846683E+03 -0.10031457210E+03  0.17986321719E+03  0.00000000000E+00 0. -1.
         21    1    1    2  502  501 -0.23161437627E+02  0.19345684658E+02 -0.35504155111E+02  0.46596703080E+02  0.00000000000E+00 0. -1.
<scales pt_clust_5="13000.00000" pt_clust_6="13000.00000" pt_clust_7="13000.00000" pt_clust_8="13000.00000" pt_clust_9="30.17793"></scales>
<clustering>
<clus scale="   30.178">  2  9  1 -1</clus>
<clus scale="   88.871">  5  6 -1 -1</clus>
<clus scale="   91.446">  7  8 -1 -1</clus>
<clus scale="  205.647">  2  5  1 -1</clus>
<clus scale="   30.178">  2  5  1 -1</clus>
</clustering>
</event>
<event>
 9    1  0.1266593E-005  0.1304542E+03  0.7546771E-02  0.1227112E+00
         -2   -1    0    0    0  501 -0.00000000000E+00  0.00000000000E+00  0.17430273807E+03  0.17430273807E+03  0.00000000000E+00 0.  1.
          2   -1    0    0  502    0  0.00000000000E+00 -0.00000000000E+00 -0.15421450961E+03  0.15421450961E+03  0.00000000000E+00 0. -1.
         23    2    1    2    0    0 -0.79898222901E+02 -0.41758327485E+01  0.50549403670E+02  0.13013601515E+03  0.89325117560E+02 0.  0.
         23    2    1    2    0    0  0.98357885479E+02  0.20667060773E+02 -0.69525469408E+02  0.15213473184E+03  0.90607862238E+02 0.  0.
        -13    1    3    3    0    0 -0.78860381966E+02  0.20155309743E+02  0.62865252610E+02  0.10284569189E+03  0.00000000000E+00 0.  1.
         13    1    3    3    0    0 -0.10378409355E+01 -0.24331142492E+02 -0.12315848940E+02  0.27290323264E+02  0.00000000000E+00 0. -1.
        -13    1    4    4    0    0  0.61046367055E+02  0.51906774897E+02 -0.19760686598E+02  0.82531551213E+02  0.00000000000E+00 0.  1.
         13    1    4    4    0    0  0.37311518425E+02 -0.31239714123E+02 -0.49764782810E+02  0.69603180630E+02  0.00000000000E+00 0. -1.
         21    1    1    2  502  501 -0.18459662578E+02 -0.16491228025E+02  0.39064294194E+02  0.46246500680E+02  0.00000000000E+00 0.  1.
<scales pt_clust_5="13000.00000" pt_clust_6="13000.00000" pt_clust_7="13000.00000" pt_clust_8="13000.00000" pt_clust_9="24.75318"></scales>
<clustering>
<clus scale="   24.753">  1  9  2 -1</clus>
<clus scale="   89.325">  5  6 -1 -1</clus>
<clus scale="   90.608">  7  8 -1 -1</clus>
<clus scale="  129.567">  1  5  2 -1</clus>
<clus scale="  130.454">  2  5  1 -1</clus>
</clustering>
</event>
<event>
 9    1  0.1773385E-005  0.1372616E+03  0.7546771E-02  0.1221255E+00
          1   -1    0    0  502    0  0.00000000000E+00  0.00000000000E+00  0.24604815946E+03  0.24604815946E+03  0.00000000000E+00 0. -1.
         -1   -1    0    0    0  501 -0.00000000000E+00 -0.00000000000E+00 -0.35644273951E+03  0.35644273951E+03  0.00000000000E+00 0.  1.
         23    2    1    2    0    0  0.16205322434E+02  0.85657274103E+02 -0.23619130419E+03  0.26706051019E+03  0.89079755523E+02 0.  0.
         23    2    1    2    0    0  0.89560726201E+01 -0.88597400692E+02  0.20803546208E+03  0.24937836869E+03  0.10479077556E+03 0.  0.
        -11    1    4    4    0    0 -0.25874270317E+02 -0.59337416261E+02  0.18951051655E+03  0.20026143592E+03  0.00000000000E+00 0. -1.
         11    1    4    4    0    0  0.34830342938E+02 -0.29259984430E+02  0.18524945525E+02  0.49116932770E+02  0.00000000000E+00 0.  1.
        -11    1    3    3    0    0 -0.92830548224E+01  0.73554863062E+02 -0.82990411347E+02  0.11128297876E+03  0.00000000000E+00 0.  1.
         11    1    3    3    0    0  0.25488377256E+02  0.12102411041E+02 -0.15320089285E+03  0.15577753143E+03  0.00000000000E+00 0. -1.
         21    1    1    2  502  501 -0.25161395054E+02  0.29401265883E+01 -0.82238737926E+02  0.86052020087E+02  0.00000000000E+00 0.  1.
<scales pt_clust_5="13000.00000" pt_clust_6="13000.00000" pt_clust_7="13000.00000" pt_clust_8="13000.00000" pt_clust_9="25.33259"></scales>
<clustering>
<clus scale="   25.333">  2  9  1 -1</clus>
<clus scale="   89.080">  7  8 -1 -1</clus>
<clus scale="  104.791">  5  6 -1 -1</clus>
<clus scale="  125.678">  2  7  1 -1</clus>
<clus scale="  137.262">  1  5  2 -1</clus>
</clustering>
</event>
<event>
 9    1  0.1266593E-005  0.1637204E+03  0.7546771E-02  0.1185009E+00
          1   -1    0    0  502    0  0.00000000000E+00  0.00000000000E+00  0.17257307574E+03  0.17257307574E+03  0.00000000000E+00 0. -1.
         -1   -1    0    0    0  501 -0.00000000000E+00 -0.00000000000E+00 -0.37835870450E+03  0.37835870450E+03  0.00000000000E+00 0.  1.
         23    2    1    2    0    0 -0.51397160639E+02  0.13140216693E+03 -0.81998230471E+02  0.18561670121E+03  0.88440106115E+02 0.  0.
         23    2    1    2    0    0  0.13255692117E+02 -0.13452670783E+03  0.62799861939E+02  0.17484371621E+03  0.91396684544E+02 0.  0.
        -11    1    4    4    0    0  0.36804856830E+02 -0.28028536942E+02 -0.48199215698E+01  0.46512665085E+02  0.00000000000E+00 0.  1.
         11    1    4    4    0    0 -0.23549164713E+02 -0.10649817089E+03  0.67619783509E+02  0.12833105112E+03  0.00000000000E+00 0. -1.
        -13    1    3    3    0    0  0.17598155881E+02  0.75932875973E+02 -0.36138303295E+02  0.85915503310E+02  0.00000000000E+00 0. -1.
         13    1    3    3    0    0 -0.68995316520E+02  0.55469290960E+02 -0.45859927176E+02  0.99701197896E+02  0.00000000000E+00 0.  1.
         21    1    1    2  502  501  0.38141468522E+02  0.31245408938E+01 -0.18658726023E+03  0.19047136282E+03  0.00000000000E+00 0.  1.
<scales pt_clust_5="13000.00000" pt_clust_6="13000.00000" pt_clust_7="13000.00000" pt_clust_8="13000.00000" pt_clust_9="38.26924"></scales>
<clustering>
<clus scale="   38.269">  2  9  1 -1</clus>
<clus scale="   88.440">  7  8 -1 -1</clus>
<clus scale="   91.397">  5  6 -1 -1</clus>
<clus scale="  162.088">  2  7  1 -1</clus>
<clus scale="  163.720">  1  5  2 -1</clus>
</clustering>
</event>
<event>
 9    1  0.1266593E-005  0.1409852E+03  0.7546771E-02  0.1212296E+00
          2   -1    0    0  502    0  0.00000000000E+00  0.00000000000E+00  0.16947654787E+03  0.16947654787E+03  0.00000000000E+00 0. -1.
         -2   -1    0    0    0  501 -0.00000000000E+00 -0.00000000000E+00 -0.38213346645E+03  0.38213346645E+03  0.00000000000E+00 0.  1.
         23    2    1    2    0    0 -0.45427973697E+02 -0.72358902091E+02 -0.31214246128E+03  0.33570977990E+03  0.89267175843E+02 0.  0.
         23    2    1    2    0    0  0.44306312211E+02  0.10122307718E+03  0.11471677361E+03  0.18324462046E+03  0.90606247717E+02 0.  0.
        -11    1    3    3    0    0 -0.83525576467E+01 -0.20706700051E+02 -0.61189675472E+01  0.23151121141E+02  0.00000000000E+00 0. -1.
         11    1    3    3    0    0 -0.37075416051E+02 -0.51652202039E+02 -0.30602349373E+03  0.31255865876E+03  0.00000000000E+00 0.  1.
        -13    1    4    4    0    0  0.38918130580E+02 -0.16945688531E+01  0.40860380150E+02  0.56454079723E+02  0.00000000000E+00 0.  1.
         13    1    4    4    0    0  0.53881816319E+01  0.10291764603E+03  0.73856393462E+02  0.12679054074E+03  0.00000000000E+00 0. -1.
         21    1    1    2  502  501  0.11216614860E+01 -0.28864175085E+02 -0.15231230906E+02  0.32655613955E+02  0.00000000000E+00 0. -1.
<scales pt_clust_5="13000.00000" pt_clust_6="13000.00000" pt_clust_7="13000.00000" pt_clust_8="13000.00000" pt_clust_9="28.88596"></scales>
<clustering>
<clus scale="   28.886">  2  9  1 -1</clus>
<clus scale="   89.267">  5  6 -1 -1</clus>
<clus scale="   90.606">  7  8 -1 -1</clus>
<clus scale="  140.128">  2  5  1 -1</clus>
<clus scale="  140.985">  1  5  2 -1</clus>
</clustering>
</event>
<event>
 9    1  0.1266593E-005  0.1546097E+03  0.7546771E-02  0.1195246E+00
          1   -1    0    0  502    0  0.00000000000E+00  0.00000000000E+00  0.35704720950E+03  0.35704720950E+03  0.00000000000E+00 0. -1.
         -1   -1    0    0    0  501 -0.00000000000E+00 -0.00000000000E+00 -0.84748923470E+02  0.84748923470E+02  0.00000000000E+00 0.  1.
         23    2    1    2    0    0  0.95297219589E+02 -0.80977459489E+02  0.93530669381E+02  0.18143622268E+03  0.92369950628E+02 0.  0.
         23    2    1    2    0    0 -0.80284785128E+02  0.94417996857E+02  0.18393887914E+03  0.23955694922E+03  0.90518593722E+02 0.  0.
        -11    1    3    3    0    0  0.77280795521E+02 -0.68833101627E+02  0.11230743932E+03  0.15271960635E+03  0.00000000000E+00 0.  1.
         11    1    3    3    0    0  0.18016424068E+02 -0.12144357862E+02 -0.18776769942E+02  0.28716616332E+02  0.00000000000E+00 0. -1.
        -11    1    4    4    0    0 -0.24183133543E+02  0.93945884175E+02  0.10851021923E+03  0.14555109336E+03  0.00000000000E+00 0. -1.
         11    1    4    4    0    0 -0.56101651586E+02  0.47211268264E+00  0.75428659904E+02  0.94005855860E+02  0.00000000000E+00 0.  1.
         21    1    1    2  502  501 -0.15012434460E+02 -0.13440537369E+02 -0.51712624921E+01  0.20802961062E+02  0.00000000000E+00 0. -1.
<scales pt_clust_5="13000.00000" pt_clust_6="13000.00000" pt_clust_7="13000.00000" pt_clust_8="13000.00000" pt_clust_9="20.14997"></scales>
<clustering>
<clus scale="   20.150">  2  9  1 -1</clus>
<clus scale="   90.519">  7  8 -1 -1</clus>
<clus scale="   92.370">  5  6 -1 -1</clus>
<clus scale="  153.511">  1  7  2 -1</clus>
<clus scale="  153.511">  1  5  2 -1</clus>
</clustering>
</event>
<event>
 9    1  0.1266593E-005  0.1017008E+03  0.7546771E-02  0.1278005E+00
          3   -1    0    0  502    0  0.00000000000E+00  0.00000000000E+00  0.52938053672E+03  0.52938053672E+03  0.00000000000E+00 0. -1.
         -3   -1    0    0    0  501 -0.00000000000E+00 -0.00000000000E+00 -0.19740044694E+03  0.19740044694E+03  0.00000000000E+00 0.  1.
         23    2    1    2    0    0  0.52858513602E+02  0.28948022718E+02 -0.14321167765E+03  0.17949737513E+03  0.89876095730E+02 0.  0.
         23    2    1    2    0    0 -0.20401302322E+02  0.38643022576E+02  0.45940417837E+03  0.47065940910E+03  0.92512615054E+02 0.  0.
        -11    1    3    3    0    0 -0.26306204448E+01 -0.26185185667E+02 -0.58766037136E+02  0.64389682659E+02  0.00000000000E+00 0. -1.
         11    1    3    3    0    0  0.55489134047E+02  0.55133208385E+02 -0.84445640517E+02  0.11510769247E+03  0.00000000000E+00 0.  1.
        -13    1    4    4    0    0 -0.52640102901E+02  0.63811142808E+01  0.30813085994E+03  0.31266008044E+03  0.00000000000E+00 0. -1.
         13    1    4    4    0    0  0.32238800579E+02  0.32261908295E+02  0.15127331842E+03  0.15799932866E+03  0.00000000000E+00 0.  1.
         21    1    1    2  502  501 -0.32457211280E+02 -0.67591045294E+02  0.15787589065E+02  0.76624199419E+02  0.00000000000E+00 0. -1.
<scales pt_clust_5="13000.00000" pt_clust_6="13000.00000" pt_clust_7="13000.00000" pt_clust_8="13000.00000" pt_clust_9="74.98013"></scales>
<clustering>
<clus scale="   74.980">  2  9  1 -1</clus>
<clus scale="   89.876">  5  6 -1 -1</clus>
<clus scale="   92.513">  7  8 -1 -1</clus>
<clus scale="   99.308">  2  5  1 -1</clus>
<clus scale="  101.701">  1  5  2 -1</clus>
</clustering>
</event>
<event>
 9    1  0.1266593E-005  0.1008577E+03  0.7546771E-02  0.1279233E+00
          1   -1    0    0  502    0  0.00000000000E+00  0.00000000000E+00  0.21723421395E+03  0.21723421395E+03  0.00000000000E+00 0. -1.
         -1   -1    0    0    0  501 -0.00000000000E+00 -0.00000000000E+00 -0.62862970973E+02  0.62862970973E+02  0.00000000000E+00 0.  1.
         23    2    1    2    0    0  0.11475612422E+02 -0.49458043728E+02  0.34753369086E+02  0.11044972902E+03  0.91725450166E+02 0.  0.
         23    2    1    2    0    0 -0.22538858065E+00  0.32561682932E+02  0.10762745964E+03  0.14607152371E+03  0.93235754817E+02 0.  0.
        -13    1    4    4    0    0  0.15699153956E+02 -0.13821568950E+02  0.92375228171E+02  0.94713684243E+02  0.00000000000E+00 0. -1.
         13    1    4    4    0    0 -0.15924542537E+02  0.46383251883E+02  0.15252231464E+02  0.51357839468E+02  0.00000000000E+00 0.  1.
        -13    1    3    3    0    0 -0.29673437553E+02 -0.51408811491E+02  0.35657107159E+02  0.69244552754E+02  0.00000000000E+00 0. -1.
         13    1    3    3    0    0  0.41149049975E+02  0.19507677636E+01 -0.90373807381E+00  0.41205176267E+02  0.00000000000E+00 0.  1.
         21    1    1    2  502  501 -0.11250223841E+02  0.16896360795E+02  0.11990414256E+02  0.23575932190E+02  0.00000000000E+00 0.  1.
<scales pt_clust_5="13000.00000" pt_clust_6="13000.00000" pt_clust_7="13000.00000" pt_clust_8="13000.00000" pt_clust_9="20.29913"></scales>
<clustering>
<clus scale="   20.299">  2  9  1 -1</clus>
<clus scale="   91.725">  7  8 -1 -1</clus>
<clus scale="   93.236">  5  6 -1 -1</clus>
<clus scale="   99.463">  2  7  1 -1</clus>
<clus scale="  100.858">  1  5  2 -1</clus>
</clustering>
</event>
<event>
 9    1  0.1266593E-005  0.1027808E+03  0.7546771E-02  0.1276747E+00
          2   -1    0    0  502    0  0.00000000000E+00  0.00000000000E+00  0.39826507591E+03  0.39826507591E+03  0.00000000000E+00 0. -1.
         -2   -1    0    0    0  501 -0.00000000000E+00 -0.00000000000E+00 -0.75512323297E+02  0.75512323297E+02  0.00000000000E+00 0.  1.
         23    2    1    2    0    0 -0.27743453318E+02  0.82654455283E+01  0.24955210167E+01  0.99593722365E+02  0.95261036723E+02 0.  0.
         23    2    1    2    0    0  0.79339822640E+02 -0.42079135975E+02  0.24995624208E+03  0.28065410870E+03  0.90681556217E+02 0.  0.
        -11    1    4    4    0    0  0.81346393850E+01 -0.54708358656E+02  0.10793453131E+03  0.12128083078E+03  0.00000000000E+00 0. -1.
         11    1    4    4    0    0  0.71205183255E+02  0.12629222682E+02  0.14202171077E+03  0.15937327793E+03  0.00000000000E+00 0.  1.
        -13    1    3    3    0    0  0.65544303060E+00 -0.41691634120E+02 -0.33566047935E+01  0.41831671697E+02  0.00000000000E+00 0. -1.
         13    1    3    3    0    0 -0.28398896349E+02  0.49957079649E+02  0.58521258103E+01  0.57762050668E+02  0.00000000000E+00 0.  1.
         21    1    1    2  502  501 -0.51596369322E+02  0.33813690446E+02  0.70300989519E+02  0.93529568138E+02  0.00000000000E+00 0. -1.
<scales pt_clust_5="13000.00000" pt_clust_6="13000.00000" pt_clust_7="13000.00000" pt_clust_8="13000.00000" pt_clust_9="61.68915"></scales>
<clustering>
<clus scale="   61.689">  1  9  2 -1</clus>
<clus scale="   90.682">  5  6 -1 -1</clus>
<clus scale="   95.261">  7  8 -1 -1</clus>
<clus scale="   98.551">  1  5  2 -1</clus>
<clus scale="   61.689">  1  5  2 -1</clus>
</clustering>
</event>
<event>
 9    1  0.1266593E-005  0.9390708E+02  0.7546771E-02  0.1295283E+00
         -1   -1    0    0    0  501 -0.00000000000E+00  0.00000000000E+00  0.12756862123E+03  0.12756862123E+03  0.00000000000E+00 0.  1.
          1   -1    0    0  502    0  0.00000000000E+00 -0.00000000000E+00 -0.39875427484E+03  0.39875427484E+03  0.00000000000E+00 0. -1.
         23    2    1    2    0    0 -0.95259326095E+01  0.10640906550E+02  0.78301397340E+02  0.11976301748E+03  0.89487983814E+02 0.  0.
         23    2    1    2    0    0 -0.31037374754E+01 -0.76156036902E+02 -0.30141632963E+03  0.32432524403E+03  0.92334636023E+02 0.  0.
        -11    1    3    3    0    0 -0.36028231965E+02  0.32729884426E+02  0.21295225425E+02  0.53129704111E+02  0.00000000000E+00 0.  1.
         11    1    3    3    0    0  0.26502299355E+02 -0.22088977875E+02  0.57006171915E+02  0.66633313373E+02  0.00000000000E+00 0. -1.
        -11    1    4    4    0    0  0.14293644537E+02 -0.33409516148E+02 -0.25060215451E+02  0.44142025801E+02  0.00000000000E+00 0.  1.
         11    1    4    4    0    0 -0.17397382012E+02 -0.42746520754E+02 -0.27635611417E+03  0.28018321823E+03  0.00000000000E+00 0. -1.
         21    1    1    2  502  501  0.12629670085E+02  0.65515130352E+02 -0.48070721329E+02  0.82234634556E+02  0.00000000000E+00 0.  1.
<scales pt_clust_5="13000.00000" pt_clust_6="13000.00000" pt_clust_7="13000.00000" pt_clust_8="13000.00000" pt_clust_9="66.72137"></scales>
<clustering>
<clus scale="   66.721">  2  9  1 -1</clus>
<clus scale="   89.488">  5  6 -1 -1</clus>
<clus scale="   91.110">  1  5  2 -1</clus>
<clus scale="   92.335">  7  8 -1 -1</clus>
<clus scale="   66.721">  2  5  1 -1</clus>
</clustering>
</event>
<event>
 9    1  0.1266593E-005  0.1241196E+03  0.7546771E-02  0.1239595E+00
          1   -1    0    0  502    0  0.00000000000E+00  0.00000000000E+00  0.20651992230E+03  0.20651992230E+03  0.00000000000E+00 0. -1.
         -1   -1    0    0    0  501 -0.00000000000E+00 -0.00000000000E+00 -0.10014370891E+03  0.10014370891E+03  0.00000000000E+00 0.  1.
         23    2    1    2    0    0  0.79357428704E+02 -0.40273974013E+02  0.49767533150E+02  0.14460203168E+03  0.10253460750E+03 0.  0.
         23    2    1    2    0    0 -0.57495459439E+02  0.83140189651E+01  0.56358917611E+02  0.12333890841E+03  0.93066148332E+02 0.  0.
        -11    1    4    4    0    0  0.25939111367E+02  0.21164229275E+01  0.14371120413E+02  0.29729545009E+02  0.00000000000E+00 0.  1.
         11    1    4    4    0    0 -0.83434570806E+02  0.61975960376E+01  0.41987797198E+02  0.93609363398E+02  0.00000000000E+00 0. -1.
        -13    1    3    3    0    0  0.80681532182E+02 -0.14567596659E+02 -0.69868007589E+01  0.82283290482E+02  0.00000000000E+00 0.  1.
         13    1    3    3    0    0 -0.13241034782E+01 -0.25706377354E+02  0.56754333909E+02  0.62318741195E+02  0.00000000000E+00 0. -1.
         21    1    1    2  502  501 -0.21861969265E+02  0.31959955048E+02  0.24976262497E+00  0.38722691128E+02  0.00000000000E+00 0. -1.
<scales pt_clust_5="13000.00000" pt_clust_6="13000.00000" pt_clust_7="13000.00000" pt_clust_8="13000.00000" pt_clust_9="38.72189"></scales>
<clustering>
<clus scale="   38.722">  2  9  1 -1</clus>
<clus scale="   93.066">  5  6 -1 -1</clus>
<clus scale="  102.535">  7  8 -1 -1</clus>
<clus scale="  116.420">  1  5  2 -1</clus>
<clus scale="  116.420">  1  5  2 -1</clus>
</clustering>
</event>
<event>
 9    1  0.1266593E-005  0.9242300E+02  0.7546771E-02  0.1297814E+00
          1   -1    0    0  502    0  0.00000000000E+00  0.00000000000E+00  0.20169959858E+03  0.20169959858E+03  0.00000000000E+00 0. -1.
         -1   -1    0    0    0  501 -0.00000000000E+00 -0.00000000000E+00 -0.10333915750E+03  0.10333915750E+03  0.00000000000E+00 0.  1.
         23    2    1    2    0    0 -0.20876944625E+02 -0.12518772733E+02  0.23923067354E+02  0.96425599257E+02  0.90183238758E+02 0.  0.
         23    2    1    2    0    0  0.98526656244E+01 -0.97290964928E+01  0.12311043256E+03  0.15397279564E+03  0.91431465332E+02 0.  0.
        -11    1    4    4    0    0 -0.26119638661E+02  0.27426001554E+02  0.33764996567E+02  0.50739492293E+02  0.00000000000E+00 0.  1.
         11    1    4    4    0    0  0.35972304285E+02 -0.37155098047E+02  0.89345435997E+02  0.10323330335E+03  0.00000000000E+00 0. -1.
        -13    1    3    3    0    0  0.35244454193E+02  0.21049334140E+01  0.11309961308E+02  0.37074486117E+02  0.00000000000E+00 0. -1.
         13    1    3    3    0    0 -0.56121398819E+02 -0.14623706147E+02  0.12613106047E+02  0.59351113140E+02  0.00000000000E+00 0.  1.
         21    1    1    2  502  501  0.11024279001E+02  0.22247869226E+02 -0.48673058844E+02  0.54640361179E+02  0.00000000000E+00 0.  1.
<scales pt_clust_5="13000.00000" pt_clust_6="13000.00000" pt_clust_7="13000.00000" pt_clust_8="13000.00000" pt_clust_9="24.82947"></scales>
<clustering>
<clus scale="   24.829">  2  9  1 -1</clus>
<clus scale="   90.183">  7  8 -1 -1</clus>
<clus scale="   91.188">  2  7  1 -1</clus>
<clus scale="   91.431">  5  6 -1 -1</clus>
<clus scale="   92.423">  1  5  2 -1</clus>
</clustering>
</event>
<event>
 9    1  0.1266593E-005  0.1156872E+03  0.7546771E-02  0.1250934E+00
         -4   -1    0    0    0  501 -0.00000000000E+00  0.00000000000E+00  0.85976866460E+02  0.85976866460E+02  0.00000000000E+00 0.  1.
          4   -1    0    0  502    0  0.00000000000E+00 -0.00000000000E+00 -0.25298114885E+03  0.25298114885E+03  0.00000000000E+00 0. -1.
         23    2    1    2    0    0  0.73571127033E+02 -0.46315156237E+01 -0.85664549714E+02  0.14467478483E+03  0.90322846603E+02 0.  0.
         23    2    1    2    0    0 -0.67142521216E+02 -0.37500721724E+02 -0.93363761082E+02  0.14999971598E+03  0.88705696698E+02 0.  0.
        -11    1    4    4    0    0 -0.85034912326E+02 -0.22447626199E+02 -0.51144293639E+02  0.10173775606E+03  0.00000000000E+00 0.  1.
         11    1    4    4    0    0  0.17892391110E+02 -0.15053095525E+02 -0.42219467444E+02  0.48261959924E+02  0.00000000000E+00 0. -1.
        -11    1    3    3    0    0  0.82510955035E+02  0.20531701230E+02 -0.81254301603E+02  0.11760897068E+03  0.00000000000E+00 0. -1.
         11    1    3    3    0    0 -0.89398280022E+01 -0.25163216853E+02 -0.44102481112E+01  0.27065814149E+02  0.00000000000E+00 0.  1.
         21    1    1    2  502  501 -0.64286058164E+01  0.42132237348E+02  0.12024028408E+02  0.44283514493E+02  0.00000000000E+00 0. -1.
<scales pt_clust_5="13000.00000" pt_clust_6="13000.00000" pt_clust_7="13000.00000" pt_clust_8="13000.00000" pt_clust_9="42.61986"></scales>
<clustering>
<clus scale="   42.620">  1  9  2 -1</clus>
<clus scale="   88.706">  5  6 -1 -1</clus>
<clus scale="   90.323">  7  8 -1 -1</clus>
<clus scale="  114.429">  2  5  1 -1</clus>
<clus scale="  114.429">  2  5  1 -1</clus>
</clustering>
</event>
<event>
 9    1  0.1266593E-005  0.1421747E+03  0.7546771E-02  0.1228143E+00
         -1   -1    0    0    0  501 -0.00000000000E+00  0.00000000000E+00  0.87566589763E+02  0.87566589763E+02  0.00000000000E+00 0.  1.
          1   -1    0    0  502    0  0.00000000000E+00 -0.00000000000E+00 -0.67698048135E+03  0.67698048135E+03  0.00000000000E+00 0. -1.
         23    2    1    2    0    0  0.20962252167E+02 -0.28308332807E+02 -0.83847930493E+00  0.97980108486E+02  0.91425493650E+02 0.  0.
         23    2    1    2    0    0  0.10474783614E+03  0.23600698247E+02 -0.48202567649E+03  0.50170934429E+03  0.88512209442E+02 0.  0.
        -11    1    4    4    0    0  0.90304439238E+02  0.40625019547E+02 -0.45929617693E+03  0.46984919081E+03  0.00000000000E+00 0. -1.
         11    1    4    4    0    0  0.14443396903E+02 -0.17024321300E+02 -0.22729499557E+02  0.31860153482E+02  0.00000000000E+00 0.  1.
        -13    1    3    3    0    0  0.49546498355E+02  0.70615115877E+01  0.10443821192E+02  0.51125276002E+02  0.00000000000E+00 0. -1.
         13    1    3    3    0    0 -0.28584246188E+02 -0.35369844395E+02 -0.11282300497E+02  0.46854832485E+02  0.00000000000E+00 0.  1.
         21    1    1    2  502  501 -0.12571008831E+03  0.47076345598E+01 -0.10654973579E+03  0.16485761833E+03  0.00000000000E+00 0.  1.
<scales pt_clust_5="13000.00000" pt_clust_6="13000.00000" pt_clust_7="13000.00000" pt_clust_8="13000.00000" pt_clust_9="111.26204"></scales>
<clustering>
<clus scale="   88.512">  5  6 -1 -1</clus>
<clus scale="   91.425">  7  8 -1 -1</clus>
<clus scale="   97.977">  1  7  2 -1</clus>
<clus scale="  111.262">  1  9  2 -1</clus>
<clus scale="  142.175">  2  5  1 -1</clus>
</clustering>
</event>
<event>
 9    1  0.1266593E-005  0.1077079E+03  0.7546771E-02  0.1265413E+00
          2   -1    0    0  502    0  0.00000000000E+00  0.00000000000E+00  0.24992263742E+03  0.24992263742E+03  0.00000000000E+00 0. -1.
         -2   -1    0    0    0  501 -0.00000000000E+00 -0.00000000000E+00 -0.75176472084E+02  0.75176472084E+02  0.00000000000E+00 0.  1.
         23    2    1    2    0    0  0.30041738532E+01 -0.25576674896E+02  0.35313090339E+02  0.10263549874E+03  0.92864632084E+02 0.  0.
         23    2    1    2    0    0 -0.39752262354E+00  0.69777936983E+02  0.13373955458E+03  0.17782100359E+03  0.94153716573E+02 0.  0.
        -11    1    4    4    0    0 -0.25011452226E+02  0.74870788966E+02  0.57819749400E+02  0.97848511504E+02  0.00000000000E+00 0.  1.
         11    1    4    4    0    0  0.24613929602E+02 -0.50928519827E+01  0.75919805182E+02  0.79972492087E+02  0.00000000000E+00 0. -1.
        -11    1    3    3    0    0  0.22518782207E+02  0.27452615131E+02  0.28871426193E+02  0.45763532206E+02  0.00000000000E+00 0.  1.
         11    1    3    3    0    0 -0.19514608354E+02 -0.53029290027E+02  0.64416641458E+01  0.56871966529E+02  0.00000000000E+00 0. -1.
         21    1    1    2  502  501 -0.26066512296E+01 -0.44201262087E+02  0.56935204133E+01  0.44642607176E+02  0.00000000000E+00 0. -1.
<scales pt_clust_5="13000.00000" pt_clust_6="13000.00000" pt_clust_7="13000.00000" pt_clust_8="13000.00000" pt_clust_9="44.27806"></scales>
<clustering>
<clus scale="   44.278">  2  9  1 -1</clus>
<clus scale="   92.865">  7  8 -1 -1</clus>
<clus scale="   94.154">  5  6 -1 -1</clus>
<clus scale="  106.583">  2  7  1 -1</clus>
<clus scale="  107.708">  1  5  2 -1</clus>
</clustering>
</event>
<event>
 9    1  0.1266593E-005  0.1697545E+03  0.7546771E-02  0.1178412E+00
          1   -1    0    0  502    0  0.00000000000E+00  0.00000000000E+00  0.93609713646E+03  0.93609713646E+03  0.00000000000E+00 0. -1.
         -1   -1    0    0    0  501 -0.00000000000E+00 -0.00000000000E+00 -0.75156460216E+02  0.75156460216E+02  0.00000000000E+00 0.  1.
         23    2    1    2    0    0  0.80278225473E+01 -0.12944027469E+03  0.22280369192E+03  0.27260343651E+03  0.88611047925E+02 0.  0.
         23    2    1    2    0    0 -0.71799277453E+02  0.13629324379E+03  0.64936221061E+03  0.67353666425E+03  0.90826058897E+02 0.  0.
        -11    1    3    3    0    0  0.15528412078E+02 -0.10334065674E+03  0.92686095761E+02  0.13968226539E+03  0.00000000000E+00 0.  1.
         11    1    3    3    0    0 -0.75005895312E+01 -0.26099617952E+02  0.13011759616E+03  0.13292117112E+03  0.00000000000E+00 0. -1.
        -13    1    4    4    0    0 -0.45208818648E+02  0.75416699425E+01  0.13196350152E+03  0.13969638436E+03  0.00000000000E+00 0.  1.
         13    1    4    4    0    0 -0.26590458806E+02  0.12875157385E+03  0.51739870909E+03  0.53384027989E+03  0.00000000000E+00 0. -1.
         21    1    1    2  502  501  0.63771454906E+02 -0.68529690997E+01 -0.11225226282E+02  0.65113495924E+02  0.00000000000E+00 0.  1.
<scales pt_clust_5="13000.00000" pt_clust_6="13000.00000" pt_clust_7="13000.00000" pt_clust_8="13000.00000" pt_clust_9="64.13861"></scales>
<clustering>
<clus scale="   64.139">  2  9  1 -1</clus>
<clus scale="   88.611">  5  6 -1 -1</clus>
<clus scale="   90.826">  7  8 -1 -1</clus>
<clus scale="  168.580">  2  5  1 -1</clus>
<clus scale="  169.755">  1  5  2 -1</clus>
</clustering>
</event>
<event>
 9    1  0.1266593E-005  0.1046942E+03  0.7546771E-02  0.1271421E+00
          1   -1    0    0  502    0  0.00000000000E+00  0.00000000000E+00  0.27291954824E+03  0.27291954824E+03  0.00000000000E+00 0. -1.
         -1   -1    0    0    0  501 -0.00000000000E+00 -0.00000000000E+00 -0.79896547249E+02  0.79896547249E+02  0.00000000000E+00 0.  1.
         23    2    1    2    0    0  0.72343038219E+02  0.11083211813E+02  0.19728978833E+02  0.11845865458E+03  0.91032233177E+02 0.  0.
         23    2    1    2    0    0 -0.45778015163E+02 -0.48155779215E+01  0.18005492767E+03  0.20623816766E+03  0.89418053863E+02 0.  0.
        -11    1    4    4    0    0 -0.35258827152E+02  0.40477039784E+02  0.10550391081E+03  0.11837504314E+03  0.00000000000E+00 0.  1.
         11    1    4    4    0    0 -0.10519188010E+02 -0.45292617705E+02  0.74551016860E+02  0.87863124517E+02  0.00000000000E+00 0. -1.
        -13    1    3    3    0    0  0.31399732044E+01 -0.26793091804E+02 -0.16526413479E+02  0.31636237808E+02  0.00000000000E+00 0.  1.
         13    1    3    3    0    0  0.69203065015E+02  0.37876303617E+02  0.36255392312E+02  0.86822416776E+02  0.00000000000E+00 0. -1.
         21    1    1    2  502  501 -0.26565023057E+02 -0.62676338916E+01 -0.67609055136E+01  0.28119273247E+02  0.00000000000E+00 0.  1.
<scales pt_clust_5="13000.00000" pt_clust_6="13000.00000" pt_clust_7="13000.00000" pt_clust_8="13000.00000" pt_clust_9="27.29439"></scales>
<clustering>
<clus scale="   27.294">  2  9  1 -1</clus>
<clus scale="   89.418">  5  6 -1 -1</clus>
<clus scale="   91.032">  7  8 -1 -1</clus>
<clus scale="  103.294">  1  5  2 -1</clus>
<clus scale="  103.294">  1  5  2 -1</clus>
</clustering>
</event>
<event>
 9    1  0.1266593E-005  0.1098112E+03  0.7546771E-02  0.1261526E+00
          2   -1    0    0  502    0  0.00000000000E+00  0.00000000000E+00  0.21023012773E+03  0.21023012773E+03  0.00000000000E+00 0. -1.
         -2   -1    0    0    0  501 -0.00000000000E+00 -0.00000000000E+00 -0.11503078220E+03  0.11503078220E+03  0.00000000000E+00 0.  1.
         23    2    1    2    0    0  0.87145117660E+02  0.41941217646E+02 -0.12578069678E+02  0.13409712443E+03  0.92035284946E+02 0.  0.
         23    2    1    2    0    0 -0.42262002648E+02 -0.24592754341E+02  0.97995543798E+02  0.14206034163E+03  0.90482780821E+02 0.  0.
        -11    1    4    4    0    0  0.40784124815E+01 -0.45776421946E+02  0.70515113622E+02  0.84169445191E+02  0.00000000000E+00 0.  1.
         11    1    4    4    0    0 -0.46340415129E+02  0.21183667605E+02  0.27480430176E+02  0.57890896437E+02  0.00000000000E+00 0. -1.
        -13    1    3    3    0    0  0.16033976445E+02  0.53006986272E+02 -0.25519167257E+02  0.60975871390E+02  0.00000000000E+00 0.  1.
         13    1    3    3    0    0  0.71111141216E+02 -0.11065768626E+02  0.12941097579E+02  0.73121253045E+02  0.00000000000E+00 0. -1.
         21    1    1    2  502  501 -0.44883115012E+02 -0.17348463305E+02  0.97818714090E+01  0.49103443876E+02  0.00000000000E+00 0.  1.
<scales pt_clust_5="13000.00000" pt_clust_6="13000.00000" pt_clust_7="13000.00000" pt_clust_8="13000.00000" pt_clust_9="48.11926"></scales>
<clustering>
<clus scale="   48.119">  2  9  1 -1</clus>
<clus scale="   90.483">  5  6 -1 -1</clus>
<clus scale="   92.035">  7  8 -1 -1</clus>
<clus scale="  108.513">  1  5  2 -1</clus>
<clus scale="  108.513">  1  5  2 -1</clus>
</clustering>
</event>
<event>
 9    1  0.1266593E-005  0.9625647E+02  0.7546771E-02  0.1293188E+00
         -2   -1    0    0    0  501 -0.00000000000E+00  0.00000000000E+00  0.80682177866E+02  0.80682177866E+02  0.00000000000E+00 0.  1.
          2   -1    0    0  502    0  0.00000000000E+00 -0.00000000000E+00 -0.21631459706E+03  0.21631459706E+03  0.00000000000E+00 0. -1.
         23    2    1    2    0    0  0.47436398224E+02  0.37483149458E+02 -0.27250953053E+02  0.11242554907E+03  0.90783761056E+02 0.  0.
         23    2    1    2    0    0  0.12336490654E+02 -0.14268340974E+02 -0.49826170443E+02  0.97735471515E+02  0.81937784785E+02 0.  0.
        -11    1    4    4    0    0  0.44073680165E+02  0.86387652346E+01 -0.25367819552E+02  0.51581428992E+02  0.00000000000E+00 0.  1.
         11    1    4    4    0    0 -0.31737189511E+02 -0.22907106209E+02 -0.24458350891E+02  0.46154042523E+02  0.00000000000E+00 0. -1.
        -13    1    3    3    0    0 -0.77455633575E+01  0.51384378588E+02 -0.95934523555E+01  0.52842998048E+02  0.00000000000E+00 0. -1.
         13    1    3    3    0    0  0.55181961582E+02 -0.13901229130E+02 -0.17657500698E+02  0.59582551022E+02  0.00000000000E+00 0.  1.
         21    1    1    2  502  501 -0.59772888878E+02 -0.23214808484E+02 -0.58555295702E+02  0.86835754344E+02  0.00000000000E+00 0. -1.
<scales pt_clust_5="13000.00000" pt_clust_6="13000.00000" pt_clust_7="13000.00000" pt_clust_8="13000.00000" pt_clust_9="64.12274"></scales>
<clustering>
<clus scale="   64.123">  2  9  1 -1</clus>
<clus scale="   81.938">  5  6 -1 -1</clus>
<clus scale="   87.963">  2  5  1 -1</clus>
<clus scale="   90.784">  7  8 -1 -1</clus>
<clus scale="   64.123">  2  5  1 -1</clus>
</clustering>
</event>
<event>
 9    1  0.1266593E-005  0.9345584E+02  0.7546771E-02  0.1296026E+00
          1   -1    0    0  502    0  0.00000000000E+00  0.00000000000E+00  0.36050697335E+03  0.36050697335E+03  0.00000000000E+00 0. -1.
         -1   -1    0    0    0  501 -0.00000000000E+00 -0.00000000000E+00 -0.46382911820E+02  0.46382911820E+02  0.00000000000E+00 0.  1.
         23    2    1    2    0    0 -0.46011110752E+00  0.16369684615E+02  0.56005616115E+02  0.10847235853E+03  0.91440938596E+02 0.  0.
         23    2    1    2    0    0 -0.25391342499E+02  0.19939348997E+01  0.24859792587E+03  0.26530921246E+03  0.89103049464E+02 0.  0.
        -13    1    4    4    0    0  0.23889125341E+02 -0.17385533192E+02  0.37883316614E+02  0.48042613913E+02  0.00000000000E+00 0.  1.
         13    1    4    4    0    0 -0.49280467841E+02  0.19379468092E+02  0.21071460925E+03  0.21726659855E+03  0.00000000000E+00 0. -1.
        -13    1    3    3    0    0  0.15783213823E+02 -0.22612085442E+02 -0.10653389638E+02  0.29561985004E+02  0.00000000000E+00 0.  1.
         13    1    3    3    0    0 -0.16243324930E+02  0.38981770057E+02  0.66659005752E+02  0.78910373523E+02  0.00000000000E+00 0. -1.
         21    1    1    2  502  501  0.25851453607E+02 -0.18363619515E+02  0.95205195495E+01  0.33108314179E+02  0.00000000000E+00 0.  1.
<scales pt_clust_5="13000.00000" pt_clust_6="13000.00000" pt_clust_7="13000.00000" pt_clust_8="13000.00000" pt_clust_9="31.70994"></scales>
<clustering>
<clus scale="   31.710">  2  9  1 -1</clus>
<clus scale="   89.103">  5  6 -1 -1</clus>
<clus scale="   91.170">  1  5  2 -1</clus>
<clus scale="   91.441">  7  8 -1 -1</clus>
<clus scale="   91.170">  1  5  2 -1</clus>
</clustering>
</event>
<event>
 9    1  0.1266593E-005  0.9863335E+02  0.7546771E-02  0.1285434E+00
         -1   -1    0    0    0  501 -0.00000000000E+00  0.00000000000E+00  0.63142019202E+02  0.63142019202E+02  0.00000000000E+00 0.  1.
          1   -1    0    0  502    0  0.00000000000E+00 -0.00000000000E+00 -0.19876906624E+03  0.19876906624E+03  0.00000000000E+00 0. -1.
         23    2    1    2    0    0  0.29691784577E+02  0.91317419682E+01 -0.40428326625E+02  0.10523288926E+03  0.92057159446E+02 0.  0.
         23    2    1    2    0    0 -0.26495095540E+02 -0.30054150477E+02 -0.95251726440E+02  0.13551292255E+03  0.87667660735E+02 0.  0.
        -11    1    3    3    0    0  0.29987269473E+02 -0.17686824521E+02 -0.61804908808E+02  0.70935934792E+02  0.00000000000E+00 0. -1.
         11    1    3    3    0    0 -0.29548489569E+00  0.26818566489E+02  0.21376582183E+02  0.34296954467E+02  0.00000000000E+00 0.  1.
        -13    1    4    4    0    0 -0.11550179215E+02  0.20242055795E+02  0.36164856794E+01  0.23584453170E+02  0.00000000000E+00 0.  1.
         13    1    4    4    0    0 -0.14944916325E+02 -0.50296206271E+02 -0.98868212119E+02  0.11192846938E+03  0.00000000000E+00 0. -1.
         21    1    1    2  502  501 -0.31966890373E+01  0.20922408508E+02  0.53006024802E-01  0.21165273639E+02  0.00000000000E+00 0.  1.
<scales pt_clust_5="13000.00000" pt_clust_6="13000.00000" pt_clust_7="13000.00000" pt_clust_8="13000.00000" pt_clust_9="21.16521"></scales>
<clustering>
<clus scale="   21.165">  1  9  2 -1</clus>
<clus scale="   87.668">  7  8 -1 -1</clus>
<clus scale="   92.057">  5  6 -1 -1</clus>
<clus scale="   94.550">  2  7  1 -1</clus>
<clus scale="   94.550">  2  5  1 -1</clus>
</clustering>
</event>
<event>
 9    1  0.1266593E-005  0.2161846E+03  0.7546771E-02  0.1136776E+00
         -1   -1    0    0    0  501 -0.00000000000E+00  0.00000000000E+00  0.48518473953E+02  0.48518473953E+02  0.00000000000E+00 0.  1.
          1   -1    0    0  502    0  0.00000000000E+00 -0.00000000000E+00 -0.13085922734E+04  0.13085922734E+04  0.00000000000E+00 0. -1.
         23    2    1    2    0    0  0.17363744371E+03 -0.13629363053E+03 -0.51556032704E+03  0.56816791339E+03  0.91029728182E+02 0.  0.
         23    2    1    2    0    0 -0.13451884293E+03  0.12347254965E+03 -0.69627551352E+03  0.72552717565E+03  0.90825669584E+02 0.  0.
        -13    1    4    4    0    0 -0.11486692234E+03  0.46334895977E+02 -0.44766392984E+03  0.46448285922E+03  0.00000000000E+00 0.  1.
         13    1    4    4    0    0 -0.19651920591E+02  0.77137653677E+02 -0.24861158368E+03  0.26104431643E+03  0.00000000000E+00 0. -1.
        -13    1    3    3    0    0  0.12646508242E+03 -0.11110358614E+03 -0.28079185012E+03  0.32738583814E+03  0.00000000000E+00 0.  1.
         13    1    3    3    0    0  0.47172361289E+02 -0.25190044394E+02 -0.23476847692E+03  0.24078207525E+03  0.00000000000E+00 0. -1.
         21    1    1    2  502  501 -0.39118600773E+02  0.12821080881E+02 -0.48237958898E+02  0.63415658320E+02  0.00000000000E+00 0. -1.
<scales pt_clust_5="13000.00000" pt_clust_6="13000.00000" pt_clust_7="13000.00000" pt_clust_8="13000.00000" pt_clust_9="41.16607"></scales>
<clustering>
<clus scale="   41.166">  1  9  2 -1</clus>
<clus scale="   90.826">  5  6 -1 -1</clus>
<clus scale="   91.030">  7  8 -1 -1</clus>
<clus scale="  216.099">  2  5  1 -1</clus>
<clus scale="  216.099">  2  5  1 -1</clus>
</clustering>
</event>
<event>
 9    1  0.1266593E-005  0.9629450E+02  0.7546771E-02  0.1288339E+00
          4   -1    0    0  502    0  0.00000000000E+00  0.00000000000E+00  0.53151339879E+02  0.53151339879E+02  0.00000000000E+00 0. -1.
         -4   -1    0    0    0  501 -0.00000000000E+00 -0.00000000000E+00 -0.39751435045E+03  0.39751435045E+03  0.00000000000E+00 0.  1.
         23    2    1    2    0    0  0.18361142063E+02 -0.31787422294E+02 -0.16254159990E+03  0.19094973126E+03  0.93244069076E+02 0.  0.
         23    2    1    2    0    0  0.45642743020E+01  0.20842188726E+02 -0.22467206432E+02  0.98349496434E+02  0.93341409102E+02 0.  0.
        -11    1    3    3    0    0 -0.29328617779E+02 -0.41339179045E+02 -0.95588751777E+02  0.10819567926E+03  0.00000000000E+00 0.  1.
         11    1    3    3    0    0  0.47689759841E+02  0.95517567509E+01 -0.66952848120E+02  0.82754051999E+02  0.00000000000E+00 0. -1.
        -13    1    4    4    0    0 -0.23124548149E+02  0.49939217090E+02 -0.18164955167E+02  0.57953737816E+02  0.00000000000E+00 0.  1.
         13    1    4    4    0    0  0.27688822451E+02 -0.29097028364E+02 -0.43022512652E+01  0.40395758618E+02  0.00000000000E+00 0. -1.
         21    1    1    2  502  501 -0.22925416365E+02  0.10945233568E+02 -0.15935420424E+03  0.16136646263E+03  0.00000000000E+00 0.  1.
<scales pt_clust_5="13000.00000" pt_clust_6="13000.00000" pt_clust_7="13000.00000" pt_clust_8="13000.00000" pt_clust_9="25.40419"></scales>
<clustering>
<clus scale="   25.404">  2  9  1 -1</clus>
<clus scale="   93.244">  5  6 -1 -1</clus>
<clus scale="   93.341">  7  8 -1 -1</clus>
<clus scale="   96.200">  2  5  1 -1</clus>
<clus scale="   96.294">  1  5  2 -1</clus>
</clustering>
</event>
<event>
 9    1  0.1266593E-005  0.1345019E+03  0.7546771E-02  0.1231870E+00
          2   -1    0    0  502    0  0.00000000000E+00  0.00000000000E+00  0.50593276912E+03  0.50593276912E+03  0.00000000000E+00 0. -1.
         -2   -1    0    0    0  501 -0.00000000000E+00 -0.00000000000E+00 -0.14086285928E+03  0.14086285928E+03  0.00000000000E+00 0.  1.
         23    2    1    2    0    0  0.37094096313E+01 -0.79623679625E+02  0.22746048335E+03  0.25541442403E+03  0.84525537206E+02 0.  0.
         23    2    1    2    0    0  0.34529532446E+02  0.46367537416E+02  0.24215433782E+03  0.27520105903E+03  0.11728027296E+03 0.  0.
        -11    1    4    4    0    0 -0.38266816075E+02  0.21755716778E+02  0.14380112981E+03  0.15038758379E+03  0.00000000000E+00 0. -1.
         11    1    4    4    0    0  0.72796348521E+02  0.24611820637E+02  0.98353208013E+02  0.12481347523E+03  0.00000000000E+00 0.  1.
        -13    1    3    3    0    0  0.29344876406E+02 -0.28782572298E+02  0.32768892321E+02  0.52567656818E+02  0.00000000000E+00 0.  1.
         13    1    3    3    0    0 -0.25635466775E+02 -0.50841107327E+02  0.19469159103E+03  0.20284676722E+03  0.00000000000E+00 0. -1.
         21    1    1    2  502  501 -0.38238942077E+02  0.33256142209E+02 -0.10454491134E+03  0.11618014534E+03  0.00000000000E+00 0.  1.
<scales pt_clust_5="13000.00000" pt_clust_6="13000.00000" pt_clust_7="13000.00000" pt_clust_8="13000.00000" pt_clust_9="50.67729"></scales>
<clustering>
<clus scale="   50.677">  2  9  1 -1</clus>
<clus scale="   84.526">  7  8 -1 -1</clus>
<clus scale="  107.148">  2  7  1 -1</clus>
<clus scale="  117.280">  5  6 -1 -1</clus>
<clus scale="  134.502">  1  5  2 -1</clus>
</clustering>
</event>
<event>
 9    1  0.1266593E-005  0.1032149E+03  0.7546771E-02  0.1274522E+00
          1   -1    0    0  502    0  0.00000000000E+00  0.00000000000E+00  0.49666395924E+03  0.49666395924E+03  0.00000000000E+00 0. -1.
         -1   -1    0    0    0  501 -0.00000000000E+00 -0.00000000000E+00 -0.37497974778E+02  0.37497974778E+02  0.00000000000E+00 0.  1.
         23    2    1    2    0    0 -0.20506629245E+02 -0.32167103175E+02  0.11951082396E+03  0.15559912293E+03  0.92048930710E+02 0.  0.
         23    2    1    2    0    0  0.42004597270E+02  0.29431383984E+02  0.34140583978E+03  0.35682087772E+03  0.90180922513E+02 0.  0.
        -13    1    4    4    0    0 -0.66237074005E+01 -0.20628488379E+02  0.26280464070E+02  0.34059812451E+02  0.00000000000E+00 0.  1.
         13    1    4    4    0    0  0.48628304670E+02  0.50059872363E+02  0.31512537571E+03  0.32276106527E+03  0.00000000000E+00 0. -1.
        -13    1    3    3    0    0 -0.45663075279E+02  0.78709098746E+01  0.85849832206E+02  0.97556452149E+02  0.00000000000E+00 0.  1.
         13    1    3    3    0    0  0.25156446034E+02 -0.40038013049E+02  0.33660991753E+02  0.58042670784E+02  0.00000000000E+00 0. -1.
         21    1    1    2  502  501 -0.21497968025E+02  0.27357191904E+01 -0.17506792724E+01  0.21741933369E+02  0.00000000000E+00 0.  1.
<scales pt_clust_5="13000.00000" pt_clust_6="13000.00000" pt_clust_7="13000.00000" pt_clust_8="13000.00000" pt_clust_9="21.67134"></scales>
<clustering>
<clus scale="   21.671">  2  9  1 -1</clus>
<clus scale="   90.181">  5  6 -1 -1</clus>
<clus scale="   92.049">  7  8 -1 -1</clus>
<clus scale="  101.553">  1  5  2 -1</clus>
<clus scale="  101.553">  1  5  2 -1</clus>
</clustering>
</event>
<event>
 9    1  0.1266593E-005  0.9537465E+02  0.7546771E-02  0.1291066E+00
         -1   -1    0    0    0  501 -0.00000000000E+00  0.00000000000E+00  0.46068454116E+03  0.46068454116E+03  0.00000000000E+00 0.  1.
          1   -1    0    0  502    0  0.00000000000E+00 -0.00000000000E+00 -0.30862125729E+02  0.30862125729E+02  0.00000000000E+00 0. -1.
         23    2    1    2    0    0 -0.10046799631E+01 -0.40291706512E+02  0.25222957258E+03  0.27169006618E+03  0.92581336030E+02 0.  0.
         23    2    1    2    0    0  0.98286720234E+01  0.13675848982E+02  0.95698348210E+02  0.13329462892E+03  0.91245014162E+02 0.  0.
        -11    1    4    4    0    0 -0.23244499156E+02 -0.25684222182E+02  0.15311129065E+02  0.37873693817E+02  0.00000000000E+00 0.  1.
         11    1    4    4    0    0  0.33073171180E+02  0.39360071164E+02  0.80387219144E+02  0.95420935102E+02  0.00000000000E+00 0. -1.
        -13    1    3    3    0    0  0.33392595491E+02  0.13411044125E+02  0.11201993363E+03  0.11765792395E+03  0.00000000000E+00 0. -1.
         13    1    3    3    0    0 -0.34397275454E+02 -0.53702750637E+02  0.14020963895E+03  0.15403214223E+03  0.00000000000E+00 0.  1.
         21    1    1    2  502  501 -0.88239920604E+01  0.26615857530E+02  0.81894494645E+02  0.86561971795E+02  0.00000000000E+00 0.  1.
<scales pt_clust_5="13000.00000" pt_clust_6="13000.00000" pt_clust_7="13000.00000" pt_clust_8="13000.00000" pt_clust_9="28.04045"></scales>
<clustering>
<clus scale="   28.040">  1  9  2 -1</clus>
<clus scale="   91.245">  5  6 -1 -1</clus>
<clus scale="   92.581">  7  8 -1 -1</clus>
<clus scale="   94.078">  2  5  1 -1</clus>
<clus scale="   94.078">  2  5  1 -1</clus>
</clustering>
</event>
<event>
 9    1  0.1266593E-005  0.9758907E+02  0.7546771E-02  0.1286036E+00
          1   -1    0    0  502    0  0.00000000000E+00  0.00000000000E+00  0.18066526520E+03  0.18066526520E+03  0.00000000000E+00 0. -1.
         -1   -1    0    0    0  501 -0.00000000000E+00 -0.00000000000E+00 -0.15932902996E+03  0.15932902996E+03  0.00000000000E+00 0.  1.
         23    2    1    2    0    0 -0.25334503265E+02 -0.72212323854E+02 -0.54074661862E+02  0.13076827409E+03  0.91213023631E+02 0.  0.
         23    2    1    2    0    0  0.29474186346E+02 -0.13220818359E+00  0.93347609843E+02  0.13457621227E+03  0.92348446150E+02 0.  0.
        -13    1    4    4    0    0  0.15918440924E+02 -0.26182783830E+02 -0.57867725435E+01  0.31183676291E+02  0.00000000000E+00 0.  1.
         13    1    4    4    0    0  0.13555745422E+02  0.26050575646E+02  0.99134382386E+02  0.10339253598E+03  0.00000000000E+00 0. -1.
        -13    1    3    3    0    0 -0.52407451077E+02 -0.55086340909E+02 -0.61607212528E+02  0.97859565290E+02  0.00000000000E+00 0.  1.
         13    1    3    3    0    0  0.27072947813E+02 -0.17125982945E+02  0.75325506665E+01  0.32908708796E+02  0.00000000000E+00 0. -1.
         21    1    1    2  502  501 -0.41396830812E+01  0.72344532037E+02 -0.17936712741E+02  0.74649808812E+02  0.00000000000E+00 0. -1.
<scales pt_clust_5="13000.00000" pt_clust_6="13000.00000" pt_clust_7="13000.00000" pt_clust_8="13000.00000" pt_clust_9="72.46288"></scales>
<clustering>
<clus scale="   72.463">  2  9  1 -1</clus>
<clus scale="   91.213">  7  8 -1 -1</clus>
<clus scale="   92.348">  5  6 -1 -1</clus>
<clus scale="   96.515">  2  7  1 -1</clus>
<clus scale="   97.589">  1  5  2 -1</clus>
</clustering>
</event>
<event>
 9    1  0.1266593E-005  0.1591335E+03  0.7546771E-02  0.1191118E+00
          1   -1    0    0  502    0  0.00000000000E+00  0.00000000000E+00  0.68103911006E+03  0.68103911006E+03  0.00000000000E+00 0. -1.
         -1   -1    0    0    0  501 -0.00000000000E+00 -0.00000000000E+00 -0.65742266608E+02  0.65742266608E+02  0.00000000000E+00 0.  1.
         23    2    1    2    0    0 -0.93193895901E+02 -0.14694981834E+01  0.44539872266E+02  0.13557968058E+03  0.87811092168E+02 0.  0.
         23    2    1    2    0    0  0.13653168322E+03 -0.15546906241E+01  0.50881672756E+03  0.53554521383E+03  0.96285493308E+02 0.  0.
        -11    1    4    4    0    0 -0.44216750410E+00  0.21281792525E+02  0.28589224571E+02  0.35643428100E+02  0.00000000000E+00 0.  1.
         11    1    4    4    0    0  0.13697385072E+03 -0.22836483149E+02  0.48022750299E+03  0.49990178573E+03  0.00000000000E+00 0. -1.
        -13    1    3    3    0    0 -0.46933852847E+02  0.25019131435E+02  0.59899185737E+02  0.80104031938E+02  0.00000000000E+00 0. -1.
         13    1    3    3    0    0 -0.46260043054E+02 -0.26488629618E+02 -0.15359313471E+02  0.55475648646E+02  0.00000000000E+00 0.  1.
         21    1    1    2  502  501 -0.43337787315E+02  0.30241888075E+01  0.61940243622E+02  0.75656482255E+02  0.00000000000E+00 0. -1.
<scales pt_clust_5="13000.00000" pt_clust_6="13000.00000" pt_clust_7="13000.00000" pt_clust_8="13000.00000" pt_clust_9="43.44318"></scales>
<clustering>
<clus scale="   43.443">  2  9  1 -1</clus>
<clus scale="   87.811">  7  8 -1 -1</clus>
<clus scale="   96.285">  5  6 -1 -1</clus>
<clus scale="  154.154">  2  7  1 -1</clus>
<clus scale="  159.134">  1  5  2 -1</clus>
</clustering>
</event>
<event>
 9    1  0.1266593E-005  0.9996383E+02  0.7546771E-02  0.1280861E+00
          2   -1    0    0  502    0  0.00000000000E+00  0.00000000000E+00  0.31159920063E+03  0.31159920063E+03  0.00000000000E+00 0. -1.
         -2   -1    0    0    0  501 -0.00000000000E+00 -0.00000000000E+00 -0.75791120909E+02  0.75791120909E+02  0.00000000000E+00 0.  1.
         23    2    1    2    0    0  0.91683175355E+01  0.17066551093E+02  0.42657695751E+02  0.10320068154E+03  0.91953120944E+02 0.  0.
         23    2    1    2    0    0  0.67268694629E+02  0.55795180109E+01  0.16399732429E+03  0.19930523528E+03  0.90946391562E+02 0.  0.
        -13    1    4    4    0    0  0.48717843703E+02  0.46475951803E+02  0.85004868933E+02  0.10844016845E+03  0.00000000000E+00 0.  1.
         13    1    4    4    0    0  0.18550850926E+02 -0.40896433793E+02  0.78992455360E+02  0.90865066834E+02  0.00000000000E+00 0. -1.
        -13    1    3    3    0    0  0.52158828038E+01 -0.37622686446E+02  0.25494493237E+02  0.45745394897E+02  0.00000000000E+00 0. -1.
         13    1    3    3    0    0  0.39524347317E+01  0.54689237539E+02  0.17163202514E+02  0.57455286645E+02  0.00000000000E+00 0.  1.
         21    1    1    2  502  501 -0.76437012165E+02 -0.22646069104E+02  0.29153059675E+02  0.84884404710E+02  0.00000000000E+00 0. -1.
<scales pt_clust_5="13000.00000" pt_clust_6="13000.00000" pt_clust_7="13000.00000" pt_clust_8="13000.00000" pt_clust_9="79.72115"></scales>
<clustering>
<clus scale="   79.721">  2  9  1 -1</clus>
<clus scale="   90.946">  5  6 -1 -1</clus>
<clus scale="   91.953">  7  8 -1 -1</clus>
<clus scale="   99.039">  1  5  2 -1</clus>
<clus scale="   99.039">  1  5  2 -1</clus>
</clustering>
</event>
<event>
 9    1  0.1266593E-005  0.1028194E+03  0.7546771E-02  0.1275331E+00
          2   -1    0    0  502    0  0.00000000000E+00  0.00000000000E+00  0.17357382079E+03  0.17357382079E+03  0.00000000000E+00 0. -1.
         -2   -1    0    0    0  501 -0.00000000000E+00 -0.00000000000E+00 -0.17424183452E+03  0.17424183452E+03  0.00000000000E+00 0.  1.
         23    2    1    2    0    0  0.86409674324E+02 -0.27972519041E+02  0.20043065333E+02  0.12978785996E+03  0.90521105194E+02 0.  0.
         23    2    1    2    0    0 -0.11234553766E+02  0.34697038638E+02  0.55523655887E+02  0.11075127077E+03  0.88616408895E+02 0.  0.
        -11    1    3    3    0    0  0.36851251206E+02 -0.57782126973E+02 -0.14293337375E+00  0.68533271795E+02  0.00000000000E+00 0.  1.
         11    1    3    3    0    0  0.49558423117E+02  0.29809607932E+02  0.20185998707E+02  0.61254588161E+02  0.00000000000E+00 0. -1.
        -13    1    4    4    0    0  0.31494810884E+02  0.10248421328E+01  0.45635109436E+02  0.55457520926E+02  0.00000000000E+00 0.  1.
         13    1    4    4    0    0 -0.42729364650E+02  0.33672196506E+02  0.98885464507E+01  0.55293749844E+02  0.00000000000E+00 0. -1.
         21    1    1    2  502  501 -0.75175120558E+02 -0.67245195978E+01 -0.76234734948E+02  0.10727652459E+03  0.00000000000E+00 0.  1.
<scales pt_clust_5="13000.00000" pt_clust_6="13000.00000" pt_clust_7="13000.00000" pt_clust_8="13000.00000" pt_clust_9="75.47528"></scales>
<clustering>
<clus scale="   75.475">  2  9  1 -1</clus>
<clus scale="   88.616">  7  8 -1 -1</clus>
<clus scale="   90.521">  5  6 -1 -1</clus>
<clus scale="  101.147">  1  7  2 -1</clus>
<clus scale="  101.147">  1  5  2 -1</clus>
</clustering>
</event>
<event>
 9    1  0.1266593E-005  0.1109449E+03  0.7546771E-02  0.1267742E+00
         -1   -1    0    0    0  501 -0.00000000000E+00  0.00000000000E+00  0.55880554809E+02  0.55880554809E+02  0.00000000000E+00 0.  1.
          1   -1    0    0  502    0  0.00000000000E+00 -0.00000000000E+00 -0.24605687605E+03  0.24605687605E+03  0.00000000000E+00 0. -1.
         23    2    1    2    0    0  0.17786373657E+02  0.52551138957E+00 -0.63885107769E+02  0.12698696224E+03  0.10829473825E+03 0.  0.
         23    2    1    2    0    0 -0.19345252750E+02 -0.22825083986E+02 -0.11727572751E+03  0.15084694131E+03  0.90033217071E+02 0.  0.
        -11    1    4    4    0    0 -0.28929310459E+02  0.20134232197E+02 -0.95384428066E+02  0.10168815775E+03  0.00000000000E+00 0.  1.
         11    1    4    4    0    0  0.95840577091E+01 -0.42959316183E+02 -0.21891299441E+02  0.49158783552E+02  0.00000000000E+00 0. -1.
        -11    1    3    3    0    0 -0.11387474796E+00  0.49142283767E+02 -0.63286577969E+01  0.49548248514E+02  0.00000000000E+00 0.  1.
         11    1    3    3    0    0  0.17900248405E+02 -0.48616772377E+02 -0.57556449973E+02  0.77438713721E+02  0.00000000000E+00 0. -1.
         21    1    1    2  502  501  0.15588790932E+01  0.22299572597E+02 -0.90154859644E+01  0.24103527318E+02  0.00000000000E+00 0. -1.
<scales pt_clust_5="13000.00000" pt_clust_6="13000.00000" pt_clust_7="13000.00000" pt_clust_8="13000.00000" pt_clust_9="22.35399"></scales>
<clustering>
<clus scale="   22.354">  1  9  2 -1</clus>
<clus scale="   90.033">  5  6 -1 -1</clus>
<clus scale="   93.204">  2  5  1 -1</clus>
<clus scale="  108.295">  7  8 -1 -1</clus>
<clus scale="   93.204">  2  5  1 -1</clus>
</clustering>
</event>
<event>
 9    1  0.1266593E-005  0.1056031E+03  0.7546771E-02  0.1270907E+00
          1   -1    0    0  502    0  0.00000000000E+00  0.00000000000E+00  0.17477000978E+03  0.17477000978E+03  0.00000000000E+00 0. -1.
         -1   -1    0    0    0  501 -0.00000000000E+00 -0.00000000000E+00 -0.82979097368E+02  0.82979097368E+02  0.00000000000E+00 0.  1.
         23    2    1    2    0    0 -0.40857264767E+02 -0.29855519887E+02  0.39812373069E+02  0.11043290261E+03  0.89720303039E+02 0.  0.
         23    2    1    2    0    0  0.48784048778E+02  0.35116869306E+01  0.55206341480E+02  0.11961692393E+03  0.94171402191E+02 0.  0.
        -11    1    4    4    0    0  0.33184285229E+02 -0.14249179632E+02  0.78512924340E+02  0.86420571594E+02  0.00000000000E+00 0. -1.
         11    1    4    4    0    0  0.15599763549E+02  0.17760866562E+02 -0.23306582859E+02  0.33196352336E+02  0.00000000000E+00 0.  1.
        -13    1    3    3    0    0 -0.43967461654E+02  0.22767262061E+02  0.12514357765E+02  0.51069512004E+02  0.00000000000E+00 0.  1.
         13    1    3    3    0    0  0.31101968868E+01 -0.52622781949E+02  0.27298015304E+02  0.59363390606E+02  0.00000000000E+00 0. -1.
         21    1    1    2  502  501 -0.79267840110E+01  0.26343832957E+02 -0.32278021361E+01  0.27699280609E+02  0.00000000000E+00 0.  1.
<scales pt_clust_5="13000.00000" pt_clust_6="13000.00000" pt_clust_7="13000.00000" pt_clust_8="13000.00000" pt_clust_9="27.51057"></scales>
<clustering>
<clus scale="   27.511">  2  9  1 -1</clus>
<clus scale="   89.720">  7  8 -1 -1</clus>
<clus scale="   94.171">  5  6 -1 -1</clus>
<clus scale="  101.654">  2  7  1 -1</clus>
<clus scale="  105.603">  1  5  2 -1</clus>
</clustering>
</event>
<event>
 9    1  0.1266593E-005  0.1546692E+03  0.7546771E-02  0.1194873E+00
         -1   -1    0    0    0  501 -0.00000000000E+00  0.00000000000E+00  0.16038002871E+03  0.16038002871E+03  0.00000000000E+00 0.  1.
          1   -1    0    0  502    0  0.00000000000E+00 -0.00000000000E+00 -0.20066632557E+03  0.20066632557E+03  0.00000000000E+00 0. -1.
         23    2    1    2    0    0 -0.11696770985E+03 -0.58440201494E+02  0.15068930300E+01  0.15915246066E+03  0.90722283426E+02 0.  0.
         23    2    1    2    0    0  0.98519907560E+02  0.72725816804E+02 -0.67871277140E+02  0.16690151089E+03  0.90853659595E+02 0.  0.
        -11    1    3    3    0    0 -0.56738618462E+02 -0.75936654908E+02  0.12043266733E+02  0.95554626561E+02  0.00000000000E+00 0.  1.
         11    1    3    3    0    0 -0.60229091390E+02  0.17496453414E+02 -0.10536373703E+02  0.63597834103E+02  0.00000000000E+00 0. -1.
        -13    1    4    4    0    0  0.10680316150E+03  0.52666496973E+02 -0.78608490363E+02  0.14268836662E+03  0.00000000000E+00 0. -1.
         13    1    4    4    0    0 -0.82832539421E+01  0.20059319831E+02  0.10737213223E+02  0.24213144276E+02  0.00000000000E+00 0.  1.
         21    1    1    2  502  501  0.18447802292E+02 -0.14285615310E+02  0.26078087250E+02  0.34992382725E+02  0.00000000000E+00 0.  1.
<scales pt_clust_5="13000.00000" pt_clust_6="13000.00000" pt_clust_7="13000.00000" pt_clust_8="13000.00000" pt_clust_9="23.33239"></scales>
<clustering>
<clus scale="   23.332">  1  9  2 -1</clus>
<clus scale="   90.722">  5  6 -1 -1</clus>
<clus scale="   90.854">  7  8 -1 -1</clus>
<clus scale="  154.592">  1  5  2 -1</clus>
<clus scale="  154.669">  2  5  1 -1</clus>
</clustering>
</event>
<event>
 9    1  0.1266593E-005  0.9651696E+02  0.7546771E-02  0.1288750E+00
         -1   -1    0    0    0  501 -0.00000000000E+00  0.00000000000E+00  0.36375918333E+02  0.36375918333E+02  0.00000000000E+00 0.  1.
          1   -1    0    0  502    0  0.00000000000E+00 -0.00000000000E+00 -0.47972908209E+03  0.47972908209E+03  0.00000000000E+00 0. -1.
         23    2    1    2    0    0 -0.10746021490E+02 -0.27110360054E+02 -0.10277062252E+03  0.14043397315E+03  0.91156192112E+02 0.  0.
         23    2    1    2    0    0 -0.38998502477E+02  0.36660426001E+02 -0.18825190664E+03  0.21513958593E+03  0.89338631345E+02 0.  0.
        -11    1    3    3    0    0  0.39600704391E+02 -0.15848134143E+02 -0.34486811831E+02  0.54851794268E+02  0.00000000000E+00 0.  1.
         11    1    3    3    0    0 -0.50346725881E+02 -0.11262225911E+02 -0.68283810692E+02  0.85582178881E+02  0.00000000000E+00 0. -1.
        -13    1    4    4    0    0  0.69340197950E+01 -0.25196655773E+02 -0.35786848626E+02  0.44313097694E+02  0.00000000000E+00 0.  1.
         13    1    4    4    0    0 -0.45932522272E+02  0.61857081774E+02 -0.15246505801E+03  0.17082648823E+03  0.00000000000E+00 0. -1.
         21    1    1    2  502  501  0.49744523967E+02 -0.95500659473E+01 -0.15233063459E+03  0.16053144134E+03  0.00000000000E+00 0.  1.
<scales pt_clust_5="13000.00000" pt_clust_6="13000.00000" pt_clust_7="13000.00000" pt_clust_8="13000.00000" pt_clust_9="50.65295"></scales>
<clustering>
<clus scale="   50.653">  2  9  1 -1</clus>
<clus scale="   89.339">  7  8 -1 -1</clus>
<clus scale="   91.156">  5  6 -1 -1</clus>
<clus scale="   94.802">  2  7  1 -1</clus>
<clus scale="   50.653">  2  5  1 -1</clus>
</clustering>
</event>
<event>
 9    1  0.1266593E-005  0.1374932E+03  0.7546771E-02  0.1229281E+00
         -1   -1    0    0    0  501 -0.00000000000E+00  0.00000000000E+00  0.10955474337E+03  0.10955474337E+03  0.00000000000E+00 0.  1.
          1   -1    0    0  502    0  0.00000000000E+00 -0.00000000000E+00 -0.32081679049E+03  0.32081679049E+03  0.00000000000E+00 0. -1.
         23    2    1    2    0    0  0.78565594412E+02 -0.10132634470E+02 -0.73909484606E+02  0.14152291350E+03  0.91054380586E+02 0.  0.
         23    2    1    2    0    0  0.25272197200E+02 -0.48313001740E+02 -0.13254279464E+03  0.16959547270E+03  0.90676357783E+02 0.  0.
        -11    1    4    4    0    0  0.57790602979E+02 -0.41857838671E+02 -0.77565449708E+02  0.10539559497E+03  0.00000000000E+00 0.  1.
         11    1    4    4    0    0 -0.32518405778E+02 -0.64551630690E+01 -0.54977344936E+02  0.64199877732E+02  0.00000000000E+00 0. -1.
        -11    1    3    3    0    0  0.78335374268E+02  0.23935051990E+02 -0.33057855459E+02  0.88329719704E+02  0.00000000000E+00 0.  1.
         11    1    3    3    0    0  0.23022014382E+00 -0.34067686461E+02 -0.40851629147E+02  0.53193193794E+02  0.00000000000E+00 0. -1.
         21    1    1    2  502  501 -0.10383779161E+03  0.58445636210E+02 -0.48097678749E+01  0.11925314766E+03  0.00000000000E+00 0. -1.
<scales pt_clust_5="13000.00000" pt_clust_6="13000.00000" pt_clust_7="13000.00000" pt_clust_8="13000.00000" pt_clust_9="103.02180"></scales>
<clustering>
<clus scale="   90.676">  5  6 -1 -1</clus>
<clus scale="   91.054">  7  8 -1 -1</clus>
<clus scale="  105.807">  2  5  1 -1</clus>
<clus scale="  103.022">  1  9  2 -1</clus>
<clus scale="  105.807">  2  5  1 -1</clus>
</clustering>
</event>
<event>
 9    1  0.1266593E-005  0.9848426E+02  0.7546771E-02  0.1283898E+00
         -2   -1    0    0    0  501 -0.00000000000E+00  0.00000000000E+00  0.12121935925E+03  0.12121935925E+03  0.00000000000E+00 0.  1.
          2   -1    0    0  502    0  0.00000000000E+00 -0.00000000000E+00 -0.12587263156E+03  0.12587263156E+03  0.00000000000E+00 0. -1.
         23    2    1    2    0    0  0.34449691853E+02 -0.41244392999E+02  0.44394070263E+02  0.11314685212E+03  0.89126289315E+02 0.  0.
         23    2    1    2    0    0 -0.13702950459E+02  0.35901678501E+02 -0.55987949046E+02  0.11142528311E+03  0.88341620476E+02 0.  0.
        -11    1    4    4    0    0 -0.18900084726E+02  0.63753521074E+02 -0.29891206839E+02  0.72905479206E+02  0.00000000000E+00 0.  1.
         11    1    4    4    0    0  0.51971342667E+01 -0.27851842573E+02 -0.26096742207E+02  0.38519803908E+02  0.00000000000E+00 0. -1.
        -13    1    3    3    0    0 -0.10307116014E+02 -0.48911574442E+02  0.49586838128E+00  0.49988245022E+02  0.00000000000E+00 0. -1.
         13    1    3    3    0    0  0.44756807868E+02  0.76671814435E+01  0.43898201881E+02  0.63158607095E+02  0.00000000000E+00 0.  1.
         21    1    1    2  502  501 -0.20746741394E+02  0.53427144979E+01  0.69406064730E+01  0.22519855570E+02  0.00000000000E+00 0. -1.
<scales pt_clust_5="13000.00000" pt_clust_6="13000.00000" pt_clust_7="13000.00000" pt_clust_8="13000.00000" pt_clust_9="21.42363"></scales>
<clustering>
<clus scale="   21.424">  1  9  2 -1</clus>
<clus scale="   88.342">  5  6 -1 -1</clus>
<clus scale="   89.126">  7  8 -1 -1</clus>
<clus scale="   97.775">  2  5  1 -1</clus>
<clus scale="   97.775">  2  5  1 -1</clus>
</clustering>
</event>
<event>
 9    1  0.1266593E-005  0.2284052E+03  0.7546771E-02  0.1127871E+00
          3   -1    0    0  502    0  0.00000000000E+00  0.00000000000E+00  0.85466769795E+03  0.85466769795E+03  0.00000000000E+00 0. -1.
         -3   -1    0    0    0  501 -0.00000000000E+00 -0.00000000000E+00 -0.18651465758E+03  0.18651465758E+03  0.00000000000E+00 0.  1.
         23    2    1    2    0    0 -0.22012406004E+03 -0.67775833788E+02 -0.10437985147E+02  0.24754634871E+03  0.90122570840E+02 0.  0.
         23    2    1    2    0    0  0.20020982184E+03  0.50293814061E+02  0.71431090838E+03  0.74916008155E+03  0.91582277003E+02 0.  0.
        -11    1    3    3    0    0 -0.29538262002E+02 -0.43813403978E+02  0.11904802738E+02  0.54165003632E+02  0.00000000000E+00 0. -1.
         11    1    3    3    0    0 -0.19058579804E+03 -0.23962429809E+02 -0.22342787885E+02  0.19338134508E+03  0.00000000000E+00 0.  1.
        -13    1    4    4    0    0  0.16963064985E+03  0.95330383373E+01  0.60760908870E+03  0.63091539913E+03  0.00000000000E+00 0. -1.
         13    1    4    4    0    0  0.30579171983E+02  0.40760775724E+02  0.10670181968E+03  0.11824468242E+03  0.00000000000E+00 0.  1.
         21    1    1    2  502  501  0.19914238200E+02  0.17482019727E+02 -0.35719882858E+02  0.44475925265E+02  0.00000000000E+00 0. -1.
<scales pt_clust_5="13000.00000" pt_clust_6="13000.00000" pt_clust_7="13000.00000" pt_clust_8="13000.00000" pt_clust_9="26.49902"></scales>
<clustering>
<clus scale="   26.499">  2  9  1 -1</clus>
<clus scale="   90.123">  5  6 -1 -1</clus>
<clus scale="   91.582">  7  8 -1 -1</clus>
<clus scale="  227.824">  2  5  1 -1</clus>
<clus scale="  228.405">  1  5  2 -1</clus>
</clustering>
</event>
<event>
 9    1  0.1266593E-005  0.9291619E+02  0.7546771E-02  0.1296192E+00
         -2   -1    0    0    0  501 -0.00000000000E+00  0.00000000000E+00  0.16080201344E+02  0.16080201344E+02  0.00000000000E+00 0.  1.
          2   -1    0    0  502    0  0.00000000000E+00 -0.00000000000E+00 -0.77651656726E+03  0.77651656726E+03  0.00000000000E+00 0. -1.
         23    2    1    2    0    0 -0.24283646400E+02  0.53197261176E+01 -0.32320037945E+03  0.33647496628E+03  0.90215977984E+02 0.  0.
         23    2    1    2    0    0 -0.70816431312E+00 -0.27709594992E+02 -0.35129773310E+03  0.36386520244E+03  0.90661265808E+02 0.  0.
        -11    1    4    4    0    0 -0.90282913996E+01  0.30186224862E+02 -0.18301517796E+03  0.18570749468E+03  0.00000000000E+00 0.  1.
         11    1    4    4    0    0  0.83201270864E+01 -0.57895819853E+02 -0.16828255514E+03  0.17815770776E+03  0.00000000000E+00 0. -1.
        -13    1    3    3    0    0 -0.24163231747E+02 -0.40630280836E+02 -0.17853069210E+03  0.18468321394E+03  0.00000000000E+00 0. -1.
         13    1    3    3    0    0 -0.12041465304E+00  0.45950006953E+02 -0.14466968735E+03  0.15179175234E+03  0.00000000000E+00 0.  1.
         21    1    1    2  502  501  0.24991810713E+02  0.22389868874E+02 -0.85938253363E+02  0.92256599883E+02  0.00000000000E+00 0.  1.
<scales pt_clust_5="13000.00000" pt_clust_6="13000.00000" pt_clust_7="13000.00000" pt_clust_8="13000.00000" pt_clust_9="33.55439"></scales>
<clustering>
<clus scale="   33.554">  1  9  2 -1</clus>
<clus scale="   90.216">  7  8 -1 -1</clus>
<clus scale="   90.661">  5  6 -1 -1</clus>
<clus scale="   92.482">  1  7  2 -1</clus>
<clus scale="   92.916">  2  5  1 -1</clus>
</clustering>
</event>
<event>
 9    1  0.1266593E-005  0.1287646E+03  0.7546771E-02  0.1230531E+00
          2   -1    0    0  502    0  0.00000000000E+00  0.00000000000E+00  0.25455039962E+03  0.25455039962E+03  0.00000000000E+00 0. -1.
         -2   -1    0    0    0  501 -0.00000000000E+00 -0.00000000000E+00 -0.23655293381E+03  0.23655293381E+03  0.00000000000E+00 0.  1.
         23    2    1    2    0    0 -0.30805819773E+02 -0.23900656922E+01 -0.61839323898E+02  0.11330156037E+03  0.89768762139E+02 0.  0.
         23    2    1    2    0    0  0.95648609851E+02  0.36759026893E+02  0.19599405802E+03  0.24040336005E+03  0.94234930479E+02 0.  0.
        -11    1    4    4    0    0  0.77503809112E+02 -0.16135477745E+02  0.14251742308E+03  0.16302886233E+03  0.00000000000E+00 0. -1.
         11    1    4    4    0    0  0.18144800740E+02  0.52894504638E+02  0.53476634931E+02  0.77374497725E+02  0.00000000000E+00 0.  1.
        -13    1    3    3    0    0 -0.49201523798E+02 -0.31701244238E+02 -0.27932900321E+02  0.64853725804E+02  0.00000000000E+00 0.  1.
         13    1    3    3    0    0  0.18395704024E+02  0.29311178546E+02 -0.33906423577E+02  0.48447834565E+02  0.00000000000E+00 0. -1.
         21    1    1    2  502  501 -0.64842790078E+02 -0.34368961201E+02 -0.11615726830E+03  0.13739841301E+03  0.00000000000E+00 0.  1.
<scales pt_clust_5="13000.00000" pt_clust_6="13000.00000" pt_clust_7="13000.00000" pt_clust_8="13000.00000" pt_clust_9="73.38810"></scales>
<clustering>
<clus scale="   73.388">  2  9  1 -1</clus>
<clus scale="   89.769">  7  8 -1 -1</clus>
<clus scale="   94.235">  5  6 -1 -1</clus>
<clus scale="  125.533">  2  7  1 -1</clus>
<clus scale="  128.765">  1  5  2 -1</clus>
</clustering>
</event>
<event>
 9    1  0.1266593E-005  0.2424171E+03  0.7546771E-02  0.1118301E+00
          2   -1    0    0  502    0  0.00000000000E+00  0.00000000000E+00  0.11136418667E+04  0.11136418667E+04  0.00000000000E+00 0. -1.
         -2   -1    0    0    0  501 -0.00000000000E+00 -0.00000000000E+00 -0.73382244904E+02  0.73382244904E+02  0.00000000000E+00 0.  1.
         23    2    1    2    0    0 -0.19251933614E+03  0.10171388973E+03  0.39842298053E+03  0.46276238994E+03  0.89435719825E+02 0.  0.
         23    2    1    2    0    0  0.19083219858E+03 -0.12835238727E+03  0.65069295461E+03  0.69613895025E+03  0.91196784714E+02 0.  0.
        -11    1    4    4    0    0  0.32724789041E+01 -0.25159300996E+02  0.28542756639E+02  0.38188853103E+02  0.00000000000E+00 0.  1.
         11    1    4    4    0    0  0.18755971968E+03 -0.10319308628E+03  0.62215019797E+03  0.65795009714E+03  0.00000000000E+00 0. -1.
        -13    1    3    3    0    0 -0.19650225092E+03  0.78674938426E+02  0.36580814448E+03  0.42263279465E+03  0.00000000000E+00 0.  1.
         13    1    3    3    0    0  0.39829147783E+01  0.23038951303E+02  0.32614836052E+02  0.40129595288E+02  0.00000000000E+00 0. -1.
         21    1    1    2  502  501  0.16871375623E+01  0.26638497545E+02 -0.88563133591E+01  0.28122771395E+02  0.00000000000E+00 0.  1.
<scales pt_clust_5="13000.00000" pt_clust_6="13000.00000" pt_clust_7="13000.00000" pt_clust_8="13000.00000" pt_clust_9="26.69187"></scales>
<clustering>
<clus scale="   26.692">  2  9  1 -1</clus>
<clus scale="   89.436">  7  8 -1 -1</clus>
<clus scale="   91.197">  5  6 -1 -1</clus>
<clus scale="  241.760">  2  7  1 -1</clus>
<clus scale="  242.417">  1  5  2 -1</clus>
</clustering>
</event>
<event>
 9    1  0.1266593E-005  0.1396352E+03  0.7546771E-02  0.1214549E+00
         -1   -1    0    0    0  501 -0.00000000000E+00  0.00000000000E+00  0.94550359997E+02  0.94550359997E+02  0.00000000000E+00 0.  1.
          1   -1    0    0  502    0  0.00000000000E+00 -0.00000000000E+00 -0.43256088039E+03  0.43256088039E+03  0.00000000000E+00 0. -1.
         23    2    1    2    0    0  0.68758348897E+02  0.24428946611E+02 -0.30518638485E+02  0.11947395596E+03  0.89544150469E+02 0.  0.
         23    2    1    2    0    0 -0.10021308203E+03 -0.58676303966E+02 -0.32544893172E+03  0.35779014448E+03  0.92796604865E+02 0.  0.
        -13    1    3    3    0    0  0.88020662309E+02  0.74017852934E+01 -0.15444345452E+02  0.89671351196E+02  0.00000000000E+00 0.  1.
         13    1    3    3    0    0 -0.19262313412E+02  0.17027161317E+02 -0.15074293033E+02  0.29802604768E+02  0.00000000000E+00 0. -1.
        -13    1    4    4    0    0 -0.50808705131E+02 -0.10347154384E+01 -0.23144864746E+03  0.23696217328E+03  0.00000000000E+00 0. -1.
         13    1    4    4    0    0 -0.49404376897E+02 -0.57641588528E+02 -0.94000284256E+02  0.12082797120E+03  0.00000000000E+00 0.  1.
         21    1    1    2  502  501  0.31454733131E+02  0.34247357356E+02  0.17957049812E+02  0.49847139940E+02  0.00000000000E+00 0. -1.
<scales pt_clust_5="13000.00000" pt_clust_6="13000.00000" pt_clust_7="13000.00000" pt_clust_8="13000.00000" pt_clust_9="46.50034"></scales>
<clustering>
<clus scale="   46.500">  1  9  2 -1</clus>
<clus scale="   89.544">  5  6 -1 -1</clus>
<clus scale="   92.797">  7  8 -1 -1</clus>
<clus scale="  137.495">  1  5  2 -1</clus>
<clus scale="  139.635">  2  5  1 -1</clus>
</clustering>
</event>
<event>
 9    1  0.1266593E-005  0.1145988E+03  0.7546771E-02  0.1252373E+00
         -3   -1    0    0    0  501 -0.00000000000E+00  0.00000000000E+00  0.52180871321E+03  0.52180871321E+03  0.00000000000E+00 0.  1.
          3   -1    0    0  502    0  0.00000000000E+00 -0.00000000000E+00 -0.80473584935E+02  0.80473584935E+02  0.00000000000E+00 0. -1.
         23    2    1    2    0    0  0.45669358822E+02  0.34385718729E+02  0.28846205932E+03  0.30833498306E+03  0.92693225873E+02 0.  0.
         23    2    1    2    0    0 -0.69685251373E+02 -0.83916614909E+01 -0.19749089700E+02  0.11773476228E+03  0.92439133836E+02 0.  0.
        -11    1    4    4    0    0 -0.16319244469E+02 -0.46249088018E+02 -0.18120376544E+02  0.52284260812E+02  0.00000000000E+00 0. -1.
         11    1    4    4    0    0 -0.53366006904E+02  0.37857426527E+02 -0.16287131559E+01  0.65450501471E+02  0.00000000000E+00 0.  1.
        -11    1    3    3    0    0  0.49726371947E+02  0.62337380886E+02  0.19425339825E+03  0.20998343710E+03  0.00000000000E+00 0.  1.
         11    1    3    3    0    0 -0.40570131243E+01 -0.27951662157E+02  0.94208661063E+02  0.98351545957E+02  0.00000000000E+00 0. -1.
         21    1    1    2  502  501  0.24015892551E+02 -0.25994057238E+02  0.17262215866E+03  0.17621255281E+03  0.00000000000E+00 0. -1.
<scales pt_clust_5="13000.00000" pt_clust_6="13000.00000" pt_clust_7="13000.00000" pt_clust_8="13000.00000" pt_clust_9="35.39003"></scales>
<clustering>
<clus scale="   35.390">  1  9  2 -1</clus>
<clus scale="   92.439">  5  6 -1 -1</clus>
<clus scale="   92.693">  7  8 -1 -1</clus>
<clus scale="  114.393">  2  5  1 -1</clus>
<clus scale="  114.393">  2  5  1 -1</clus>
</clustering>
</event>
<event>
 9    1  0.1266593E-005  0.1052046E+03  0.7546771E-02  0.1271193E+00
         -1   -1    0    0    0  501 -0.00000000000E+00  0.00000000000E+00  0.46644621430E+02  0.46644621430E+02  0.00000000000E+00 0.  1.
          1   -1    0    0  502    0  0.00000000000E+00 -0.00000000000E+00 -0.54201198222E+03  0.54201198222E+03  0.00000000000E+00 0. -1.
         23    2    1    2    0    0 -0.40004049905E+02  0.51977830533E+02 -0.26593660796E+03  0.28802326651E+03  0.89067972467E+02 0.  0.
         23    2    1    2    0    0  0.25490566803E+02 -0.26692088861E+02 -0.24720022288E+03  0.26649005098E+03  0.92448691064E+02 0.  0.
        -11    1    3    3    0    0 -0.51075154640E+02  0.31372664634E+02 -0.25545140050E+03  0.26238965971E+03  0.00000000000E+00 0. -1.
         11    1    3    3    0    0  0.11071104735E+02  0.20605165899E+02 -0.10485207466E+02  0.25633606796E+02  0.00000000000E+00 0.  1.
        -13    1    4    4    0    0 -0.16918467046E+02  0.26483169949E+02 -0.83830192473E+02  0.89527057294E+02  0.00000000000E+00 0. -1.
         13    1    4    4    0    0  0.42409033849E+02 -0.53175258810E+02 -0.16337003040E+03  0.17696299369E+03  0.00000000000E+00 0.  1.
         21    1    1    2  502  501  0.14513483102E+02 -0.25285741671E+02  0.17769470052E+02  0.34143286156E+02  0.00000000000E+00 0.  1.
<scales pt_clust_5="13000.00000" pt_clust_6="13000.00000" pt_clust_7="13000.00000" pt_clust_8="13000.00000" pt_clust_9="29.15493"></scales>
<clustering>
<clus scale="   29.155">  1  9  2 -1</clus>
<clus scale="   89.068">  5  6 -1 -1</clus>
<clus scale="   92.449">  7  8 -1 -1</clus>
<clus scale="  102.246">  1  5  2 -1</clus>
<clus scale="  105.205">  2  5  1 -1</clus>
</clustering>
</event>
<event>
 9    1  0.1266593E-005  0.1070698E+03  0.7546771E-02  0.1266377E+00
          1   -1    0    0  502    0  0.00000000000E+00  0.00000000000E+00  0.84745089820E+02  0.84745089820E+02  0.00000000000E+00 0. -1.
         -1   -1    0    0    0  501 -0.00000000000E+00 -0.00000000000E+00 -0.60243315225E+03  0.60243315225E+03  0.00000000000E+00 0.  1.
         23    2    1    2    0    0  0.47738300252E+02  0.48116646780E+02 -0.42072345219E+03  0.43573708910E+03  0.90908913676E+02 0.  0.
         23    2    1    2    0    0 -0.53593361495E+02  0.22639019600E+02  0.24043440844E+02  0.11114291886E+03  0.91596330497E+02 0.  0.
        -13    1    4    4    0    0 -0.48863294365E+02 -0.28814683327E+02  0.15123459829E+02  0.58707976874E+02  0.00000000000E+00 0. -1.
         13    1    4    4    0    0 -0.47300671308E+01  0.51453702927E+02  0.89199810147E+01  0.52434941988E+02  0.00000000000E+00 0.  1.
        -13    1    3    3    0    0  0.26991748200E+02 -0.25324079924E+02 -0.14463145854E+03  0.14929207044E+03  0.00000000000E+00 0.  1.
         13    1    3    3    0    0  0.20746552052E+02  0.73440726704E+02 -0.27609199365E+03  0.28644501866E+03  0.00000000000E+00 0. -1.
         21    1    1    2  502  501  0.58550612436E+01 -0.70755666380E+02 -0.12100805108E+03  0.14029823411E+03  0.00000000000E+00 0. -1.
<scales pt_clust_5="13000.00000" pt_clust_6="13000.00000" pt_clust_7="13000.00000" pt_clust_8="13000.00000" pt_clust_9="70.99751"></scales>
<clustering>
<clus scale="   70.998">  2  9  1 -1</clus>
<clus scale="   90.909">  7  8 -1 -1</clus>
<clus scale="   91.596">  5  6 -1 -1</clus>
<clus scale="  106.482">  2  7  1 -1</clus>
<clus scale="  107.070">  1  5  2 -1</clus>
</clustering>
</event>
<event>
 9    1  0.1266593E-005  0.1053384E+03  0.7546771E-02  0.1270049E+00
         -3   -1    0    0    0  501 -0.00000000000E+00  0.00000000000E+00  0.24598278068E+03  0.24598278068E+03  0.00000000000E+00 0.  1.
          3   -1    0    0  502    0  0.00000000000E+00 -0.00000000000E+00 -0.36825106655E+03  0.36825106655E+03  0.00000000000E+00 0. -1.
         23    2    1    2    0    0 -0.18846467931E+02 -0.29893272674E+02  0.10882690579E+02  0.97639149907E+02  0.90366882959E+02 0.  0.
         23    2    1    2    0    0  0.48992616060E+02  0.25316953004E+02 -0.31474853129E+03  0.33245506316E+03  0.91752419792E+02 0.  0.
        -11    1    4    4    0    0  0.12209652095E+02 -0.25886455269E+02 -0.32746700638E+02  0.43491729942E+02  0.00000000000E+00 0.  1.
         11    1    4    4    0    0  0.36782963965E+02  0.51203408273E+02 -0.28200183065E+03  0.28896333322E+03  0.00000000000E+00 0. -1.
        -11    1    3    3    0    0 -0.37264578350E+02  0.17781653269E+02  0.19744364436E+02  0.45767629604E+02  0.00000000000E+00 0.  1.
         11    1    3    3    0    0  0.18418110419E+02 -0.47674925942E+02 -0.88616738577E+01  0.51871520303E+02  0.00000000000E+00 0. -1.
         21    1    1    2  502  501 -0.30146148129E+02  0.45763196694E+01  0.18159755483E+03  0.18413963417E+03  0.00000000000E+00 0.  1.
<scales pt_clust_5="13000.00000" pt_clust_6="13000.00000" pt_clust_7="13000.00000" pt_clust_8="13000.00000" pt_clust_9="30.49152"></scales>
<clustering>
<clus scale="   30.492">  1  9  2 -1</clus>
<clus scale="   90.367">  7  8 -1 -1</clus>
<clus scale="   91.752">  5  6 -1 -1</clus>
<clus scale="  104.134">  1  7  2 -1</clus>
<clus scale="  105.338">  2  5  1 -1</clus>
</clustering>
</event>
<event>
 9    1  0.1266593E-005  0.2062252E+03  0.7546771E-02  0.1144768E+00
         -1   -1    0    0    0  501 -0.00000000000E+00  0.00000000000E+00  0.73754661815E+02  0.73754661815E+02  0.00000000000E+00 0.  1.
          1   -1    0    0  502    0  0.00000000000E+00 -0.00000000000E+00 -0.16384305512E+04  0.16384305512E+04  0.00000000000E+00 0. -1.
         23    2    1    2    0    0  0.13033512202E+03  0.13820928300E+03 -0.78637720150E+03  0.81423485335E+03  0.92196764747E+02 0.  0.
         23    2    1    2    0    0 -0.16069540458E+03 -0.88978768977E+02 -0.80759069486E+03  0.83311663435E+03  0.90223952630E+02 0.  0.
        -11    1    4    4    0    0 -0.10028829346E+03 -0.97671462448E+02 -0.62886922021E+03  0.64426233206E+03  0.00000000000E+00 0. -1.
         11    1    4    4    0    0 -0.60407111120E+02  0.86926934718E+01 -0.17872147465E+03  0.18885430229E+03  0.00000000000E+00 0.  1.
        -13    1    3    3    0    0  0.51401510598E+02  0.27566421719E+01 -0.14141329734E+03  0.15049064766E+03  0.00000000000E+00 0. -1.
         13    1    3    3    0    0  0.78933611418E+02  0.13545264083E+03 -0.64496390416E+03  0.66374420569E+03  0.00000000000E+00 0.  1.
         21    1    1    2  502  501  0.30360282562E+02 -0.49230514022E+02  0.29292006962E+02  0.64833725328E+02  0.00000000000E+00 0.  1.
<scales pt_clust_5="13000.00000" pt_clust_6="13000.00000" pt_clust_7="13000.00000" pt_clust_8="13000.00000" pt_clust_9="57.83935"></scales>
<clustering>
<clus scale="   57.839">  1  9  2 -1</clus>
<clus scale="   90.224">  5  6 -1 -1</clus>
<clus scale="   92.197">  7  8 -1 -1</clus>
<clus scale="  205.351">  2  5  1 -1</clus>
<clus scale="  205.351">  2  5  1 -1</clus>
</clustering>
</event>
<event>
 9    1  0.1266593E-005  0.1588480E+03  0.7546771E-02  0.1190437E+00
          2   -1    0    0  502    0  0.00000000000E+00  0.00000000000E+00  0.14427817072E+03  0.14427817072E+03  0.00000000000E+00 0. -1.
         -2   -1    0    0    0  501 -0.00000000000E+00 -0.00000000000E+00 -0.35940748013E+03  0.35940748013E+03  0.00000000000E+00 0.  1.
         23    2    1    2    0    0 -0.14282715452E+03  0.21151481939E+02 -0.14993963362E+03  0.22622402807E+03  0.88591398508E+02 0.  0.
         23    2    1    2    0    0  0.11951269774E+03  0.61980439742E+02  0.14030945970E+02  0.16028488785E+03  0.85845896791E+02 0.  0.
        -13    1    4    4    0    0  0.81232322063E+02 -0.29108921483E+01  0.22835385654E+02  0.84431145194E+02  0.00000000000E+00 0.  1.
         13    1    4    4    0    0  0.38280375678E+02  0.64891331890E+02 -0.88044396839E+01  0.75853742654E+02  0.00000000000E+00 0. -1.
        -13    1    3    3    0    0 -0.28383796344E+02  0.39031518703E+02 -0.20247447774E+02  0.52336015215E+02  0.00000000000E+00 0. -1.
         13    1    3    3    0    0 -0.11444335818E+03 -0.17880036764E+02 -0.12969218585E+03  0.17388801286E+03  0.00000000000E+00 0.  1.
         21    1    1    2  502  501  0.23314456782E+02 -0.83131921681E+02 -0.79220621761E+02  0.11717673493E+03  0.00000000000E+00 0.  1.
<scales pt_clust_5="13000.00000" pt_clust_6="13000.00000" pt_clust_7="13000.00000" pt_clust_8="13000.00000" pt_clust_9="86.33933"></scales>
<clustering>
<clus scale="   85.846">  5  6 -1 -1</clus>
<clus scale="   86.339">  2  9  1 -1</clus>
<clus scale="   88.591">  7  8 -1 -1</clus>
<clus scale="  157.333">  1  5  2 -1</clus>
<clus scale="  157.333">  1  5  2 -1</clus>
</clustering>
</event>
<event>
 9    1  0.1266593E-005  0.9458893E+02  0.7546771E-02  0.1293134E+00
          1   -1    0    0  502    0  0.00000000000E+00  0.00000000000E+00  0.59341778963E+03  0.59341778963E+03  0.00000000000E+00 0. -1.
         -1   -1    0    0    0  501 -0.00000000000E+00 -0.00000000000E+00 -0.27988840519E+02  0.27988840519E+02  0.00000000000E+00 0.  1.
         23    2    1    2    0    0 -0.14663114317E+02 -0.69797765623E+01  0.81468839452E+02  0.12378423370E+03  0.91769496607E+02 0.  0.
         23    2    1    2    0    0 -0.43260046593E+01  0.13392051768E+02  0.42277007859E+03  0.43323354792E+03  0.93587960382E+02 0.  0.
        -11    1    4    4    0    0 -0.44440830590E+02 -0.10730599027E+02  0.16348710135E+03  0.16975913963E+03  0.00000000000E+00 0.  1.
         11    1    4    4    0    0  0.40114825930E+02  0.24122650795E+02  0.25928297724E+03  0.26347440830E+03  0.00000000000E+00 0. -1.
        -13    1    3    3    0    0  0.12844758445E+01  0.40190957142E+02  0.20719500528E+02  0.45235612257E+02  0.00000000000E+00 0. -1.
         13    1    3    3    0    0 -0.15947590161E+02 -0.47170733704E+02  0.60749338923E+02  0.78548621438E+02  0.00000000000E+00 0.  1.
         21    1    1    2  502  501  0.18989118976E+02 -0.64122752053E+01  0.61190031073E+02  0.64388848534E+02  0.00000000000E+00 0. -1.
<scales pt_clust_5="13000.00000" pt_clust_6="13000.00000" pt_clust_7="13000.00000" pt_clust_8="13000.00000" pt_clust_9="20.04255"></scales>
<clustering>
<clus scale="   20.043">  1  9  2 -1</clus>
<clus scale="   91.769">  7  8 -1 -1</clus>
<clus scale="   92.790">  2  7  1 -1</clus>
<clus scale="   93.588">  5  6 -1 -1</clus>
<clus scale="   20.043">  1  5  2 -1</clus>
</clustering>
</event>
<event>
 9    1  0.1266593E-005  0.9289166E+02  0.7546771E-02  0.1299884E+00
          1   -1    0    0  502    0  0.00000000000E+00  0.00000000000E+00  0.12755754672E+03  0.12755754672E+03  0.00000000000E+00 0. -1.
         -1   -1    0    0    0  501 -0.00000000000E+00 -0.00000000000E+00 -0.15613221713E+03  0.15613221713E+03  0.00000000000E+00 0.  1.
         23    2    1    2    0    0 -0.32360916223E+02  0.19620508776E+02 -0.48188929357E+02  0.10982467204E+03  0.91143252147E+02 0.  0.
         23    2    1    2    0    0  0.14211644239E+02  0.25830716239E+01  0.73404844122E+02  0.11290754831E+03  0.84564769464E+02 0.  0.
        -11    1    3    3    0    0 -0.58730507149E+02  0.20683917920E+01 -0.51283201156E+02  0.77996906576E+02  0.00000000000E+00 0.  1.
         11    1    3    3    0    0  0.26369590926E+02  0.17552116984E+02  0.30942717994E+01  0.31827765460E+02  0.00000000000E+00 0. -1.
        -13    1    4    4    0    0  0.10639237162E+02 -0.19561347770E+02 -0.11519640818E+02  0.25070736298E+02  0.00000000000E+00 0.  1.
         13    1    4    4    0    0  0.35724070770E+01  0.22144419393E+02  0.84924484940E+02  0.87836812015E+02  0.00000000000E+00 0. -1.
         21    1    1    2  502  501  0.18149271985E+02 -0.22203580400E+02 -0.53790585176E+02  0.60957543501E+02  0.00000000000E+00 0.  1.
<scales pt_clust_5="13000.00000" pt_clust_6="13000.00000" pt_clust_7="13000.00000" pt_clust_8="13000.00000" pt_clust_9="28.67743"></scales>
<clustering>
<clus scale="   28.677">  2  9  1 -1</clus>
<clus scale="   84.565">  7  8 -1 -1</clus>
<clus scale="   86.446">  1  7  2 -1</clus>
<clus scale="   91.143">  5  6 -1 -1</clus>
<clus scale="   86.446">  1  5  2 -1</clus>
</clustering>
</event>
<event>
 9    1  0.1266593E-005  0.1165475E+03  0.7546771E-02  0.1249729E+00
          3   -1    0    0  502    0  0.00000000000E+00  0.00000000000E+00  0.75792708062E+02  0.75792708062E+02  0.00000000000E+00 0. -1.
         -3   -1    0    0    0  501 -0.00000000000E+00 -0.00000000000E+00 -0.36604901920E+03  0.36604901920E+03  0.00000000000E+00 0.  1.
         23    2    1    2    0    0  0.30834209306E+02 -0.41897340190E+02 -0.15647674506E+03  0.18702613187E+03  0.88247757370E+02 0.  0.
         23    2    1    2    0    0 -0.58648319710E+02  0.56141320103E+02 -0.45081545354E+01  0.12182080773E+03  0.90711148770E+02 0.  0.
        -11    1    3    3    0    0  0.61652175363E+02 -0.34630545732E+02 -0.11108955027E+03  0.13168581398E+03  0.00000000000E+00 0.  1.
         11    1    3    3    0    0 -0.30817966057E+02 -0.72667944580E+01 -0.45387194789E+02  0.55340317892E+02  0.00000000000E+00 0. -1.
        -13    1    4    4    0    0 -0.19958970396E+02  0.49574938699E+01 -0.42529030193E+02  0.47240402770E+02  0.00000000000E+00 0.  1.
         13    1    4    4    0    0 -0.38689349315E+02  0.51183826233E+02  0.38020875658E+02  0.74580404961E+02  0.00000000000E+00 0. -1.
         21    1    1    2  502  501  0.27814110405E+02 -0.14243979913E+02 -0.12927141155E+03  0.13299478766E+03  0.00000000000E+00 0.  1.
<scales pt_clust_5="13000.00000" pt_clust_6="13000.00000" pt_clust_7="13000.00000" pt_clust_8="13000.00000" pt_clust_9="31.24925"></scales>
<clustering>
<clus scale="   31.249">  2  9  1 -1</clus>
<clus scale="   88.248">  5  6 -1 -1</clus>
<clus scale="   90.711">  7  8 -1 -1</clus>
<clus scale="  114.641">  2  5  1 -1</clus>
<clus scale="  116.548">  1  5  2 -1</clus>
</clustering>
</event>
<event>
 9    1  0.1266593E-005  0.1269597E+03  0.7546771E-02  0.1232082E+00
         -1   -1    0    0    0  501 -0.00000000000E+00  0.00000000000E+00  0.49437959457E+02  0.49437959457E+02  0.00000000000E+00 0.  1.
          1   -1    0    0  502    0  0.00000000000E+00 -0.00000000000E+00 -0.39099239467E+03  0.39099239467E+03  0.00000000000E+00 0. -1.
         23    2    1    2    0    0 -0.29259361545E+02  0.87383571155E+02 -0.16684554131E+03  0.21164797480E+03  0.92007781388E+02 0.  0.
         23    2    1    2    0    0  0.42612409210E+02 -0.72072374166E+02 -0.16369690832E+03  0.20567392932E+03  0.92167471876E+02 0.  0.
        -13    1    4    4    0    0 -0.13655820380E+02 -0.54786434935E+02 -0.11915993967E+03  0.13186025218E+03  0.00000000000E+00 0. -1.
         13    1    4    4    0    0  0.56268229590E+02 -0.17285939231E+02 -0.44536968649E+02  0.73813677138E+02  0.00000000000E+00 0.  1.
        -13    1    3    3    0    0  0.33177194042E+02  0.38732049236E+02 -0.68736421930E+02  0.85589681284E+02  0.00000000000E+00 0.  1.
         13    1    3    3    0    0 -0.62436555587E+02  0.48651521919E+02 -0.98109119384E+02  0.12605829352E+03  0.00000000000E+00 0. -1.
         21    1    1    2  502  501 -0.13353047665E+02 -0.15311196990E+02 -0.11011985580E+02  0.23108450004E+02  0.00000000000E+00 0.  1.
<scales pt_clust_5="13000.00000" pt_clust_6="13000.00000" pt_clust_7="13000.00000" pt_clust_8="13000.00000" pt_clust_9="20.31592"></scales>
<clustering>
<clus scale="   20.316">  1  9  2 -1</clus>
<clus scale="   92.008">  7  8 -1 -1</clus>
<clus scale="   92.167">  5  6 -1 -1</clus>
<clus scale="  126.844">  1  7  2 -1</clus>
<clus scale="  126.960">  2  5  1 -1</clus>
</clustering>
</event>
<event>
 9    1  0.1266593E-005  0.1601603E+03  0.7546771E-02  0.1211111E+00
         -1   -1    0    0    0  501 -0.00000000000E+00  0.00000000000E+00  0.34440148760E+03  0.34440148760E+03  0.00000000000E+00 0.  1.
          1   -1    0    0  502    0  0.00000000000E+00 -0.00000000000E+00 -0.24095657828E+03  0.24095657828E+03  0.00000000000E+00 0. -1.
         23    2    1    2    0    0 -0.10514191039E+03  0.89354401194E+02  0.27575804684E+03  0.32169418284E+03  0.91682149524E+02 0.  0.
         23    2    1    2    0    0  0.32496452182E+02 -0.18878287646E+02 -0.92319089851E+02  0.13465499637E+03  0.90535874366E+02 0.  0.
        -11    1    3    3    0    0 -0.24738341841E+02  0.78602373668E+02  0.16471253190E+03  0.18417528843E+03  0.00000000000E+00 0.  1.
         11    1    3    3    0    0 -0.80403568544E+02  0.10752027527E+02  0.11104551494E+03  0.13751889441E+03  0.00000000000E+00 0. -1.
        -11    1    4    4    0    0  0.53128384019E+02 -0.23198299695E+02 -0.97054526226E+02  0.11305028686E+03  0.00000000000E+00 0. -1.
         11    1    4    4    0    0 -0.20631931837E+02  0.43200120492E+01  0.47354363756E+01  0.21604709512E+02  0.00000000000E+00 0.  1.
         21    1    1    2  502  501  0.72645458203E+02 -0.70476113548E+02 -0.79994047668E+02  0.12900888667E+03  0.00000000000E+00 0. -1.
<scales pt_clust_5="13000.00000" pt_clust_6="13000.00000" pt_clust_7="13000.00000" pt_clust_8="13000.00000" pt_clust_9="131.32291"></scales>
<clustering>
<clus scale="   90.536">  7  8 -1 -1</clus>
<clus scale="   91.682">  5  6 -1 -1</clus>
<clus scale="   98.026">  2  7  1 -1</clus>
<clus scale="  131.323">  2  9  1 -1</clus>
<clus scale="   98.026">  2  5  1 -1</clus>
</clustering>
</event>
<event>
 9    1  0.1266593E-005  0.1314072E+03  0.7546771E-02  0.1226444E+00
          2   -1    0    0  502    0  0.00000000000E+00  0.00000000000E+00  0.31785322906E+03  0.31785322906E+03  0.00000000000E+00 0. -1.
         -2   -1    0    0    0  501 -0.00000000000E+00 -0.00000000000E+00 -0.26784397659E+03  0.26784397659E+03  0.00000000000E+00 0.  1.
         23    2    1    2    0    0 -0.10244494079E+03  0.37248442117E+02 -0.86785749898E+02  0.16763104777E+03  0.93198655877E+02 0.  0.
         23    2    1    2    0    0  0.51848062745E+02 -0.71089711238E+02  0.25410286828E+03  0.28590560791E+03  0.97117353307E+02 0.  0.
        -11    1    3    3    0    0 -0.73622900698E+02  0.25685258196E+01 -0.45066943951E+01  0.73805413938E+02  0.00000000000E+00 0. -1.
         11    1    3    3    0    0 -0.28822040091E+02  0.34679916297E+02 -0.82279055503E+02  0.93825633832E+02  0.00000000000E+00 0.  1.
        -13    1    4    4    0    0  0.58935907887E+02 -0.10022533172E+02  0.71322118356E+02  0.93063080631E+02  0.00000000000E+00 0.  1.
         13    1    4    4    0    0 -0.70878451418E+01 -0.61067178066E+02  0.18278074992E+03  0.19284252728E+03  0.00000000000E+00 0. -1.
         21    1    1    2  502  501  0.50596878044E+02  0.33841269122E+02 -0.11730786591E+03  0.13216054997E+03  0.00000000000E+00 0.  1.
<scales pt_clust_5="13000.00000" pt_clust_6="13000.00000" pt_clust_7="13000.00000" pt_clust_8="13000.00000" pt_clust_9="60.87097"></scales>
<clustering>
<clus scale="   60.871">  2  9  1 -1</clus>
<clus scale="   93.199">  5  6 -1 -1</clus>
<clus scale="   97.117">  7  8 -1 -1</clus>
<clus scale="  128.538">  2  5  1 -1</clus>
<clus scale="  131.407">  1  5  2 -1</clus>
</clustering>
</event>
<event>
 9    1  0.1266593E-005  0.9919643E+02  0.7546771E-02  0.1282351E+00
          1   -1    0    0  502    0  0.00000000000E+00  0.00000000000E+00  0.14965581850E+03  0.14965581850E+03  0.00000000000E+00 0. -1.
         -1   -1    0    0    0  501 -0.00000000000E+00 -0.00000000000E+00 -0.25798219375E+03  0.25798219375E+03  0.00000000000E+00 0.  1.
         23    2    1    2    0    0  0.11296333962E+01 -0.55236260182E+02 -0.11414887692E+03  0.15726964181E+03  0.93013190580E+02 0.  0.
         23    2    1    2    0    0 -0.11375092006E+01  0.31580720240E+02  0.10796950429E+03  0.14551802577E+03  0.92300845874E+02 0.  0.
        -11    1    3    3    0    0  0.26316006398E+02 -0.71919846095E+02 -0.69873301674E+02  0.10366906357E+03  0.00000000000E+00 0.  1.
         11    1    3    3    0    0 -0.25186373002E+02  0.16683585913E+02 -0.44275575248E+02  0.53600578238E+02  0.00000000000E+00 0. -1.
        -13    1    4    4    0    0  0.10321899222E+01 -0.22333463828E+02  0.83190842859E+02  0.86142703453E+02  0.00000000000E+00 0. -1.
         13    1    4    4    0    0 -0.21696991228E+01  0.53914184067E+02  0.24778661434E+02  0.59375322318E+02  0.00000000000E+00 0.  1.
         21    1    1    2  502  501  0.78758044101E-02  0.23655539942E+02 -0.10214700262E+03  0.10485034466E+03  0.00000000000E+00 0.  1.
<scales pt_clust_5="13000.00000" pt_clust_6="13000.00000" pt_clust_7="13000.00000" pt_clust_8="13000.00000" pt_clust_9="23.65554"></scales>
<clustering>
<clus scale="   23.656">  2  9  1 -1</clus>
<clus scale="   92.301">  7  8 -1 -1</clus>
<clus scale="   93.013">  5  6 -1 -1</clus>
<clus scale="   98.529">  1  7  2 -1</clus>
<clus scale="   98.529">  1  5  2 -1</clus>
</clustering>
</event>
<event>
 9    1  0.1266593E-005  0.1147924E+03  0.7546771E-02  0.1252493E+00
         -3   -1    0    0    0  501 -0.00000000000E+00  0.00000000000E+00  0.28788937718E+03  0.28788937718E+03  0.00000000000E+00 0.  1.
          3   -1    0    0  502    0  0.00000000000E+00 -0.00000000000E+00 -0.18227107421E+03  0.18227107421E+03  0.00000000000E+00 0. -1.
         23    2    1    2    0    0 -0.58092550975E+02 -0.35865321018E+02  0.10921869547E+03  0.15795341015E+03  0.91430249960E+02 0.  0.
         23    2    1    2    0    0  0.20317389714E+02  0.69169329804E+02 -0.13145551658E+03  0.17479142145E+03  0.89857084669E+02 0.  0.
        -11    1    4    4    0    0  0.17785389967E+02 -0.14195494340E+02 -0.49844453907E+01  0.23295425552E+02  0.00000000000E+00 0.  1.
         11    1    4    4    0    0  0.25319997471E+01  0.83364824144E+02 -0.12647107118E+03  0.15149599590E+03  0.00000000000E+00 0. -1.
        -11    1    3    3    0    0 -0.58426296200E+02 -0.26916826889E+01  0.11020454087E+03  0.12476344846E+03  0.00000000000E+00 0. -1.
         11    1    3    3    0    0  0.33374522519E+00 -0.33173638329E+02 -0.98584539983E+00  0.33189961691E+02  0.00000000000E+00 0.  1.
         21    1    1    2  502  501  0.37775161261E+02 -0.33304008786E+02  0.12785512408E+03  0.13741561979E+03  0.00000000000E+00 0.  1.
<scales pt_clust_5="13000.00000" pt_clust_6="13000.00000" pt_clust_7="13000.00000" pt_clust_8="13000.00000" pt_clust_9="50.35990"></scales>
<clustering>
<clus scale="   50.360">  1  9  2 -1</clus>
<clus scale="   89.857">  5  6 -1 -1</clus>
<clus scale="   91.430">  7  8 -1 -1</clus>
<clus scale="  113.543">  2  5  1 -1</clus>
<clus scale="  113.543">  2  5  1 -1</clus>
</clustering>
</event>
<event>
 9    1  0.1266593E-005  0.2672625E+03  0.7546771E-02  0.1144465E+00
         -1   -1    0    0    0  501 -0.00000000000E+00  0.00000000000E+00  0.58668575607E+02  0.58668575607E+02  0.00000000000E+00 0.  1.
          1   -1    0    0  502    0  0.00000000000E+00 -0.00000000000E+00 -0.23783233154E+04  0.23783233154E+04  0.00000000000E+00 0. -1.
         23    2    1    2    0    0  0.83542281990E+01 -0.22718112703E+02 -0.10724305995E+03  0.14328910080E+03  0.91895520717E+02 0.  0.
         23    2    1    2    0    0 -0.14609606885E+03  0.22561046548E+03 -0.61469815936E+03  0.67727876941E+03  0.92782330757E+02 0.  0.
        -11    1    4    4    0    0 -0.26917488591E+02  0.13059492710E+00 -0.88999736533E+02  0.92981295700E+02  0.00000000000E+00 0.  1.
         11    1    4    4    0    0 -0.11917858026E+03  0.22547987055E+03 -0.52569842283E+03  0.58429747371E+03  0.00000000000E+00 0. -1.
        -13    1    3    3    0    0 -0.19395043272E+02 -0.44445211525E+02 -0.93753945915E+02  0.10555257887E+03  0.00000000000E+00 0. -1.
         13    1    3    3    0    0  0.27749271471E+02  0.21727098822E+02 -0.13489114038E+02  0.37736521937E+02  0.00000000000E+00 0.  1.
         21    1    1    2  502  501  0.13774184065E+03 -0.20289235278E+03 -0.15977135205E+04  0.16164240208E+04  0.00000000000E+00 0.  1.
<scales pt_clust_5="13000.00000" pt_clust_6="13000.00000" pt_clust_7="13000.00000" pt_clust_8="13000.00000" pt_clust_9="250.64059"></scales>
<clustering>
<clus scale="   91.896">  7  8 -1 -1</clus>
<clus scale="   92.782">  5  6 -1 -1</clus>
<clus scale="   95.030">  1  7  2 -1</clus>
<clus scale="  250.641">  2  9  1 -1</clus>
<clus scale="  250.641">  2  5  1 -1</clus>
</clustering>
</event>
<event>
 9    1  0.1266593E-005  0.9168114E+02  0.7546771E-02  0.1299918E+00
          4   -1    0    0  502    0  0.00000000000E+00  0.00000000000E+00  0.76722651987E+02  0.76722651987E+02  0.00000000000E+00 0. -1.
         -4   -1    0    0    0  501 -0.00000000000E+00 -0.00000000000E+00 -0.20172513257E+03  0.20172513257E+03  0.00000000000E+00 0.  1.
         23    2    1    2    0    0 -0.83049375194E+01  0.99012357414E+01 -0.22463129113E+02  0.92517246047E+02  0.88813524816E+02 0.  0.
         23    2    1    2    0    0  0.18644540671E+02  0.11429784528E+02 -0.14035173864E+02  0.94306801014E+02  0.90656095994E+02 0.  0.
        -13    1    3    3    0    0 -0.11796901864E+02 -0.36966021996E+02 -0.23765155403E+02  0.45502047065E+02  0.00000000000E+00 0.  1.
         13    1    3    3    0    0  0.34919643442E+01  0.46867257738E+02  0.13020262899E+01  0.47015198982E+02  0.00000000000E+00 0. -1.
        -13    1    4    4    0    0  0.52225325066E+02  0.22514053750E+02 -0.18435274017E+01  0.56901368945E+02  0.00000000000E+00 0. -1.
         13    1    4    4    0    0 -0.33580784395E+02 -0.11084269222E+02 -0.12191646463E+02  0.37405432069E+02  0.00000000000E+00 0.  1.
         21    1    1    2  502  501 -0.10339603151E+02 -0.21331020269E+02 -0.88504177601E+02  0.91623737491E+02  0.00000000000E+00 0.  1.
<scales pt_clust_5="13000.00000" pt_clust_6="13000.00000" pt_clust_7="13000.00000" pt_clust_8="13000.00000" pt_clust_9="23.70485"></scales>
<clustering>
<clus scale="   23.705">  2  9  1 -1</clus>
<clus scale="   88.814">  5  6 -1 -1</clus>
<clus scale="   89.860">  2  5  1 -1</clus>
<clus scale="   90.656">  7  8 -1 -1</clus>
<clus scale="   91.681">  1  5  2 -1</clus>
</clustering>
</event>
<event>
 9    1  0.1266593E-005  0.2265102E+03  0.7546771E-02  0.1129214E+00
          1   -1    0    0  502    0  0.00000000000E+00  0.00000000000E+00  0.75400693910E+03  0.75400693910E+03  0.00000000000E+00 0. -1.
         -1   -1    0    0    0  501 -0.00000000000E+00 -0.00000000000E+00 -0.75362122794E+02  0.75362122794E+02  0.00000000000E+00 0.  1.
         23    2    1    2    0    0  0.69747693133E+02 -0.18627643849E+03  0.29107749766E+03  0.36443163816E+03  0.92307405015E+02 0.  0.
         23    2    1    2    0    0 -0.62987972405E+02  0.20700825801E+03  0.34829500545E+03  0.42001730853E+03  0.91023211831E+02 0.  0.
        -11    1    4    4    0    0 -0.82528328959E+02  0.14430554008E+03  0.27722764815E+03  0.32324941281E+03  0.00000000000E+00 0. -1.
         11    1    4    4    0    0  0.19540356554E+02  0.62702717929E+02  0.71067357298E+02  0.96767895726E+02  0.00000000000E+00 0.  1.
        -13    1    3    3    0    0  0.60858474496E+02 -0.48375995231E+02  0.75527987011E+02  0.10839034853E+03  0.00000000000E+00 0.  1.
         13    1    3    3    0    0  0.88892186375E+01 -0.13790044326E+03  0.21554951064E+03  0.25604128963E+03  0.00000000000E+00 0. -1.
         21    1    1    2  502  501 -0.67597207284E+01 -0.20731819527E+02  0.39272313193E+02  0.44920115191E+02  0.00000000000E+00 0. -1.
<scales pt_clust_5="13000.00000" pt_clust_6="13000.00000" pt_clust_7="13000.00000" pt_clust_8="13000.00000" pt_clust_9="21.80601"></scales>
<clustering>
<clus scale="   21.806">  1  9  2 -1</clus>
<clus scale="   91.023">  5  6 -1 -1</clus>
<clus scale="   92.307">  7  8 -1 -1</clus>
<clus scale="  225.990">  1  5  2 -1</clus>
<clus scale="   21.806">  1  5  2 -1</clus>
</clustering>
</event>
<event>
 9    1  0.1266593E-005  0.1322942E+03  0.7546771E-02  0.1226279E+00
          2   -1    0    0  502    0  0.00000000000E+00  0.00000000000E+00  0.42879124431E+03  0.42879124431E+03  0.00000000000E+00 0. -1.
         -2   -1    0    0    0  501 -0.00000000000E+00 -0.00000000000E+00 -0.58553982807E+02  0.58553982807E+02  0.00000000000E+00 0.  1.
         23    2    1    2    0    0 -0.59025411393E+02 -0.55051543014E+02  0.11080919264E+03  0.16762812489E+03  0.96466779274E+02 0.  0.
         23    2    1    2    0    0  0.48251500767E+02  0.99216875443E+02  0.20147318255E+03  0.24605963426E+03  0.88213970707E+02 0.  0.
        -11    1    4    4    0    0  0.21655756388E+02 -0.11935904849E+02  0.54757348432E+02  0.60081651247E+02  0.00000000000E+00 0. -1.
         11    1    4    4    0    0  0.26595744379E+02  0.11115278029E+03  0.14671583412E+03  0.18597798301E+03  0.00000000000E+00 0.  1.
        -13    1    3    3    0    0 -0.74056272974E+02 -0.71148724760E+02  0.98970573281E+02  0.14262414584E+03  0.00000000000E+00 0. -1.
         13    1    3    3    0    0  0.15030861581E+02  0.16097181746E+02  0.11838619356E+02  0.25003979049E+02  0.00000000000E+00 0.  1.
         21    1    1    2  502  501  0.10773910625E+02 -0.44165332429E+02  0.57954886318E+02  0.73657467964E+02  0.00000000000E+00 0. -1.
<scales pt_clust_5="13000.00000" pt_clust_6="13000.00000" pt_clust_7="13000.00000" pt_clust_8="13000.00000" pt_clust_9="45.46046"></scales>
<clustering>
<clus scale="   45.460">  1  9  2 -1</clus>
<clus scale="   88.214">  5  6 -1 -1</clus>
<clus scale="   96.467">  7  8 -1 -1</clus>
<clus scale="  126.403">  1  5  2 -1</clus>
<clus scale="   45.460">  1  5  2 -1</clus>
</clustering>
</event>
<event>
 9    1  0.1266593E-005  0.9157579E+02  0.7546771E-02  0.1299892E+00
          2   -1    0    0  502    0  0.00000000000E+00  0.00000000000E+00  0.51266573074E+03  0.51266573074E+03  0.00000000000E+00 0. -1.
         -2   -1    0    0    0  501 -0.00000000000E+00 -0.00000000000E+00 -0.69695381681E+02  0.69695381681E+02  0.00000000000E+00 0.  1.
         23    2    1    2    0    0 -0.85699126364E+01  0.99399260043E+01  0.20158886870E+03  0.22105805126E+03  0.89757141837E+02 0.  0.
         23    2    1    2    0    0 -0.21689838775E+02  0.13835004329E+02  0.28665235303E+03  0.30188629769E+03  0.91125785505E+02 0.  0.
        -11    1    3    3    0    0  0.37614653692E+02 -0.82090812707E+01  0.11480867626E+03  0.12109204488E+03  0.00000000000E+00 0.  1.
         11    1    3    3    0    0 -0.46184566329E+02  0.18149007275E+02  0.86780192442E+02  0.99966006384E+02  0.00000000000E+00 0. -1.
        -11    1    4    4    0    0  0.80080956352E+00  0.50749492165E+02  0.13630302554E+03  0.14544644039E+03  0.00000000000E+00 0. -1.
         11    1    4    4    0    0 -0.22490648339E+02 -0.36914487836E+02  0.15034932749E+03  0.15643985730E+03  0.00000000000E+00 0.  1.
         21    1    1    2  502  501  0.30259751412E+02 -0.23774930333E+02 -0.45270872677E+02  0.59416763466E+02  0.00000000000E+00 0.  1.
<scales pt_clust_5="13000.00000" pt_clust_6="13000.00000" pt_clust_7="13000.00000" pt_clust_8="13000.00000" pt_clust_9="38.48246"></scales>
<clustering>
<clus scale="   38.482">  2  9  1 -1</clus>
<clus scale="   89.757">  5  6 -1 -1</clus>
<clus scale="   90.214">  2  5  1 -1</clus>
<clus scale="   91.126">  7  8 -1 -1</clus>
<clus scale="   91.576">  1  5  2 -1</clus>
</clustering>
</event>
<event>
 9    1  0.1266593E-005  0.1237860E+03  0.7546771E-02  0.1251183E+00
         -2   -1    0    0    0  501 -0.00000000000E+00  0.00000000000E+00  0.34003104217E+02  0.34003104217E+02  0.00000000000E+00 0.  1.
          2   -1    0    0  502    0  0.00000000000E+00 -0.00000000000E+00 -0.46612704547E+03  0.46612704547E+03  0.00000000000E+00 0. -1.
         23    2    1    2    0    0 -0.28468450092E+02  0.19851428615E+02 -0.12816085547E+03  0.15926284415E+03  0.87948375679E+02 0.  0.
         23    2    1    2    0    0  0.80190889134E+01 -0.28557009018E+02 -0.28819454632E+03  0.31361642776E+03  0.12008063407E+03 0.  0.
        -11    1    4    4    0    0  0.55063935257E+02 -0.32536741432E+02 -0.93522884160E+02  0.11330139615E+03  0.00000000000E+00 0.  1.
         11    1    4    4    0    0 -0.47044846343E+02  0.39797324134E+01 -0.19467166216E+03  0.20031503161E+03  0.00000000000E+00 0. -1.
        -11    1    3    3    0    0 -0.55260368723E+02  0.22882253673E+02 -0.54858405361E+02  0.81158798188E+02  0.00000000000E+00 0. -1.
         11    1    3    3    0    0  0.26791918630E+02 -0.30308250572E+01 -0.73302450105E+02  0.78104045963E+02  0.00000000000E+00 0.  1.
         21    1    1    2  502  501  0.20449361179E+02  0.87055804030E+01 -0.15768539462E+02  0.27250877776E+02  0.00000000000E+00 0.  1.
<scales pt_clust_5="13000.00000" pt_clust_6="13000.00000" pt_clust_7="13000.00000" pt_clust_8="13000.00000" pt_clust_9="22.22529"></scales>
<clustering>
<clus scale="   22.225">  1  9  2 -1</clus>
<clus scale="   87.948">  7  8 -1 -1</clus>
<clus scale="   92.944">  1  7  2 -1</clus>
<clus scale="  120.081">  5  6 -1 -1</clus>
<clus scale="  123.786">  2  5  1 -1</clus>
</clustering>
</event>
<event>
 9    1  0.1266593E-005  0.1727866E+03  0.7546771E-02  0.1176332E+00
         -2   -1    0    0    0  501 -0.00000000000E+00  0.00000000000E+00  0.58633417614E+02  0.58633417614E+02  0.00000000000E+00 0.  1.
          2   -1    0    0  502    0  0.00000000000E+00 -0.00000000000E+00 -0.12088406156E+04  0.12088406156E+04  0.00000000000E+00 0. -1.
         23    2    1    2    0    0 -0.47109297041E+01 -0.14655269383E+03 -0.25495475230E+03  0.30900207804E+03  0.94765360686E+02 0.  0.
         23    2    1    2    0    0  0.10202068084E+03  0.11392853308E+03 -0.79848768667E+03  0.81741543416E+03  0.84837941282E+02 0.  0.
        -11    1    3    3    0    0  0.29937232838E+02 -0.75177896074E+02 -0.18982720969E+03  0.20635484852E+03  0.00000000000E+00 0. -1.
         11    1    3    3    0    0 -0.34648162543E+02 -0.71374797761E+02 -0.65127542612E+02  0.10264722953E+03  0.00000000000E+00 0.  1.
        -13    1    4    4    0    0  0.10449463805E+03  0.63368877502E+02 -0.61779601685E+03  0.62976714940E+03  0.00000000000E+00 0. -1.
         13    1    4    4    0    0 -0.24739572146E+01  0.50559655574E+02 -0.18069166981E+03  0.18764828477E+03  0.00000000000E+00 0.  1.
         21    1    1    2  502  501 -0.97309751132E+02  0.32624160759E+02 -0.96764759015E+02  0.14105652100E+03  0.00000000000E+00 0. -1.
<scales pt_clust_5="13000.00000" pt_clust_6="13000.00000" pt_clust_7="13000.00000" pt_clust_8="13000.00000" pt_clust_9="102.63296"></scales>
<clustering>
<clus scale="   84.838">  7  8 -1 -1</clus>
<clus scale="   94.765">  5  6 -1 -1</clus>
<clus scale="  102.633">  1  9  2 -1</clus>
<clus scale="  167.548">  2  7  1 -1</clus>
<clus scale="  167.548">  2  5  1 -1</clus>
</clustering>
</event>
<event>
 9    1  0.1266593E-005  0.1388898E+03  0.7546771E-02  0.1215115E+00
         -2   -1    0    0    0  501 -0.00000000000E+00  0.00000000000E+00  0.20097892053E+03  0.20097892053E+03  0.00000000000E+00 0.  1.
          2   -1    0    0  502    0  0.00000000000E+00 -0.00000000000E+00 -0.28411019211E+03  0.28411019211E+03  0.00000000000E+00 0. -1.
         23    2    1    2    0    0  0.53604274106E+02 -0.74768783561E+02  0.12143425089E+03  0.17870089282E+03  0.93402048197E+02 0.  0.
         23    2    1    2    0    0 -0.73933821598E+02  0.73596000265E+02 -0.23300122381E+03  0.27141315680E+03  0.92157203481E+02 0.  0.
        -11    1    4    4    0    0 -0.27037928437E+02  0.46445002707E+02 -0.20190753870E+03  0.20893741176E+03  0.00000000000E+00 0. -1.
         11    1    4    4    0    0 -0.46895893161E+02  0.27150997557E+02 -0.31093685115E+02  0.62475745036E+02  0.00000000000E+00 0.  1.
        -13    1    3    3    0    0 -0.13854002039E+02 -0.33470971190E+02  0.30878056892E+01  0.36356207570E+02  0.00000000000E+00 0. -1.
         13    1    3    3    0    0  0.67458276145E+02 -0.41297812371E+02  0.11834644520E+03  0.14234468525E+03  0.00000000000E+00 0.  1.
         21    1    1    2  502  501  0.20329547492E+02  0.11727832967E+01  0.28435701349E+02  0.34975063018E+02  0.00000000000E+00 0.  1.
<scales pt_clust_5="13000.00000" pt_clust_6="13000.00000" pt_clust_7="13000.00000" pt_clust_8="13000.00000" pt_clust_9="20.36335"></scales>
<clustering>
<clus scale="   20.363">  1  9  2 -1</clus>
<clus scale="   92.157">  5  6 -1 -1</clus>
<clus scale="   93.402">  7  8 -1 -1</clus>
<clus scale="  138.056">  2  5  1 -1</clus>
<clus scale="  138.056">  2  5  1 -1</clus>
</clustering>
</event>
<event>
 9    1  0.1266593E-005  0.1596260E+03  0.7546771E-02  0.1189154E+00
          1   -1    0    0  502    0  0.00000000000E+00  0.00000000000E+00  0.43339238993E+02  0.43339238993E+02  0.00000000000E+00 0. -1.
         -1   -1    0    0    0  501 -0.00000000000E+00 -0.00000000000E+00 -0.85761827170E+03  0.85761827170E+03  0.00000000000E+00 0.  1.
         23    2    1    2    0    0 -0.32541043278E+02 -0.11419710793E+03 -0.48597597011E+03  0.50852491961E+03  0.91241719500E+02 0.  0.
         23    2    1    2    0    0 -0.94181768063E+00  0.13833784887E+03 -0.21288425406E+03  0.26985453957E+03  0.91452279617E+02 0.  0.
        -11    1    4    4    0    0  0.29366276492E+02  0.31239755298E+02 -0.20342571335E+02  0.47456513932E+02  0.00000000000E+00 0.  1.
         11    1    4    4    0    0 -0.30308094172E+02  0.10709809357E+03 -0.19254168273E+03  0.22239802564E+03  0.00000000000E+00 0. -1.
        -11    1    3    3    0    0  0.35750135674E+01 -0.10719411097E+03 -0.41431663377E+03  0.42797386739E+03  0.00000000000E+00 0.  1.
         11    1    3    3    0    0 -0.36116056846E+02 -0.70029969560E+01 -0.71659336347E+02  0.80551052223E+02  0.00000000000E+00 0. -1.
         21    1    1    2  502  501  0.33482860959E+02 -0.24140740944E+02 -0.11541880853E+03  0.12257805152E+03  0.00000000000E+00 0.  1.
<scales pt_clust_5="13000.00000" pt_clust_6="13000.00000" pt_clust_7="13000.00000" pt_clust_8="13000.00000" pt_clust_9="41.27805"></scales>
<clustering>
<clus scale="   41.278">  2  9  1 -1</clus>
<clus scale="   91.242">  7  8 -1 -1</clus>
<clus scale="   91.452">  5  6 -1 -1</clus>
<clus scale="  159.505">  2  7  1 -1</clus>
<clus scale="  159.626">  1  5  2 -1</clus>
</clustering>
</event>
<event>
 9    1  0.1266593E-005  0.9913144E+02  0.7546771E-02  0.1284202E+00
          1   -1    0    0  502    0  0.00000000000E+00  0.00000000000E+00  0.68888749711E+02  0.68888749711E+02  0.00000000000E+00 0. -1.
         -1   -1    0    0    0  501 -0.00000000000E+00 -0.00000000000E+00 -0.27073032671E+03  0.27073032671E+03  0.00000000000E+00 0.  1.
         23    2    1    2    0    0  0.42161141765E+02 -0.46444912615E+02 -0.64931949849E+02  0.12493944707E+03  0.86365592334E+02 0.  0.
         23    2    1    2    0    0 -0.33527170408E+02 -0.10395733822E+02 -0.46833231147E+02  0.10781915179E+03  0.90550955355E+02 0.  0.
        -11    1    4    4    0    0 -0.57433766700E+02  0.17764725557E+02 -0.30818461762E+02  0.67557387582E+02  0.00000000000E+00 0.  1.
         11    1    4    4    0    0  0.23906596292E+02 -0.28160459379E+02 -0.16014769385E+02  0.40261764208E+02  0.00000000000E+00 0. -1.
        -13    1    3    3    0    0  0.17134403355E+02 -0.12860827748E+02 -0.78139166292E+02  0.81022947228E+02  0.00000000000E+00 0.  1.
         13    1    3    3    0    0  0.25026738410E+02 -0.33584084868E+02  0.13207216443E+02  0.43916499838E+02  0.00000000000E+00 0. -1.
         21    1    1    2  502  501 -0.86339713572E+01  0.56840646437E+02 -0.90076396004E+02  0.10686047757E+03  0.00000000000E+00 0.  1.
<scales pt_clust_5="13000.00000" pt_clust_6="13000.00000" pt_clust_7="13000.00000" pt_clust_8="13000.00000" pt_clust_9="57.49265"></scales>
<clustering>
<clus scale="   57.493">  2  9  1 -1</clus>
<clus scale="   86.366">  7  8 -1 -1</clus>
<clus scale="   90.551">  5  6 -1 -1</clus>
<clus scale="   95.324">  2  7  1 -1</clus>
<clus scale="   99.131">  1  5  2 -1</clus>
</clustering>
</event>
<event>
 9    1  0.1266593E-005  0.1358436E+03  0.7546771E-02  0.1219842E+00
          1   -1    0    0  502    0  0.00000000000E+00  0.00000000000E+00  0.24665609349E+03  0.24665609349E+03  0.00000000000E+00 0. -1.
         -1   -1    0    0    0  501 -0.00000000000E+00 -0.00000000000E+00 -0.18695451497E+03  0.18695451497E+03  0.00000000000E+00 0.  1.
         23    2    1    2    0    0 -0.64269425574E+02  0.57648614305E+02  0.43476494850E+02  0.13459846362E+03  0.93662260333E+02 0.  0.
         23    2    1    2    0    0  0.48195577987E+02 -0.92241471312E+02  0.12150193173E+03  0.18703782157E+03  0.96897494894E+02 0.  0.
        -13    1    3    3    0    0 -0.63325058645E+01  0.48584216000E+02 -0.15540554692E+02  0.51400734577E+02  0.00000000000E+00 0.  1.
         13    1    3    3    0    0 -0.57936919710E+02  0.90643983046E+01  0.59017049542E+02  0.83197729047E+02  0.00000000000E+00 0. -1.
        -13    1    4    4    0    0  0.39262875530E+02 -0.11277934253E+02  0.11084925183E+00  0.40850672986E+02  0.00000000000E+00 0.  1.
         13    1    4    4    0    0  0.89327024568E+01 -0.80963537059E+02  0.12139108248E+03  0.14618714858E+03  0.00000000000E+00 0. -1.
         21    1    1    2  502  501  0.16073847588E+02  0.34592857007E+02 -0.10527684807E+03  0.11197432327E+03  0.00000000000E+00 0.  1.
<scales pt_clust_5="13000.00000" pt_clust_6="13000.00000" pt_clust_7="13000.00000" pt_clust_8="13000.00000" pt_clust_9="38.14491"></scales>
<clustering>
<clus scale="   38.145">  2  9  1 -1</clus>
<clus scale="   93.662">  5  6 -1 -1</clus>
<clus scale="   96.897">  7  8 -1 -1</clus>
<clus scale="  133.555">  2  5  1 -1</clus>
<clus scale="  135.844">  1  5  2 -1</clus>
</clustering>
</event>
<event>
 9    1  0.1266593E-005  0.9845599E+02  0.7546771E-02  0.1286633E+00
         -1   -1    0    0    0  501 -0.00000000000E+00  0.00000000000E+00  0.22915791286E+03  0.22915791286E+03  0.00000000000E+00 0.  1.
          1   -1    0    0  502    0  0.00000000000E+00 -0.00000000000E+00 -0.49499712665E+03  0.49499712665E+03  0.00000000000E+00 0. -1.
         23    2    1    2    0    0 -0.33199066458E+02  0.31022470914E+02  0.19713026355E+03  0.22199500531E+03  0.91415916899E+02 0.  0.
         23    2    1    2    0    0  0.12406974558E+02 -0.10168012341E+02 -0.46236324204E+03  0.47270520353E+03  0.97021236699E+02 0.  0.
        -11    1    4    4    0    0 -0.35318083389E+02 -0.30283252279E+02 -0.21360156349E+03  0.21860940123E+03  0.00000000000E+00 0. -1.
         11    1    4    4    0    0  0.47725057947E+02  0.20115239937E+02 -0.24876167855E+03  0.25409580230E+03  0.00000000000E+00 0.  1.
        -11    1    3    3    0    0  0.28676394683E+02  0.27168317451E+02  0.65373905156E+02  0.76381938706E+02  0.00000000000E+00 0.  1.
         11    1    3    3    0    0 -0.61875461140E+02  0.38541534627E+01  0.13175635839E+03  0.14561306661E+03  0.00000000000E+00 0. -1.
         21    1    1    2  502  501  0.20792091900E+02 -0.20854458572E+02 -0.60623530701E+00  0.29454830659E+02  0.00000000000E+00 0.  1.
<scales pt_clust_5="13000.00000" pt_clust_6="13000.00000" pt_clust_7="13000.00000" pt_clust_8="13000.00000" pt_clust_9="29.44859"></scales>
<clustering>
<clus scale="   29.449">  1  9  2 -1</clus>
<clus scale="   91.416">  7  8 -1 -1</clus>
<clus scale="   92.937">  1  7  2 -1</clus>
<clus scale="   97.021">  5  6 -1 -1</clus>
<clus scale="   98.456">  2  5  1 -1</clus>
</clustering>
</event>
<event>
 9    1  0.1266593E-005  0.1937800E+03  0.7546771E-02  0.1155494E+00
          1   -1    0    0  502    0  0.00000000000E+00  0.00000000000E+00  0.84471150982E+03  0.84471150982E+03  0.00000000000E+00 0. -1.
         -1   -1    0    0    0  501 -0.00000000000E+00 -0.00000000000E+00 -0.31899786055E+03  0.31899786055E+03  0.00000000000E+00 0.  1.
         23    2    1    2    0    0  0.14097212181E+03 -0.40536160614E+02 -0.22211222695E+03  0.28155594000E+03  0.91780098845E+02 0.  0.
         23    2    1    2    0    0 -0.14738230888E+03  0.88655042738E+02  0.79279228324E+03  0.81598323259E+03  0.87907735266E+02 0.  0.
        -11    1    4    4    0    0 -0.17454532060E+02  0.28696275439E+02  0.55019576639E+02  0.64461544560E+02  0.00000000000E+00 0.  1.
         11    1    4    4    0    0 -0.12992777682E+03  0.59958767300E+02  0.73777270660E+03  0.75152168803E+03  0.00000000000E+00 0. -1.
        -11    1    3    3    0    0  0.10497698990E+03 -0.40986101364E+02 -0.21789400741E+03  0.24531169434E+03  0.00000000000E+00 0.  1.
         11    1    3    3    0    0  0.35995131902E+02  0.44994075029E+00 -0.42182195390E+01  0.36244245659E+02  0.00000000000E+00 0. -1.
         21    1    1    2  502  501  0.64101870701E+01 -0.48118882124E+02 -0.44966407020E+02  0.66170197789E+02  0.00000000000E+00 0. -1.
<scales pt_clust_5="13000.00000" pt_clust_6="13000.00000" pt_clust_7="13000.00000" pt_clust_8="13000.00000" pt_clust_9="48.54397"></scales>
<clustering>
<clus scale="   48.544">  2  9  1 -1</clus>
<clus scale="   87.908">  5  6 -1 -1</clus>
<clus scale="   91.780">  7  8 -1 -1</clus>
<clus scale="  191.976">  1  5  2 -1</clus>
<clus scale="  191.976">  1  5  2 -1</clus>
</clustering>
</event>
<event>
 9    1  0.1266593E-005  0.9733444E+02  0.7546771E-02  0.1286085E+00
         -3   -1    0    0    0  501 -0.00000000000E+00  0.00000000000E+00  0.56541539127E+03  0.56541539127E+03  0.00000000000E+00 0.  1.
          3   -1    0    0  502    0  0.00000000000E+00 -0.00000000000E+00 -0.46555755465E+02  0.46555755465E+02  0.00000000000E+00 0. -1.
         23    2    1    2    0    0  0.21006375411E+02 -0.33523312869E+02  0.40250430290E+03  0.41462970812E+03  0.91340027848E+02 0.  0.
         23    2    1    2    0    0 -0.31401522480E+02  0.12346523353E+02  0.21468289786E+02  0.99565846322E+02  0.91181017951E+02 0.  0.
        -11    1    3    3    0    0  0.54530251161E+02 -0.36569292924E+02  0.27884943686E+03  0.28647490277E+03  0.00000000000E+00 0.  1.
         11    1    3    3    0    0 -0.33523875751E+02  0.30459800548E+01  0.12365486604E+03  0.12815480536E+03  0.00000000000E+00 0. -1.
        -13    1    4    4    0    0 -0.50690256991E+02 -0.12216551741E+02 -0.12296281642E+02  0.53571866054E+02  0.00000000000E+00 0. -1.
         13    1    4    4    0    0  0.19288734512E+02  0.24563075095E+02  0.33764571428E+02  0.45993980268E+02  0.00000000000E+00 0.  1.
         21    1    1    2  502  501  0.10395147069E+02  0.21176789516E+02  0.94887043113E+02  0.97775592290E+02  0.00000000000E+00 0. -1.
<scales pt_clust_5="13000.00000" pt_clust_6="13000.00000" pt_clust_7="13000.00000" pt_clust_8="13000.00000" pt_clust_9="23.59058"></scales>
<clustering>
<clus scale="   23.591">  1  9  2 -1</clus>
<clus scale="   91.181">  7  8 -1 -1</clus>
<clus scale="   91.340">  5  6 -1 -1</clus>
<clus scale="   97.185">  2  7  1 -1</clus>
<clus scale="   97.185">  2  5  1 -1</clus>
</clustering>
</event>
<event>
 9    1  0.1266593E-005  0.3103503E+03  0.7546771E-02  0.1122168E+00
          1   -1    0    0  502    0  0.00000000000E+00  0.00000000000E+00  0.98653079498E+02  0.98653079498E+02  0.00000000000E+00 0. -1.
         -1   -1    0    0    0  501 -0.00000000000E+00 -0.00000000000E+00 -0.17358899883E+04  0.17358899883E+04  0.00000000000E+00 0.  1.
         23    2    1    2    0    0 -0.99821336326E+02 -0.29648091264E+03 -0.11929962551E+04  0.12367132570E+04  0.91402323433E+02 0.  0.
         23    2    1    2    0    0  0.24625141341E+02  0.40219378813E+02 -0.37242591102E+02  0.11103225077E+03  0.93365700877E+02 0.  0.
        -11    1    3    3    0    0 -0.31057446121E+02 -0.21628426344E+03 -0.74156498094E+03  0.77308606800E+03  0.00000000000E+00 0.  1.
         11    1    3    3    0    0 -0.68763890205E+02 -0.80196649193E+02 -0.45143127411E+03  0.46362718901E+03  0.00000000000E+00 0. -1.
        -11    1    4    4    0    0  0.59423271384E+02  0.19361165794E+02 -0.13212795107E+02  0.63879244496E+02  0.00000000000E+00 0.  1.
         11    1    4    4    0    0 -0.34798130043E+02  0.20858213019E+02 -0.24029795994E+02  0.47153006271E+02  0.00000000000E+00 0. -1.
         21    1    1    2  502  501  0.75196194985E+02  0.25626153382E+03 -0.40699806268E+03  0.48679756006E+03  0.00000000000E+00 0. -1.
<scales pt_clust_5="13000.00000" pt_clust_6="13000.00000" pt_clust_7="13000.00000" pt_clust_8="13000.00000" pt_clust_9="296.58544"></scales>
<clustering>
<clus scale="   91.402">  5  6 -1 -1</clus>
<clus scale="   93.366">  7  8 -1 -1</clus>
<clus scale="  104.600">  1  7  2 -1</clus>
<clus scale="  296.585">  1  9  2 -1</clus>
<clus scale="  104.600">  1  5  2 -1</clus>
</clustering>
</event>
<event>
 9    1  0.1266593E-005  0.1451068E+03  0.7546771E-02  0.1206689E+00
         -1   -1    0    0    0  501 -0.00000000000E+00  0.00000000000E+00  0.10587661793E+03  0.10587661793E+03  0.00000000000E+00 0.  1.
          1   -1    0    0  502    0  0.00000000000E+00 -0.00000000000E+00 -0.62145728816E+03  0.62145728816E+03  0.00000000000E+00 0. -1.
         23    2    1    2    0    0  0.17282930091E+03  0.36039877674E+02 -0.22369651890E+03  0.29914934534E+03  0.91001968164E+02 0.  0.
         23    2    1    2    0    0 -0.83921384833E+02 -0.36938850677E+02 -0.31133633175E+03  0.33716910593E+03  0.91353253906E+02 0.  0.
        -11    1    3    3    0    0  0.10972298264E+03 -0.16697859765E+02 -0.16184930598E+03  0.19624767333E+03  0.00000000000E+00 0. -1.
         11    1    3    3    0    0  0.63106318271E+02  0.52737737439E+02 -0.61847212921E+02  0.10290167201E+03  0.00000000000E+00 0.  1.
        -13    1    4    4    0    0 -0.29282807905E+02  0.26331779499E+02 -0.15454787851E+03  0.15948633860E+03  0.00000000000E+00 0.  1.
         13    1    4    4    0    0 -0.54638576929E+02 -0.63270630176E+02 -0.15678845325E+03  0.17768276732E+03  0.00000000000E+00 0. -1.
         21    1    1    2  502  501 -0.88907916080E+02  0.89897300251E+00  0.19452180431E+02  0.91015454829E+02  0.00000000000E+00 0.  1.
<scales pt_clust_5="13000.00000" pt_clust_6="13000.00000" pt_clust_7="13000.00000" pt_clust_8="13000.00000" pt_clust_9="88.91246"></scales>
<clustering>
<clus scale="   88.912">  1  9  2 -1</clus>
<clus scale="   91.002">  5  6 -1 -1</clus>
<clus scale="   91.353">  7  8 -1 -1</clus>
<clus scale="  144.886">  1  5  2 -1</clus>
<clus scale="  145.107">  2  5  1 -1</clus>
</clustering>
</event>
<event>
 9    1  0.1266593E-005  0.1089180E+03  0.7546771E-02  0.1271518E+00
          1   -1    0    0  502    0  0.00000000000E+00  0.00000000000E+00  0.93397156347E+02  0.93397156347E+02  0.00000000000E+00 0. -1.
         -1   -1    0    0    0  501 -0.00000000000E+00 -0.00000000000E+00 -0.20820889738E+03  0.20820889738E+03  0.00000000000E+00 0.  1.
         23    2    1    2    0    0  0.15316249654E+02  0.55538343785E+02 -0.10621147470E+03  0.14637059067E+03  0.82609789496E+02 0.  0.
         23    2    1    2    0    0 -0.18410901369E+02 -0.28667598090E+02  0.27098840205E+02  0.11044662459E+03  0.10150525737E+03 0.  0.
        -11    1    3    3    0    0  0.39918142215E+02  0.22080644878E+02 -0.18315589461E+02  0.49157642065E+02  0.00000000000E+00 0. -1.
         11    1    3    3    0    0 -0.24601892561E+02  0.33457698907E+02 -0.87895885244E+02  0.97212948605E+02  0.00000000000E+00 0.  1.
        -13    1    4    4    0    0 -0.34614624737E+02  0.29908809123E+02  0.61315353305E+01  0.46155225429E+02  0.00000000000E+00 0.  1.
         13    1    4    4    0    0  0.16203723368E+02 -0.58576407213E+02  0.20967304874E+02  0.64291399166E+02  0.00000000000E+00 0. -1.
         21    1    1    2  502  501  0.30946517155E+01 -0.26870745695E+02 -0.35699106534E+02  0.44788838462E+02  0.00000000000E+00 0.  1.
<scales pt_clust_5="13000.00000" pt_clust_6="13000.00000" pt_clust_7="13000.00000" pt_clust_8="13000.00000" pt_clust_9="27.04836"></scales>
<clustering>
<clus scale="   27.048">  2  9  1 -1</clus>
<clus scale="   82.610">  5  6 -1 -1</clus>
<clus scale="   91.565">  2  5  1 -1</clus>
<clus scale="  101.505">  7  8 -1 -1</clus>
<clus scale="  108.918">  1  5  2 -1</clus>
</clustering>
</event>
<event>
 9    1  0.1266593E-005  0.9162836E+02  0.7546771E-02  0.1302098E+00
         -1   -1    0    0    0  501 -0.00000000000E+00  0.00000000000E+00  0.20082042712E+03  0.20082042712E+03  0.00000000000E+00 0.  1.
          1   -1    0    0  502    0  0.00000000000E+00 -0.00000000000E+00 -0.70494651676E+02  0.70494651676E+02  0.00000000000E+00 0. -1.
         23    2    1    2    0    0 -0.12019902940E+02  0.37344015634E+01  0.96071965076E+02  0.13312802618E+03  0.91295263071E+02 0.  0.
         23    2    1    2    0    0 -0.81095445191E+01  0.10936887319E+02 -0.96352450619E+01  0.87722306911E+02  0.86121919195E+02 0.  0.
        -11    1    4    4    0    0 -0.28112493736E+02 -0.14319555794E+02  0.25121972134E+02  0.40329585494E+02  0.00000000000E+00 0.  1.
         11    1    4    4    0    0  0.20002949217E+02  0.25256443113E+02 -0.34757217196E+02  0.47392721417E+02  0.00000000000E+00 0. -1.
        -13    1    3    3    0    0 -0.15885319882E+01  0.36138174831E+02  0.91985244862E+02  0.98842179186E+02  0.00000000000E+00 0.  1.
         13    1    3    3    0    0 -0.10431370952E+02 -0.32403773268E+02  0.40867202138E+01  0.34285846993E+02  0.00000000000E+00 0. -1.
         21    1    1    2  502  501  0.20129447459E+02 -0.14671288882E+02  0.43889055426E+02  0.50464745701E+02  0.00000000000E+00 0. -1.
<scales pt_clust_5="13000.00000" pt_clust_6="13000.00000" pt_clust_7="13000.00000" pt_clust_8="13000.00000" pt_clust_9="24.90866"></scales>
<clustering>
<clus scale="   24.909">  1  9  2 -1</clus>
<clus scale="   86.122">  5  6 -1 -1</clus>
<clus scale="   86.475">  2  5  1 -1</clus>
<clus scale="   91.295">  7  8 -1 -1</clus>
<clus scale="   86.475">  2  5  1 -1</clus>
</clustering>
</event>
<event>
 9    1  0.1266593E-005  0.1434162E+03  0.7546771E-02  0.1209276E+00
          2   -1    0    0  502    0  0.00000000000E+00  0.00000000000E+00  0.10178294023E+04  0.10178294023E+04  0.00000000000E+00 0. -1.
         -2   -1    0    0    0  501 -0.00000000000E+00 -0.00000000000E+00 -0.26139003545E+02  0.26139003545E+02  0.00000000000E+00 0.  1.
         23    2    1    2    0    0  0.31900324889E+02  0.12303289764E+03  0.49356831098E+03  0.51804330575E+03  0.92760252259E+02 0.  0.
         23    2    1    2    0    0 -0.22257792248E+02 -0.92972351062E+02  0.44562917266E+03  0.46467054081E+03  0.90521183119E+02 0.  0.
        -11    1    3    3    0    0  0.40279554064E+02  0.74382380138E+02  0.42625918702E+03  0.43457113971E+03  0.00000000000E+00 0.  1.
         11    1    3    3    0    0 -0.83792291753E+01  0.48650517507E+02  0.67309123960E+02  0.83472166041E+02  0.00000000000E+00 0. -1.
        -13    1    4    4    0    0 -0.16663153519E+02  0.15667486957E+02  0.77817339972E+02  0.81108996006E+02  0.00000000000E+00 0.  1.
         13    1    4    4    0    0 -0.55946387289E+01 -0.10863983802E+03  0.36781183269E+03  0.38356154481E+03  0.00000000000E+00 0. -1.
         21    1    1    2  502  501 -0.96425326409E+01 -0.30060546583E+02  0.52492915158E+02  0.61254559327E+02  0.00000000000E+00 0.  1.
<scales pt_clust_5="13000.00000" pt_clust_6="13000.00000" pt_clust_7="13000.00000" pt_clust_8="13000.00000" pt_clust_9="31.56921"></scales>
<clustering>
<clus scale="   31.569">  2  9  1 -1</clus>
<clus scale="   90.521">  7  8 -1 -1</clus>
<clus scale="   92.760">  5  6 -1 -1</clus>
<clus scale="  141.978">  1  7  2 -1</clus>
<clus scale="  141.978">  1  5  2 -1</clus>
</clustering>
</event>
<event>
 9    1  0.1266593E-005  0.9844265E+02  0.7546771E-02  0.1285273E+00
          3   -1    0    0  502    0  0.00000000000E+00  0.00000000000E+00  0.55009848055E+02  0.55009848055E+02  0.00000000000E+00 0. -1.
         -3   -1    0    0    0  501 -0.00000000000E+00 -0.00000000000E+00 -0.21098490358E+03  0.21098490358E+03  0.00000000000E+00 0.  1.
         23    2    1    2    0    0 -0.96733910754E+01  0.28695616264E+02 -0.71912443611E+02  0.12233060400E+03  0.94214458767E+02 0.  0.
         23    2    1    2    0    0 -0.10866653814E+02 -0.28371486580E+02 -0.69726447534E+02  0.11861371624E+03  0.91018738610E+02 0.  0.
        -11    1    3    3    0    0 -0.15460230991E+02  0.53069400758E+02 -0.10851557373E+02  0.56330598582E+02  0.00000000000E+00 0. -1.
         11    1    3    3    0    0  0.57868399158E+01 -0.24373784494E+02 -0.61060886238E+02  0.66000005417E+02  0.00000000000E+00 0.  1.
        -13    1    4    4    0    0 -0.28859508289E+02  0.24252339432E+02 -0.14950021641E+02  0.40553055788E+02  0.00000000000E+00 0.  1.
         13    1    4    4    0    0  0.17992854476E+02 -0.52623826012E+02 -0.54776425893E+02  0.78060660450E+02  0.00000000000E+00 0. -1.
         21    1    1    2  502  501  0.20540044889E+02 -0.32412968409E+00 -0.14336164377E+02  0.25050431396E+02  0.00000000000E+00 0.  1.
<scales pt_clust_5="13000.00000" pt_clust_6="13000.00000" pt_clust_7="13000.00000" pt_clust_8="13000.00000" pt_clust_9="20.54260"></scales>
<clustering>
<clus scale="   20.543">  1  9  2 -1</clus>
<clus scale="   91.019">  7  8 -1 -1</clus>
<clus scale="   94.214">  5  6 -1 -1</clus>
<clus scale="   95.389">  1  7  2 -1</clus>
<clus scale="   20.543">  1  5  2 -1</clus>
</clustering>
</event>
<event>
 9    1  0.1266593E-005  0.1060164E+03  0.7546771E-02  0.1274481E+00
          1   -1    0    0  502    0  0.00000000000E+00  0.00000000000E+00  0.24610685021E+03  0.24610685021E+03  0.00000000000E+00 0. -1.
         -1   -1    0    0    0  501 -0.00000000000E+00 -0.00000000000E+00 -0.33057727979E+03  0.33057727979E+03  0.00000000000E+00 0.  1.
         23    2    1    2    0    0  0.27700967295E+01 -0.60776480140E+01 -0.17453645448E+03  0.20235729135E+03  0.10218066442E+03 0.  0.
         23    2    1    2    0    0 -0.29353336317E+02 -0.38080098830E+01  0.22106226887E+03  0.24029545875E+03  0.89427409047E+02 0.  0.
        -11    1    3    3    0    0  0.45262911464E+02  0.48427139502E+01 -0.13783322302E+03  0.14515571088E+03  0.00000000000E+00 0.  1.
         11    1    3    3    0    0 -0.42492814734E+02 -0.10920361964E+02 -0.36703231456E+02  0.57201580474E+02  0.00000000000E+00 0. -1.
        -13    1    4    4    0    0 -0.18499001414E+02  0.42252934875E+02  0.93997698671E+02  0.10470477981E+03  0.00000000000E+00 0. -1.
         13    1    4    4    0    0 -0.10854334902E+02 -0.46060944758E+02  0.12706457020E+03  0.13559067895E+03  0.00000000000E+00 0.  1.
         21    1    1    2  502  501  0.26583239587E+02  0.98856578970E+01 -0.13099624397E+03  0.13403137989E+03  0.00000000000E+00 0.  1.
<scales pt_clust_5="13000.00000" pt_clust_6="13000.00000" pt_clust_7="13000.00000" pt_clust_8="13000.00000" pt_clust_9="28.36186"></scales>
<clustering>
<clus scale="   28.362">  2  9  1 -1</clus>
<clus scale="   89.427">  7  8 -1 -1</clus>
<clus scale="   93.786">  1  7  2 -1</clus>
<clus scale="  102.181">  5  6 -1 -1</clus>
<clus scale="   93.786">  1  5  2 -1</clus>
</clustering>
</event>
<event>
 9    1  0.1266593E-005  0.1139534E+03  0.7546771E-02  0.1253941E+00
         -1   -1    0    0    0  501 -0.00000000000E+00  0.00000000000E+00  0.37274664653E+02  0.37274664653E+02  0.00000000000E+00 0.  1.
          1   -1    0    0  502    0  0.00000000000E+00 -0.00000000000E+00 -0.48372401786E+03  0.48372401786E+03  0.00000000000E+00 0. -1.
         23    2    1    2    0    0  0.70551686539E+02 -0.33971776680E+01 -0.16757976457E+03  0.20340892380E+03  0.91121520490E+02 0.  0.
         23    2    1    2    0    0 -0.59528973080E+02 -0.32051581250E+02 -0.21771419310E+03  0.24604888142E+03  0.92572024259E+02 0.  0.
        -13    1    4    4    0    0  0.17448667084E+02 -0.33281628547E+02 -0.75395168996E+02  0.84241048721E+02  0.00000000000E+00 0.  1.
         13    1    4    4    0    0 -0.76977640164E+02  0.12300472968E+01 -0.14231902410E+03  0.16180783270E+03  0.00000000000E+00 0. -1.
        -13    1    3    3    0    0  0.42077003499E+02 -0.26220386835E+01 -0.10070607062E+02  0.43344739438E+02  0.00000000000E+00 0.  1.
         13    1    3    3    0    0  0.28474683039E+02 -0.77513898443E+00 -0.15750915751E+03  0.16006418436E+03  0.00000000000E+00 0. -1.
         21    1    1    2  502  501 -0.11022713459E+02  0.35448758918E+02 -0.61155395536E+02  0.71540877294E+02  0.00000000000E+00 0.  1.
<scales pt_clust_5="13000.00000" pt_clust_6="13000.00000" pt_clust_7="13000.00000" pt_clust_8="13000.00000" pt_clust_9="37.12297"></scales>
<clustering>
<clus scale="   37.123">  1  9  2 -1</clus>
<clus scale="   91.122">  7  8 -1 -1</clus>
<clus scale="   92.572">  5  6 -1 -1</clus>
<clus scale="  112.778">  1  7  2 -1</clus>
<clus scale="  113.953">  2  5  1 -1</clus>
</clustering>
</event>
<event>
 9    1  0.1266593E-005  0.1112211E+03  0.7546771E-02  0.1259103E+00
         -1   -1    0    0    0  501 -0.00000000000E+00  0.00000000000E+00  0.20007507828E+03  0.20007507828E+03  0.00000000000E+00 0.  1.
          1   -1    0    0  502    0  0.00000000000E+00 -0.00000000000E+00 -0.33206454951E+03  0.33206454951E+03  0.00000000000E+00 0. -1.
         23    2    1    2    0    0 -0.67733489029E+02  0.10204870856E+02 -0.12440498693E+02  0.11542018466E+03  0.92060241661E+02 0.  0.
         23    2    1    2    0    0  0.60456046325E+02  0.13205276855E+02 -0.25587102404E+03  0.27821060618E+03  0.90010263710E+02 0.  0.
        -11    1    3    3    0    0 -0.49259868892E+02 -0.21756253170E+02 -0.41867152073E+02  0.68210905711E+02  0.00000000000E+00 0.  1.
         11    1    3    3    0    0 -0.18473620137E+02  0.31961124026E+02  0.29426653380E+02  0.47209278952E+02  0.00000000000E+00 0. -1.
        -11    1    4    4    0    0  0.46953782685E+02 -0.48911233805E+01 -0.25062279036E+03  0.25503012340E+03  0.00000000000E+00 0. -1.
         11    1    4    4    0    0  0.13502263640E+02  0.18096400235E+02 -0.52482336805E+01  0.23180482774E+02  0.00000000000E+00 0.  1.
         21    1    1    2  502  501  0.72774427045E+01 -0.23410147711E+02  0.13632205150E+03  0.13850883695E+03  0.00000000000E+00 0.  1.
<scales pt_clust_5="13000.00000" pt_clust_6="13000.00000" pt_clust_7="13000.00000" pt_clust_8="13000.00000" pt_clust_9="24.51522"></scales>
<clustering>
<clus scale="   24.515">  1  9  2 -1</clus>
<clus scale="   90.010">  7  8 -1 -1</clus>
<clus scale="   92.060">  5  6 -1 -1</clus>
<clus scale="  109.530">  2  7  1 -1</clus>
<clus scale="  109.530">  2  5  1 -1</clus>
</clustering>
</event>
<event>
 9    1  0.1266593E-005  0.1008491E+03  0.7546771E-02  0.1280220E+00
          1   -1    0    0  502    0  0.00000000000E+00  0.00000000000E+00  0.49249336422E+03  0.49249336422E+03  0.00000000000E+00 0. -1.
         -1   -1    0    0    0  501 -0.00000000000E+00 -0.00000000000E+00 -0.37860519354E+02  0.37860519354E+02  0.00000000000E+00 0.  1.
         23    2    1    2    0    0  0.59242551494E+01 -0.35854408954E+02  0.19221947474E+03  0.21701867748E+03  0.93958205947E+02 0.  0.
         23    2    1    2    0    0  0.16699522611E+02  0.35915875865E+02  0.27153067989E+03  0.28894331327E+03  0.90501403124E+02 0.  0.
        -13    1    4    4    0    0 -0.15287167116E+02 -0.22040078988E+02  0.12943221730E+03  0.13218230379E+03  0.00000000000E+00 0.  1.
         13    1    4    4    0    0  0.31986689727E+02  0.57955954853E+02  0.14209846259E+03  0.15676100948E+03  0.00000000000E+00 0. -1.
        -13    1    3    3    0    0 -0.38024570129E+02 -0.84664594000E+01  0.38334055484E+02  0.54653899020E+02  0.00000000000E+00 0.  1.
         13    1    3    3    0    0  0.43948825279E+02 -0.27387949554E+02  0.15388541926E+03  0.16236477846E+03  0.00000000000E+00 0. -1.
         21    1    1    2  502  501 -0.22623777760E+02 -0.61466911441E-01 -0.91173097638E+01  0.24391892826E+02  0.00000000000E+00 0.  1.
<scales pt_clust_5="13000.00000" pt_clust_6="13000.00000" pt_clust_7="13000.00000" pt_clust_8="13000.00000" pt_clust_9="22.62386"></scales>
<clustering>
<clus scale="   22.624">  2  9  1 -1</clus>
<clus scale="   90.501">  5  6 -1 -1</clus>
<clus scale="   93.958">  7  8 -1 -1</clus>
<clus scale="   97.637">  1  5  2 -1</clus>
<clus scale="   97.637">  1  5  2 -1</clus>
</clustering>
</event>
<event>
 9    1  0.1266593E-005  0.1450133E+03  0.7546771E-02  0.1214027E+00
         -2   -1    0    0    0  501 -0.00000000000E+00  0.00000000000E+00  0.20273658108E+03  0.20273658108E+03  0.00000000000E+00 0.  1.
          2   -1    0    0  502    0  0.00000000000E+00 -0.00000000000E+00 -0.60735559881E+03  0.60735559881E+03  0.00000000000E+00 0. -1.
         23    2    1    2    0    0 -0.34825924627E+02  0.90423174432E+02  0.67679689384E+02  0.16768749126E+03  0.11895107764E+03 0.  0.
         23    2    1    2    0    0  0.50597196175E+02 -0.64975925611E+02 -0.54758209154E+03  0.56138689151E+03  0.92342556914E+02 0.  0.
        -11    1    4    4    0    0  0.75299840491E+02 -0.31464142466E+02 -0.38547978411E+03  0.39402375841E+03  0.00000000000E+00 0. -1.
         11    1    4    4    0    0 -0.24702644316E+02 -0.33511783145E+02 -0.16210230743E+03  0.16736313310E+03  0.00000000000E+00 0.  1.
        -11    1    3    3    0    0 -0.78761911961E+02  0.48845412049E+02  0.45642101055E+02  0.10330786244E+03  0.00000000000E+00 0.  1.
         11    1    3    3    0    0  0.43935987334E+02  0.41577762383E+02  0.22037588329E+02  0.64379628821E+02  0.00000000000E+00 0. -1.
         21    1    1    2  502  501 -0.15771271548E+02 -0.25447248821E+02  0.75283384425E+02  0.81017797115E+02  0.00000000000E+00 0. -1.
<scales pt_clust_5="13000.00000" pt_clust_6="13000.00000" pt_clust_7="13000.00000" pt_clust_8="13000.00000" pt_clust_9="29.93819"></scales>
<clustering>
<clus scale="   29.938">  1  9  2 -1</clus>
<clus scale="   92.343">  5  6 -1 -1</clus>
<clus scale="  118.951">  7  8 -1 -1</clus>
<clus scale="  124.123">  2  5  1 -1</clus>
<clus scale="  124.123">  2  5  1 -1</clus>
</clustering>
</event>
<event>
 9    1  0.1266593E-005  0.1365986E+03  0.7546771E-02  0.1218099E+00
         -2   -1    0    0    0  501 -0.00000000000E+00  0.00000000000E+00  0.13819809036E+03  0.13819809036E+03  0.00000000000E+00 0.  1.
          2   -1    0    0  502    0  0.00000000000E+00 -0.00000000000E+00 -0.37513550525E+03  0.37513550525E+03  0.00000000000E+00 0. -1.
         23    2    1    2    0    0 -0.61220832542E+02 -0.48366894293E+02  0.79857062221E+02  0.14445358959E+03  0.91664291626E+02 0.  0.
         23    2    1    2    0    0  0.83096313177E+02  0.62214567746E+02 -0.31340007890E+03  0.34276838691E+03  0.92167824658E+02 0.  0.
        -11    1    4    4    0    0  0.26711401802E+02 -0.23506340699E+02 -0.67062296747E+02  0.75917051341E+02  0.00000000000E+00 0.  1.
         11    1    4    4    0    0  0.56384911374E+02  0.85720908445E+02 -0.24633778216E+03  0.26685133557E+03  0.00000000000E+00 0. -1.
        -11    1    3    3    0    0 -0.32284431834E+02  0.25041674399E+02  0.20485555902E+02  0.45705885793E+02  0.00000000000E+00 0. -1.
         11    1    3    3    0    0 -0.28936400708E+02 -0.73408568692E+02  0.59371506319E+02  0.98747703800E+02  0.00000000000E+00 0.  1.
         21    1    1    2  502  501 -0.21875480635E+02 -0.13847673453E+02 -0.33943982074E+01  0.26111619105E+02  0.00000000000E+00 0.  1.
<scales pt_clust_5="13000.00000" pt_clust_6="13000.00000" pt_clust_7="13000.00000" pt_clust_8="13000.00000" pt_clust_9="25.89005"></scales>
<clustering>
<clus scale="   25.890">  1  9  2 -1</clus>
<clus scale="   91.664">  7  8 -1 -1</clus>
<clus scale="   92.168">  5  6 -1 -1</clus>
<clus scale="  136.259">  1  7  2 -1</clus>
<clus scale="  136.599">  2  5  1 -1</clus>
</clustering>
</event>
<event>
 9    1  0.1266593E-005  0.1410689E+03  0.7546771E-02  0.1211970E+00
          2   -1    0    0  502    0  0.00000000000E+00  0.00000000000E+00  0.21636652201E+03  0.21636652201E+03  0.00000000000E+00 0. -1.
         -2   -1    0    0    0  501 -0.00000000000E+00 -0.00000000000E+00 -0.17921274877E+03  0.17921274877E+03  0.00000000000E+00 0.  1.
         23    2    1    2    0    0  0.86677270411E+02 -0.39596102625E+02 -0.86639226253E+02  0.15781069596E+03  0.91197914913E+02 0.  0.
         23    2    1    2    0    0 -0.10617714682E+03  0.31457135673E+02  0.14777386191E+03  0.20580657041E+03  0.90863041268E+02 0.  0.
        -13    1    3    3    0    0  0.52776957897E+02  0.21193661823E+02 -0.61601374051E+02  0.83840967738E+02  0.00000000000E+00 0.  1.
         13    1    3    3    0    0  0.33900312514E+02 -0.60789764448E+02 -0.25037852203E+02  0.73969728222E+02  0.00000000000E+00 0. -1.
        -13    1    4    4    0    0 -0.37785357488E+02 -0.27244121384E+02  0.23181466411E+02  0.52032257066E+02  0.00000000000E+00 0.  1.
         13    1    4    4    0    0 -0.68391789333E+02  0.58701257056E+02  0.12459239550E+03  0.15377431334E+03  0.00000000000E+00 0. -1.
         21    1    1    2  502  501  0.19499876409E+02  0.81389669525E+01 -0.23980862421E+02  0.31962004403E+02  0.00000000000E+00 0. -1.
<scales pt_clust_5="13000.00000" pt_clust_6="13000.00000" pt_clust_7="13000.00000" pt_clust_8="13000.00000" pt_clust_9="21.13026"></scales>
<clustering>
<clus scale="   21.130">  2  9  1 -1</clus>
<clus scale="   90.863">  7  8 -1 -1</clus>
<clus scale="   91.198">  5  6 -1 -1</clus>
<clus scale="  140.853">  1  7  2 -1</clus>
<clus scale="  140.853">  1  5  2 -1</clus>
</clustering>
</event>
<event>
 9    1  0.1266593E-005  0.1813372E+03  0.7546771E-02  0.1166941E+00
         -1   -1    0    0    0  501 -0.00000000000E+00  0.00000000000E+00  0.11095374247E+03  0.11095374247E+03  0.00000000000E+00 0.  1.
          1   -1    0    0  502    0  0.00000000000E+00 -0.00000000000E+00 -0.56446348161E+03  0.56446348161E+03  0.00000000000E+00 0. -1.
         23    2    1    2    0    0  0.77889572047E+02 -0.15076636149E+03 -0.13445411717E+03  0.23606829885E+03  0.94090652602E+02 0.  0.
         23    2    1    2    0    0 -0.38098440577E+02  0.14523241635E+03 -0.34809314914E+03  0.38977941164E+03  0.90637758846E+02 0.  0.
        -11    1    3    3    0    0  0.24777296546E+02 -0.12203576476E+03 -0.12216650573E+03  0.17444568618E+03  0.00000000000E+00 0.  1.
         11    1    3    3    0    0  0.53112275501E+02 -0.28730596736E+02 -0.12287611440E+02  0.61622612672E+02  0.00000000000E+00 0. -1.
        -13    1    4    4    0    0  0.10065909481E+02  0.79489434927E+02 -0.24846016379E+03  0.26106004250E+03  0.00000000000E+00 0.  1.
         13    1    4    4    0    0 -0.48164350058E+02  0.65742981423E+02 -0.99632985347E+02  0.12871936914E+03  0.00000000000E+00 0. -1.
         21    1    1    2  502  501 -0.39791131470E+02  0.55339451423E+01  0.29037527170E+02  0.49569513580E+02  0.00000000000E+00 0.  1.
<scales pt_clust_5="13000.00000" pt_clust_6="13000.00000" pt_clust_7="13000.00000" pt_clust_8="13000.00000" pt_clust_9="40.17410"></scales>
<clustering>
<clus scale="   40.174">  1  9  2 -1</clus>
<clus scale="   90.638">  7  8 -1 -1</clus>
<clus scale="   94.091">  5  6 -1 -1</clus>
<clus scale="  179.570">  2  7  1 -1</clus>
<clus scale="  179.570">  2  5  1 -1</clus>
</clustering>
</event>
<event>
 9    1  0.1266593E-005  0.1002297E+03  0.7546771E-02  0.1281257E+00
          1   -1    0    0  502    0  0.00000000000E+00  0.00000000000E+00  0.15876488953E+03  0.15876488953E+03  0.00000000000E+00 0. -1.
         -1   -1    0    0    0  501 -0.00000000000E+00 -0.00000000000E+00 -0.91216361043E+02  0.91216361043E+02  0.00000000000E+00 0.  1.
         23    2    1    2    0    0 -0.18152778300E+02  0.37200506362E+01  0.21648439938E+01  0.95590899825E+02  0.93752714324E+02 0.  0.
         23    2    1    2    0    0  0.44986286207E+02  0.48702525217E+01  0.73219398579E+02  0.12514605437E+03  0.90845854561E+02 0.  0.
        -11    1    3    3    0    0  0.28538859082E+02 -0.20057059414E+02  0.20039830193E+02  0.40228682606E+02  0.00000000000E+00 0. -1.
         11    1    3    3    0    0 -0.46691637382E+02  0.23777110050E+02 -0.17874986200E+02  0.55362217219E+02  0.00000000000E+00 0.  1.
        -13    1    4    4    0    0 -0.37532798449E+01  0.33093224780E+02  0.68433125993E+00  0.33312414280E+02  0.00000000000E+00 0.  1.
         13    1    4    4    0    0  0.48739566052E+02 -0.28222972258E+02  0.72535067319E+02  0.91833640094E+02  0.00000000000E+00 0. -1.
         21    1    1    2  502  501 -0.26833507907E+02 -0.85903031579E+01 -0.78357140892E+01  0.29244296371E+02  0.00000000000E+00 0.  1.
<scales pt_clust_5="13000.00000" pt_clust_6="13000.00000" pt_clust_7="13000.00000" pt_clust_8="13000.00000" pt_clust_9="28.17500"></scales>
<clustering>
<clus scale="   28.175">  2  9  1 -1</clus>
<clus scale="   90.846">  7  8 -1 -1</clus>
<clus scale="   93.753">  5  6 -1 -1</clus>
<clus scale="   97.516">  1  7  2 -1</clus>
<clus scale="   97.516">  1  5  2 -1</clus>
</clustering>
</event>
<event>
 9    1  0.1266593E-005  0.9499922E+02  0.7546771E-02  0.1291352E+00
          1   -1    0    0  502    0  0.00000000000E+00  0.00000000000E+00  0.30438149937E+03  0.30438149937E+03  0.00000000000E+00 0. -1.
         -1   -1    0    0    0  501 -0.00000000000E+00 -0.00000000000E+00 -0.55593607936E+02  0.55593607936E+02  0.00000000000E+00 0.  1.
         23    2    1    2    0    0 -0.19491730550E+02  0.34780815528E+02  0.83374536395E+02  0.12754376161E+03  0.87900313529E+02 0.  0.
         23    2    1    2    0    0  0.30028700643E+02 -0.17278961838E+02  0.18259802083E+03  0.20573574007E+03  0.88231922483E+02 0.  0.
        -11    1    3    3    0    0 -0.38979950862E+02  0.48962983268E+02  0.30896513689E+02  0.69795450123E+02  0.00000000000E+00 0.  1.
         11    1    3    3    0    0  0.19488220312E+02 -0.14182167741E+02  0.52478022707E+02  0.57748311490E+02  0.00000000000E+00 0. -1.
        -13    1    4    4    0    0  0.35657829482E+02  0.16733845174E+02  0.15936967429E+03  0.16416514691E+03  0.00000000000E+00 0.  1.
         13    1    4    4    0    0 -0.56291288396E+01 -0.34012807012E+02  0.23228346546E+02  0.41570593159E+02  0.00000000000E+00 0. -1.
         21    1    1    2  502  501 -0.10536970092E+02 -0.17501853689E+02 -0.17184665793E+02  0.26695605625E+02  0.00000000000E+00 0. -1.
<scales pt_clust_5="13000.00000" pt_clust_6="13000.00000" pt_clust_7="13000.00000" pt_clust_8="13000.00000" pt_clust_9="20.42897"></scales>
<clustering>
<clus scale="   20.429">  2  9  1 -1</clus>
<clus scale="   87.900">  5  6 -1 -1</clus>
<clus scale="   88.232">  7  8 -1 -1</clus>
<clus scale="   94.691">  2  5  1 -1</clus>
<clus scale="   94.999">  1  5  2 -1</clus>
</clustering>
</event>
<event>
 9    1  0.1266593E-005  0.9438369E+02  0.7546771E-02  0.1292618E+00
         -2   -1    0    0    0  501 -0.00000000000E+00  0.00000000000E+00  0.43227728113E+03  0.43227728113E+03  0.00000000000E+00 0.  1.
          2   -1    0    0  502    0  0.00000000000E+00 -0.00000000000E+00 -0.32629093438E+02  0.32629093438E+02  0.00000000000E+00 0. -1.
         23    2    1    2    0    0  0.20517425409E+01 -0.29936955788E+02  0.15690397639E+03  0.18277489671E+03  0.88810889483E+02 0.  0.
         23    2    1    2    0    0  0.18687257135E+02  0.30151713463E+02  0.10203839055E+03  0.13990531915E+03  0.88900651153E+02 0.  0.
        -11    1    3    3    0    0  0.31035959076E+02  0.48176587047E+01  0.12099368335E+03  0.12500364795E+03  0.00000000000E+00 0.  1.
         11    1    3    3    0    0 -0.28984216535E+02 -0.34754614493E+02  0.35910293043E+02  0.57771248758E+02  0.00000000000E+00 0. -1.
        -13    1    4    4    0    0  0.44534050686E+02  0.28299722022E+02  0.10102248033E+03  0.11397235397E+03  0.00000000000E+00 0.  1.
         13    1    4    4    0    0 -0.25846793551E+02  0.18519914405E+01  0.10159102155E+01  0.25932965174E+02  0.00000000000E+00 0. -1.
         21    1    1    2  502  501 -0.20738999675E+02 -0.21475767474E+00  0.14070582075E+03  0.14222615871E+03  0.00000000000E+00 0.  1.
<scales pt_clust_5="13000.00000" pt_clust_6="13000.00000" pt_clust_7="13000.00000" pt_clust_8="13000.00000" pt_clust_9="20.74011"></scales>
<clustering>
<clus scale="   20.740">  1  9  2 -1</clus>
<clus scale="   88.811">  5  6 -1 -1</clus>
<clus scale="   88.901">  7  8 -1 -1</clus>
<clus scale="   94.299">  1  5  2 -1</clus>
<clus scale="   94.384">  2  5  1 -1</clus>
</clustering>
</event>
<event>
 9    1  0.1266593E-005  0.1041050E+03  0.7546771E-02  0.1273136E+00
         -1   -1    0    0    0  501 -0.00000000000E+00  0.00000000000E+00  0.23070680048E+03  0.23070680048E+03  0.00000000000E+00 0.  1.
          1   -1    0    0  502    0  0.00000000000E+00 -0.00000000000E+00 -0.77572607546E+02  0.77572607546E+02  0.00000000000E+00 0. -1.
         23    2    1    2    0    0 -0.17009475803E+02 -0.46933362057E+02  0.10209518805E+03  0.14654745460E+03  0.92523868734E+02 0.  0.
         23    2    1    2    0    0 -0.42195263268E+01  0.47982741543E+02 -0.48191715062E+01  0.10196651527E+03  0.89742954785E+02 0.  0.
        -11    1    3    3    0    0 -0.46590516765E+02 -0.52170123015E+02  0.48527471407E+02  0.85131154515E+02  0.00000000000E+00 0. -1.
         11    1    3    3    0    0  0.29581040963E+02  0.52367609580E+01  0.53567716643E+02  0.61416300084E+02  0.00000000000E+00 0.  1.
        -11    1    4    4    0    0  0.24375296315E+02  0.61443577113E+02  0.10354485546E+02  0.66908023508E+02  0.00000000000E+00 0.  1.
         11    1    4    4    0    0 -0.28594822642E+02 -0.13460835569E+02 -0.15173657052E+02  0.35058491760E+02  0.00000000000E+00 0. -1.
         21    1    1    2  502  501  0.21229002129E+02 -0.10493794864E+01  0.55858176386E+02  0.59765438156E+02  0.00000000000E+00 0.  1.
<scales pt_clust_5="13000.00000" pt_clust_6="13000.00000" pt_clust_7="13000.00000" pt_clust_8="13000.00000" pt_clust_9="21.25492"></scales>
<clustering>
<clus scale="   21.255">  1  9  2 -1</clus>
<clus scale="   89.743">  7  8 -1 -1</clus>
<clus scale="   92.524">  5  6 -1 -1</clus>
<clus scale="  101.641">  2  7  1 -1</clus>
<clus scale="  101.641">  2  5  1 -1</clus>
</clustering>
</event>
<event>
 9    1  0.1266593E-005  0.1008614E+03  0.7546771E-02  0.1279601E+00
         -1   -1    0    0    0  501 -0.00000000000E+00  0.00000000000E+00  0.18711865566E+03  0.18711865566E+03  0.00000000000E+00 0.  1.
          1   -1    0    0  502    0  0.00000000000E+00 -0.00000000000E+00 -0.10987340332E+03  0.10987340332E+03  0.00000000000E+00 0. -1.
         23    2    1    2    0    0 -0.29442187082E+02 -0.13230806881E+02  0.11830096831E+03  0.15264209125E+03  0.90898802452E+02 0.  0.
         23    2    1    2    0    0  0.26943230270E+02  0.38590530348E+02 -0.55944762241E+02  0.11483651218E+03  0.88557559913E+02 0.  0.
        -11    1    4    4    0    0 -0.66346247795E+00  0.34462162023E+02  0.15752201665E+02  0.37897396362E+02  0.00000000000E+00 0. -1.
         11    1    4    4    0    0  0.27606692748E+02  0.41283683252E+01 -0.71696963906E+02  0.76939115818E+02  0.00000000000E+00 0.  1.
        -13    1    3    3    0    0 -0.46162024254E+02  0.26501092738E+02  0.69212090325E+02  0.87312964941E+02  0.00000000000E+00 0.  1.
         13    1    3    3    0    0  0.16719837173E+02 -0.39731899619E+02  0.49088877980E+02  0.65329126305E+02  0.00000000000E+00 0. -1.
         21    1    1    2  502  501  0.24989568114E+01 -0.25359723467E+02  0.14889046282E+02  0.29513455553E+02  0.00000000000E+00 0.  1.
<scales pt_clust_5="13000.00000" pt_clust_6="13000.00000" pt_clust_7="13000.00000" pt_clust_8="13000.00000" pt_clust_9="25.48255"></scales>
<clustering>
<clus scale="   25.483">  1  9  2 -1</clus>
<clus scale="   88.558">  5  6 -1 -1</clus>
<clus scale="   90.899">  7  8 -1 -1</clus>
<clus scale="   98.757">  2  5  1 -1</clus>
<clus scale="   98.757">  2  5  1 -1</clus>
</clustering>
</event>
<event>
 9    1  0.1266593E-005  0.9333349E+02  0.7546771E-02  0.1296444E+00
         -1   -1    0    0    0  501 -0.00000000000E+00  0.00000000000E+00  0.64402994310E+02  0.64402994310E+02  0.00000000000E+00 0.  1.
          1   -1    0    0  502    0  0.00000000000E+00 -0.00000000000E+00 -0.41080693129E+03  0.41080693129E+03  0.00000000000E+00 0. -1.
         23    2    1    2    0    0 -0.81918415227E+01 -0.24683312345E+02 -0.45151249275E+02  0.10326392170E+03  0.89153968153E+02 0.  0.
         23    2    1    2    0    0  0.18209312842E+02  0.13927330077E+01 -0.32440368726E+03  0.33761278970E+03  0.91712183932E+02 0.  0.
        -11    1    3    3    0    0  0.27211458849E+02  0.90390685923E+01 -0.46181955777E+02  0.54359371713E+02  0.00000000000E+00 0. -1.
         11    1    3    3    0    0 -0.35403300372E+02 -0.33722380937E+02  0.10307065022E+01  0.48904549984E+02  0.00000000000E+00 0.  1.
        -13    1    4    4    0    0 -0.16629482090E+02  0.38485212262E+02 -0.16729718892E+03  0.17247028920E+03  0.00000000000E+00 0. -1.
         13    1    4    4    0    0  0.34838794932E+02 -0.37092479254E+02 -0.15710649834E+03  0.16514250050E+03  0.00000000000E+00 0.  1.
         21    1    1    2  502  501 -0.10017471319E+02  0.23290579337E+02  0.23150999552E+02  0.34333214206E+02  0.00000000000E+00 0.  1.
<scales pt_clust_5="13000.00000" pt_clust_6="13000.00000" pt_clust_7="13000.00000" pt_clust_8="13000.00000" pt_clust_9="25.35352"></scales>
<clustering>
<clus scale="   25.354">  1  9  2 -1</clus>
<clus scale="   89.154">  5  6 -1 -1</clus>
<clus scale="   90.821">  1  5  2 -1</clus>
<clus scale="   91.712">  7  8 -1 -1</clus>
<clus scale="   93.333">  2  5  1 -1</clus>
</clustering>
</event>
<event>
 9    1  0.1266593E-005  0.1492599E+03  0.7546771E-02  0.1204469E+00
          1   -1    0    0  502    0  0.00000000000E+00  0.00000000000E+00  0.50097300606E+03  0.50097300606E+03  0.00000000000E+00 0. -1.
         -1   -1    0    0    0  501 -0.00000000000E+00 -0.00000000000E+00 -0.48957944141E+02  0.48957944141E+02  0.00000000000E+00 0.  1.
         23    2    1    2    0    0 -0.91911029161E+02 -0.15633657487E+02  0.18413903741E+03  0.22689266967E+03  0.94239322599E+02 0.  0.
         23    2    1    2    0    0  0.11185325392E+03  0.17184566459E+02  0.25530507010E+03  0.29941357859E+03  0.10798774230E+03 0.  0.
        -13    1    3    3    0    0  0.14993365567E+02  0.15030662311E+02  0.33142169131E+02  0.39358927770E+02  0.00000000000E+00 0.  1.
         13    1    3    3    0    0 -0.10690439473E+03 -0.30664319797E+02  0.15099686828E+03  0.18753374190E+03  0.00000000000E+00 0. -1.
        -13    1    4    4    0    0  0.17967649481E+02  0.44617691457E+02  0.38655250823E+02  0.61707400164E+02  0.00000000000E+00 0.  1.
         13    1    4    4    0    0  0.93885604442E+02 -0.27433124998E+02  0.21664981928E+03  0.23770617842E+03  0.00000000000E+00 0. -1.
         21    1    1    2  502  501 -0.19942224762E+02 -0.15509089726E+01  0.12570954412E+02  0.23624701944E+02  0.00000000000E+00 0.  1.
<scales pt_clust_5="13000.00000" pt_clust_6="13000.00000" pt_clust_7="13000.00000" pt_clust_8="13000.00000" pt_clust_9="20.00244"></scales>
<clustering>
<clus scale="   20.002">  2  9  1 -1</clus>
<clus scale="   94.239">  5  6 -1 -1</clus>
<clus scale="  107.988">  7  8 -1 -1</clus>
<clus scale="  139.636">  2  5  1 -1</clus>
<clus scale="  149.260">  1  5  2 -1</clus>
</clustering>
</event>
<event>
 9    1  0.1266593E-005  0.9603738E+02  0.7546771E-02  0.1304264E+00
         -2   -1    0    0    0  501 -0.00000000000E+00  0.00000000000E+00  0.23296245833E+02  0.23296245833E+02  0.00000000000E+00 0.  1.
          2   -1    0    0  502    0  0.00000000000E+00 -0.00000000000E+00 -0.70494003924E+03  0.70494003924E+03  0.00000000000E+00 0. -1.
         23    2    1    2    0    0  0.32603311806E+02 -0.33537994196E+02 -0.39724437601E+03  0.41038413572E+03  0.91783830753E+02 0.  0.
         23    2    1    2    0    0 -0.15600381762E+02  0.72697421240E+01 -0.27743965219E+03  0.28579658776E+03  0.66413160670E+02 0.  0.
        -11    1    4    4    0    0 -0.36033492472E+01 -0.29396824594E+02 -0.13618848878E+03  0.13937166820E+03  0.00000000000E+00 0. -1.
         11    1    4    4    0    0 -0.11997032515E+02  0.36666566718E+02 -0.14125116341E+03  0.14642491956E+03  0.00000000000E+00 0.  1.
        -11    1    3    3    0    0  0.64087191184E+02 -0.16135897534E+02 -0.28279509673E+03  0.29041453476E+03  0.00000000000E+00 0. -1.
         11    1    3    3    0    0 -0.31483879377E+02 -0.17402096662E+02 -0.11444927927E+03  0.11996960096E+03  0.00000000000E+00 0.  1.
         21    1    1    2  502  501 -0.17002930044E+02  0.26268252072E+02 -0.69597652160E+01  0.32055561590E+02  0.00000000000E+00 0.  1.
<scales pt_clust_5="13000.00000" pt_clust_6="13000.00000" pt_clust_7="13000.00000" pt_clust_8="13000.00000" pt_clust_9="31.29090"></scales>
<clustering>
<clus scale="   31.291">  1  9  2 -1</clus>
<clus scale="   66.413">  5  6 -1 -1</clus>
<clus scale="   72.178">  2  5  1 -1</clus>
<clus scale="   91.784">  7  8 -1 -1</clus>
<clus scale="   72.178">  2  5  1 -1</clus>
</clustering>
</event>
<event>
 9    1  0.1266593E-005  0.1132170E+03  0.7546771E-02  0.1255963E+00
          1   -1    0    0  502    0  0.00000000000E+00  0.00000000000E+00  0.25556134161E+03  0.25556134161E+03  0.00000000000E+00 0. -1.
         -1   -1    0    0    0  501 -0.00000000000E+00 -0.00000000000E+00 -0.73090707871E+02  0.73090707871E+02  0.00000000000E+00 0.  1.
         23    2    1    2    0    0  0.12302066939E+02  0.66434775582E+02  0.82679896325E+02  0.13873676405E+03  0.88583317765E+02 0.  0.
         23    2    1    2    0    0 -0.32722918353E+02 -0.57788307324E+02  0.11614840276E+03  0.16235905562E+03  0.91976810280E+02 0.  0.
        -13    1    4    4    0    0  0.11518274769E+02 -0.36540158796E+02  0.10535782818E+03  0.11210765281E+03  0.00000000000E+00 0. -1.
         13    1    4    4    0    0 -0.44241193123E+02 -0.21248148528E+02  0.10790574573E+02  0.50251402810E+02  0.00000000000E+00 0.  1.
        -13    1    3    3    0    0 -0.37615980096E+02  0.39542432577E+02  0.37183360719E+02  0.66039141780E+02  0.00000000000E+00 0.  1.
         13    1    3    3    0    0  0.49918047035E+02  0.26892343005E+02  0.45496535606E+02  0.72697622274E+02  0.00000000000E+00 0. -1.
         21    1    1    2  502  501  0.20420851414E+02 -0.86464682579E+01 -0.16357665343E+02  0.27556229809E+02  0.00000000000E+00 0.  1.
<scales pt_clust_5="13000.00000" pt_clust_6="13000.00000" pt_clust_7="13000.00000" pt_clust_8="13000.00000" pt_clust_9="22.17595"></scales>
<clustering>
<clus scale="   22.176">  2  9  1 -1</clus>
<clus scale="   88.583">  7  8 -1 -1</clus>
<clus scale="   91.977">  5  6 -1 -1</clus>
<clus scale="  110.478">  2  7  1 -1</clus>
<clus scale="  113.217">  1  5  2 -1</clus>
</clustering>
</event>
<event>
 9    1  0.1266593E-005  0.9944089E+02  0.7546771E-02  0.1282003E+00
          1   -1    0    0  502    0  0.00000000000E+00  0.00000000000E+00  0.34403270914E+03  0.34403270914E+03  0.00000000000E+00 0. -1.
         -1   -1    0    0    0  501 -0.00000000000E+00 -0.00000000000E+00 -0.42512165032E+02  0.42512165032E+02  0.00000000000E+00 0.  1.
         23    2    1    2    0    0  0.37555247881E+02  0.10226574740E+01  0.13567662476E+03  0.16799853998E+03  0.91672899241E+02 0.  0.
         23    2    1    2    0    0 -0.32143734232E+02  0.33770829097E+02  0.14626871204E+03  0.17825911626E+03  0.90598498115E+02 0.  0.
        -13    1    3    3    0    0  0.64721848697E+02 -0.14288653960E+02  0.10557436716E+03  0.12465564701E+03  0.00000000000E+00 0. -1.
         13    1    3    3    0    0 -0.27166600815E+02  0.15311311434E+02  0.30102257602E+02  0.43342892963E+02  0.00000000000E+00 0.  1.
        -13    1    4    4    0    0 -0.33108661424E+02 -0.45552784295E+01  0.74462713926E+01  0.34240049365E+02  0.00000000000E+00 0.  1.
         13    1    4    4    0    0  0.96492719251E+00  0.38326107526E+02  0.13882244065E+03  0.14401906690E+03  0.00000000000E+00 0. -1.
         21    1    1    2  502  501 -0.54115136496E+01 -0.34793486571E+02  0.19575207300E+02  0.40287217931E+02  0.00000000000E+00 0. -1.
<scales pt_clust_5="13000.00000" pt_clust_6="13000.00000" pt_clust_7="13000.00000" pt_clust_8="13000.00000" pt_clust_9="35.21180"></scales>
<clustering>
<clus scale="   35.212">  2  9  1 -1</clus>
<clus scale="   90.598">  7  8 -1 -1</clus>
<clus scale="   91.673">  5  6 -1 -1</clus>
<clus scale="   98.451">  1  7  2 -1</clus>
<clus scale="   98.451">  1  5  2 -1</clus>
</clustering>
</event>
<event>
 9    1  0.1266593E-005  0.1003161E+03  0.7546771E-02  0.1281864E+00
         -2   -1    0    0    0  501 -0.00000000000E+00  0.00000000000E+00  0.19453791038E+03  0.19453791038E+03  0.00000000000E+00 0.  1.
          2   -1    0    0  502    0  0.00000000000E+00 -0.00000000000E+00 -0.96363501555E+02  0.96363501555E+02  0.00000000000E+00 0. -1.
         23    2    1    2    0    0 -0.33181931071E+02  0.23827321846E+01  0.94773801916E+02  0.13724619808E+03  0.93529286298E+02 0.  0.
         23    2    1    2    0    0  0.33154177803E+02  0.19469800864E+02 -0.40114391306E+02  0.10496138426E+03  0.89047488145E+02 0.  0.
        -11    1    4    4    0    0  0.39396396317E+02  0.47693812899E+02 -0.90346897972E+01  0.62517209241E+02  0.00000000000E+00 0. -1.
         11    1    4    4    0    0 -0.62422185139E+01 -0.28224012035E+02 -0.31079701509E+02  0.42444175021E+02  0.00000000000E+00 0.  1.
        -11    1    3    3    0    0 -0.58194949229E+02  0.39658204145E+01  0.95801614650E+02  0.11216206675E+03  0.00000000000E+00 0.  1.
         11    1    3    3    0    0  0.25013018158E+02 -0.15830882299E+01 -0.10278127341E+01  0.25084131333E+02  0.00000000000E+00 0. -1.
         21    1    1    2  502  501  0.27753267376E-01 -0.21852533049E+02  0.43514998216E+02  0.48693829595E+02  0.00000000000E+00 0. -1.
<scales pt_clust_5="13000.00000" pt_clust_6="13000.00000" pt_clust_7="13000.00000" pt_clust_8="13000.00000" pt_clust_9="21.85255"></scales>
<clustering>
<clus scale="   21.853">  1  9  2 -1</clus>
<clus scale="   89.047">  5  6 -1 -1</clus>
<clus scale="   93.529">  7  8 -1 -1</clus>
<clus scale="   96.151">  2  5  1 -1</clus>
<clus scale="   96.151">  2  5  1 -1</clus>
</clustering>
</event>
<event>
 9    1  0.1266593E-005  0.1028756E+03  0.7546771E-02  0.1281300E+00
          1   -1    0    0  502    0  0.00000000000E+00  0.00000000000E+00  0.49380847956E+03  0.49380847956E+03  0.00000000000E+00 0. -1.
         -1   -1    0    0    0  501 -0.00000000000E+00 -0.00000000000E+00 -0.36908117849E+02  0.36908117849E+02  0.00000000000E+00 0.  1.
         23    2    1    2    0    0 -0.10588336998E+02 -0.27493647708E+02  0.11222139066E+03  0.15501979543E+03  0.10280799049E+03 0.  0.
         23    2    1    2    0    0 -0.72025324402E+01 -0.55370315230E+01  0.31534842957E+03  0.32807515281E+03  0.90034097250E+02 0.  0.
        -11    1    4    4    0    0 -0.47784838416E+01 -0.45537412105E+02  0.21881618595E+03  0.22355539144E+03  0.00000000000E+00 0.  1.
         11    1    4    4    0    0 -0.24240485985E+01  0.40000380582E+02  0.96532243628E+02  0.10451976138E+03  0.00000000000E+00 0. -1.
        -13    1    3    3    0    0 -0.23809064180E+02 -0.46635083527E+02  0.11964473188E+03  0.13060078261E+03  0.00000000000E+00 0.  1.
         13    1    3    3    0    0  0.13220727183E+02  0.19141435819E+02 -0.74233412119E+01  0.24419012822E+02  0.00000000000E+00 0. -1.
         21    1    1    2  502  501  0.17790869438E+02  0.33030679231E+02  0.29330541473E+02  0.47621649162E+02  0.00000000000E+00 0.  1.
<scales pt_clust_5="13000.00000" pt_clust_6="13000.00000" pt_clust_7="13000.00000" pt_clust_8="13000.00000" pt_clust_9="37.51721"></scales>
<clustering>
<clus scale="   37.517">  2  9  1 -1</clus>
<clus scale="   90.034">  5  6 -1 -1</clus>
<clus scale="   90.111">  1  5  2 -1</clus>
<clus scale="  102.808">  7  8 -1 -1</clus>
<clus scale="   90.111">  1  5  2 -1</clus>
</clustering>
</event>
<event>
 9    1  0.1266593E-005  0.9573832E+02  0.7546771E-02  0.1292331E+00
          1   -1    0    0  502    0  0.00000000000E+00  0.00000000000E+00  0.89967127779E+02  0.89967127779E+02  0.00000000000E+00 0.  1.
         -1   -1    0    0    0  501 -0.00000000000E+00 -0.00000000000E+00 -0.50840798265E+03  0.50840798265E+03  0.00000000000E+00 0. -1.
         23    2    1    2    0    0 -0.37911182565E+02 -0.25683478526E+02 -0.43626924302E+03  0.44731736271E+03  0.87550395463E+02 0.  0.
         23    2    1    2    0    0  0.23073635946E+02  0.19251494117E+01  0.50511727932E+02  0.10801344854E+03  0.92624896931E+02 0.  0.
        -11    1    4    4    0    0 -0.20730535276E+02 -0.17922859414E+02 -0.11346736471E+02  0.29660283393E+02  0.00000000000E+00 0. -1.
         11    1    4    4    0    0  0.43804171222E+02  0.19848008826E+02  0.61858464403E+02  0.78353165150E+02  0.00000000000E+00 0.  1.
        -13    1    3    3    0    0  0.75489529849E+01  0.27350872917E+02 -0.10518081908E+03  0.10894063357E+03  0.00000000000E+00 0.  1.
         13    1    3    3    0    0 -0.45460135550E+02 -0.53034351443E+02 -0.33108842394E+03  0.33837672914E+03  0.00000000000E+00 0. -1.
         21    1    1    2  502  501  0.14837546619E+02  0.23758329114E+02 -0.32683339788E+02  0.43044299177E+02  0.00000000000E+00 0. -1.
<scales pt_clust_5="13000.00000" pt_clust_6="13000.00000" pt_clust_7="13000.00000" pt_clust_8="13000.00000" pt_clust_9="28.01091"></scales>
<clustering>
<clus scale="   28.011">  2  9  1 -1</clus>
<clus scale="   87.550">  7  8 -1 -1</clus>
<clus scale="   90.838">  2  7  1 -1</clus>
<clus scale="   92.625">  5  6 -1 -1</clus>
<clus scale="   95.738">  1  5  2 -1</clus>
</clustering>
</event>
<event>
 9    1  0.1266593E-005  0.1017447E+03  0.7546771E-02  0.1276984E+00
         -1   -1    0    0    0  501 -0.00000000000E+00  0.00000000000E+00  0.78788276329E+02  0.78788276329E+02  0.00000000000E+00 0.  1.
          1   -1    0    0  502    0  0.00000000000E+00 -0.00000000000E+00 -0.22535320985E+03  0.22535320985E+03  0.00000000000E+00 0. -1.
         23    2    1    2    0    0  0.15810852634E+02  0.19630034401E+02  0.21075742903E+01  0.99162466586E+02  0.95882384193E+02 0.  0.
         23    2    1    2    0    0 -0.31419094188E+02 -0.43721947839E+02 -0.13045225740E+03  0.17097879868E+03  0.96525592113E+02 0.  0.
        -11    1    3    3    0    0 -0.30722650672E+02  0.30576164007E+02 -0.18472516215E+02  0.47117055564E+02  0.00000000000E+00 0.  1.
         11    1    3    3    0    0  0.46533503306E+02 -0.10946129606E+02  0.20580090505E+02  0.52045411022E+02  0.00000000000E+00 0. -1.
        -13    1    4    4    0    0  0.22988253433E+02  0.17231821041E+02 -0.30924729430E+02  0.42210595146E+02  0.00000000000E+00 0.  1.
         13    1    4    4    0    0 -0.54407347621E+02 -0.60953768880E+02 -0.99527527972E+02  0.12876820353E+03  0.00000000000E+00 0. -1.
         21    1    1    2  502  501  0.15608241554E+02  0.24091913438E+02 -0.18220250412E+02  0.34000220920E+02  0.00000000000E+00 0.  1.
<scales pt_clust_5="13000.00000" pt_clust_6="13000.00000" pt_clust_7="13000.00000" pt_clust_8="13000.00000" pt_clust_9="28.70605"></scales>
<clustering>
<clus scale="   28.706">  2  9  1 -1</clus>
<clus scale="   95.882">  5  6 -1 -1</clus>
<clus scale="   96.526">  7  8 -1 -1</clus>
<clus scale="  101.135">  1  5  2 -1</clus>
<clus scale="   28.706">  2  5  1 -1</clus>
</clustering>
</event>
<event>
 9    1  0.1266593E-005  0.1039719E+03  0.7546771E-02  0.1275524E+00
         -1   -1    0    0    0  501 -0.00000000000E+00  0.00000000000E+00  0.30586280977E+02  0.30586280977E+02  0.00000000000E+00 0.  1.
          1   -1    0    0  502    0  0.00000000000E+00 -0.00000000000E+00 -0.47103534925E+03  0.47103534925E+03  0.00000000000E+00 0. -1.
         23    2    1    2    0    0  0.19002446063E+02 -0.54735819963E+02 -0.17353774257E+03  0.20498640863E+03  0.92449860366E+02 0.  0.
         23    2    1    2    0    0 -0.10732613786E+01  0.42750318353E+02 -0.25456375887E+03  0.27178425946E+03  0.85060183132E+02 0.  0.
        -11    1    4    4    0    0 -0.27442126845E+02  0.58361253737E+02 -0.17738317647E+03  0.18874294042E+03  0.00000000000E+00 0. -1.
         11    1    4    4    0    0  0.26368865466E+02 -0.15610935384E+02 -0.77180582401E+02  0.83041319048E+02  0.00000000000E+00 0.  1.
        -13    1    3    3    0    0  0.47298377648E+01 -0.27767164565E+02  0.62199985355E+00  0.28173989371E+02  0.00000000000E+00 0.  1.
         13    1    3    3    0    0  0.14272608299E+02 -0.26968655398E+02 -0.17415974243E+03  0.17681241926E+03  0.00000000000E+00 0. -1.
         21    1    1    2  502  501 -0.17929184685E+02  0.11985501610E+02 -0.12347566832E+02  0.24850962134E+02  0.00000000000E+00 0. -1.
<scales pt_clust_5="13000.00000" pt_clust_6="13000.00000" pt_clust_7="13000.00000" pt_clust_8="13000.00000" pt_clust_9="21.56636"></scales>
<clustering>
<clus scale="   21.566">  1  9  2 -1</clus>
<clus scale="   85.060">  5  6 -1 -1</clus>
<clus scale="   92.450">  7  8 -1 -1</clus>
<clus scale="   97.460">  2  5  1 -1</clus>
<clus scale="   97.460">  2  5  1 -1</clus>
</clustering>
</event>
<event>
 9    1  0.1266593E-005  0.1059145E+03  0.7546771E-02  0.1271057E+00
         -3   -1    0    0    0  501 -0.00000000000E+00  0.00000000000E+00  0.25721312973E+03  0.25721312973E+03  0.00000000000E+00 0.  1.
          3   -1    0    0  502    0  0.00000000000E+00 -0.00000000000E+00 -0.69868085379E+02  0.69868085379E+02  0.00000000000E+00 0. -1.
         23    2    1    2    0    0 -0.50516414377E+02  0.16856022486E+02  0.15009163569E+03  0.18714794628E+03  0.98289475920E+02 0.  0.
         23    2    1    2    0    0  0.12537693778E+02 -0.28828378060E+00  0.22198209817E+02  0.95847758781E+02  0.92394564080E+02 0.  0.
        -11    1    3    3    0    0 -0.48601482405E+01  0.43156735731E+02  0.11731404180E+03  0.12509480119E+03  0.00000000000E+00 0.  1.
         11    1    3    3    0    0 -0.45656266137E+02 -0.26300713245E+02  0.32777593886E+02  0.62053145091E+02  0.00000000000E+00 0. -1.
        -13    1    4    4    0    0 -0.24168717241E+02  0.29864339944E+02  0.28627217356E+02  0.47911619331E+02  0.00000000000E+00 0.  1.
         13    1    4    4    0    0  0.36706411019E+02 -0.30152623725E+02 -0.64290075399E+01  0.47936139450E+02  0.00000000000E+00 0. -1.
         21    1    1    2  502  501  0.37978720599E+02 -0.16567738706E+02  0.15055198846E+02  0.44085510051E+02  0.00000000000E+00 0. -1.
<scales pt_clust_5="13000.00000" pt_clust_6="13000.00000" pt_clust_7="13000.00000" pt_clust_8="13000.00000" pt_clust_9="41.43517"></scales>
<clustering>
<clus scale="   41.435">  2  9  1 -1</clus>
<clus scale="   92.395">  7  8 -1 -1</clus>
<clus scale="   98.289">  5  6 -1 -1</clus>
<clus scale="  100.468">  2  7  1 -1</clus>
<clus scale="   41.435">  2  5  1 -1</clus>
</clustering>
</event>
<event>
 9    1  0.1266593E-005  0.1052926E+03  0.7546771E-02  0.1269676E+00
          4   -1    0    0  502    0  0.00000000000E+00  0.00000000000E+00  0.40967129158E+03  0.40967129158E+03  0.00000000000E+00 0. -1.
         -4   -1    0    0    0  501 -0.00000000000E+00 -0.00000000000E+00 -0.10302418370E+03  0.10302418370E+03  0.00000000000E+00 0.  1.
         23    2    1    2    0    0 -0.14001415171E+02  0.49165361549E+02  0.57135326158E+02  0.11991286655E+03  0.92202915711E+02 0.  0.
         23    2    1    2    0    0  0.33238840159E+02 -0.39655457317E+02  0.31060971917E+03  0.32802556464E+03  0.91896668188E+02 0.  0.
        -11    1    3    3    0    0 -0.28887077568E+02  0.15442551293E+02  0.72823649869E+02  0.79851234311E+02  0.00000000000E+00 0. -1.
         11    1    3    3    0    0  0.14885662397E+02  0.33722810256E+02 -0.15688323711E+02  0.40061632237E+02  0.00000000000E+00 0.  1.
        -11    1    4    4    0    0  0.58576784673E+01  0.19736352734E+02  0.15536914025E+02  0.25792086261E+02  0.00000000000E+00 0. -1.
         11    1    4    4    0    0  0.27381161692E+02 -0.59391810051E+02  0.29507280514E+03  0.30223347838E+03  0.00000000000E+00 0.  1.
         21    1    1    2  502  501 -0.19237424989E+02 -0.95099042321E+01 -0.61097937447E+02  0.64757044087E+02  0.00000000000E+00 0.  1.
<scales pt_clust_5="13000.00000" pt_clust_6="13000.00000" pt_clust_7="13000.00000" pt_clust_8="13000.00000" pt_clust_9="21.45966"></scales>
<clustering>
<clus scale="   21.460">  2  9  1 -1</clus>
<clus scale="   91.897">  7  8 -1 -1</clus>
<clus scale="   92.203">  5  6 -1 -1</clus>
<clus scale="  105.025">  1  7  2 -1</clus>
<clus scale="  105.025">  1  5  2 -1</clus>
</clustering>
</event>
<event>
 9    1  0.1266593E-005  0.1347800E+03  0.7546771E-02  0.1221542E+00
          1   -1    0    0  502    0  0.00000000000E+00  0.00000000000E+00  0.39849791290E+03  0.39849791290E+03  0.00000000000E+00 0. -1.
         -1   -1    0    0    0  501 -0.00000000000E+00 -0.00000000000E+00 -0.12653703428E+03  0.12653703428E+03  0.00000000000E+00 0.  1.
         23    2    1    2    0    0 -0.34697840058E+02 -0.73753709880E+02  0.17779355621E+00  0.12520642562E+03  0.95042451468E+02 0.  0.
         23    2    1    2    0    0  0.85481402164E+02  0.54362113734E+02  0.30646064494E+03  0.33534955335E+03  0.90988386657E+02 0.  0.
        -13    1    4    4    0    0  0.33544083889E+02 -0.24639581169E+02  0.93676015692E+02  0.10250614830E+03  0.00000000000E+00 0.  1.
         13    1    4    4    0    0  0.51937318276E+02  0.79001694903E+02  0.21278462925E+03  0.23284340505E+03  0.00000000000E+00 0. -1.
        -13    1    3    3    0    0  0.10373887555E+02 -0.35940356465E+02  0.39531524020E+02  0.54424885459E+02  0.00000000000E+00 0. -1.
         13    1    3    3    0    0 -0.45071727613E+02 -0.37813353415E+02 -0.39353730464E+02  0.70781540164E+02  0.00000000000E+00 0.  1.
         21    1    1    2  502  501 -0.50783562106E+02  0.19391596146E+02 -0.34677559890E+02  0.64478968208E+02  0.00000000000E+00 0.  1.
<scales pt_clust_5="13000.00000" pt_clust_6="13000.00000" pt_clust_7="13000.00000" pt_clust_8="13000.00000" pt_clust_9="54.35995"></scales>
<clustering>
<clus scale="   54.360">  2  9  1 -1</clus>
<clus scale="   90.988">  5  6 -1 -1</clus>
<clus scale="   95.042">  7  8 -1 -1</clus>
<clus scale="  131.952">  1  5  2 -1</clus>
<clus scale="  131.952">  1  5  2 -1</clus>
</clustering>
</event>
<event>
 9    1  0.1266593E-005  0.9977745E+02  0.7546771E-02  0.1280811E+00
         -1   -1    0    0    0  501 -0.00000000000E+00  0.00000000000E+00  0.28878725989E+02  0.28878725989E+02  0.00000000000E+00 0.  1.
          1   -1    0    0  502    0  0.00000000000E+00 -0.00000000000E+00 -0.51328202596E+03  0.51328202596E+03  0.00000000000E+00 0. -1.
         23    2    1    2    0    0  0.13749794449E+02 -0.46330081966E+02 -0.11702116738E+03  0.15584971833E+03  0.90882604202E+02 0.  0.
         23    2    1    2    0    0 -0.13861165544E+02  0.21666083357E+02 -0.30363355939E+03  0.31795749811E+03  0.90785908262E+02 0.  0.
        -11    1    3    3    0    0  0.39029047547E+02 -0.10402423168E+02 -0.12197548772E+02  0.42193093703E+02  0.00000000000E+00 0.  1.
         11    1    3    3    0    0 -0.25279253098E+02 -0.35927658798E+02 -0.10482361860E+03  0.11365662462E+03  0.00000000000E+00 0. -1.
        -13    1    4    4    0    0 -0.41555490807E+02 -0.55107831020E+01 -0.23839207257E+03  0.24204959783E+03  0.00000000000E+00 0. -1.
         13    1    4    4    0    0  0.27694325263E+02  0.27176866459E+02 -0.65241486821E+02  0.75907900280E+02  0.00000000000E+00 0.  1.
         21    1    1    2  502  501  0.11137109479E+00  0.24663998608E+02 -0.63748573207E+02  0.68353535511E+02  0.00000000000E+00 0.  1.
<scales pt_clust_5="13000.00000" pt_clust_6="13000.00000" pt_clust_7="13000.00000" pt_clust_8="13000.00000" pt_clust_9="24.66425"></scales>
<clustering>
<clus scale="   24.664">  2  9  1 -1</clus>
<clus scale="   90.786">  7  8 -1 -1</clus>
<clus scale="   90.883">  5  6 -1 -1</clus>
<clus scale="   99.689">  2  7  1 -1</clus>
<clus scale="   24.664">  2  5  1 -1</clus>
</clustering>
</event>
<event>
 9    1  0.1266593E-005  0.1490630E+03  0.7546771E-02  0.1210452E+00
         -2   -1    0    0    0  501 -0.00000000000E+00  0.00000000000E+00  0.10815161938E+03  0.10815161938E+03  0.00000000000E+00 0.  1.
          2   -1    0    0  502    0  0.00000000000E+00 -0.00000000000E+00 -0.41280041845E+03  0.41280041845E+03  0.00000000000E+00 0. -1.
         23    2    1    2    0    0 -0.84355465118E+02  0.38523831446E+02 -0.69875360971E+02  0.14513199458E+03  0.87067787937E+02 0.  0.
         23    2    1    2    0    0 -0.82976028623E+02 -0.76633191083E+01 -0.97721532236E+02  0.15733566183E+03  0.90891500351E+02 0.  0.
        -13    1    4    4    0    0  0.47502375289E+01 -0.24691553939E+02 -0.31429960331E+00  0.25146299464E+02  0.00000000000E+00 0. -1.
         13    1    4    4    0    0 -0.87726266151E+02  0.17028234830E+02 -0.97407232633E+02  0.13218936237E+03  0.00000000000E+00 0.  1.
        -13    1    3    3    0    0 -0.43083818232E+02  0.19485239445E+02  0.14359249306E+02  0.49417385506E+02  0.00000000000E+00 0.  1.
         13    1    3    3    0    0 -0.41271646887E+02  0.19038592001E+02 -0.84234610278E+02  0.95714609077E+02  0.00000000000E+00 0. -1.
         21    1    1    2  502  501  0.16733149374E+03 -0.30860512338E+02 -0.13705190587E+03  0.21848438141E+03  0.00000000000E+00 0. -1.
<scales pt_clust_5="13000.00000" pt_clust_6="13000.00000" pt_clust_7="13000.00000" pt_clust_8="13000.00000" pt_clust_9="120.99169"></scales>
<clustering>
<clus scale="   87.068">  7  8 -1 -1</clus>
<clus scale="   90.892">  5  6 -1 -1</clus>
<clus scale="  123.309">  2  5  1 -1</clus>
<clus scale="  120.992">  2  9  1 -1</clus>
<clus scale="  123.309">  2  5  1 -1</clus>
</clustering>
</event>
<event>
 9    1  0.1266593E-005  0.1261877E+03  0.7546771E-02  0.1233285E+00
         -1   -1    0    0    0  501 -0.00000000000E+00  0.00000000000E+00  0.28284673478E+02  0.28284673478E+02  0.00000000000E+00 0.  1.
          1   -1    0    0  502    0  0.00000000000E+00 -0.00000000000E+00 -0.68683770015E+03  0.68683770015E+03  0.00000000000E+00 0. -1.
         23    2    1    2    0    0  0.88849188573E+02  0.19218802196E+02 -0.26019650765E+03  0.29031499014E+03  0.91197753473E+02 0.  0.
         23    2    1    2    0    0 -0.77097402975E+02 -0.36253545933E+02 -0.36217101940E+03  0.38312192629E+03  0.91412438830E+02 0.  0.
        -11    1    4    4    0    0 -0.47951985912E+02 -0.60653863208E+02 -0.16366893110E+03  0.18101326770E+03  0.00000000000E+00 0.  1.
         11    1    4    4    0    0 -0.29145417062E+02  0.24400317275E+02 -0.19850208829E+03  0.20210865859E+03  0.00000000000E+00 0. -1.
        -11    1    3    3    0    0  0.84536425492E+02 -0.21691147850E+02 -0.16654409774E+03  0.18802619398E+03  0.00000000000E+00 0.  1.
         11    1    3    3    0    0  0.43127630810E+01  0.40909950046E+02 -0.93652409908E+02  0.10228879616E+03  0.00000000000E+00 0. -1.
         21    1    1    2  502  501 -0.11751785599E+02  0.17034743737E+02 -0.36185499622E+02  0.41685457199E+02  0.00000000000E+00 0. -1.
<scales pt_clust_5="13000.00000" pt_clust_6="13000.00000" pt_clust_7="13000.00000" pt_clust_8="13000.00000" pt_clust_9="20.69510"></scales>
<clustering>
<clus scale="   20.695">  1  9  2 -1</clus>
<clus scale="   91.198">  7  8 -1 -1</clus>
<clus scale="   91.412">  5  6 -1 -1</clus>
<clus scale="  126.032">  1  7  2 -1</clus>
<clus scale="  126.188">  2  5  1 -1</clus>
</clustering>
</event>
<event>
 9    1  0.1266593E-005  0.1102068E+03  0.7546771E-02  0.1260559E+00
         -1   -1    0    0    0  501 -0.00000000000E+00  0.00000000000E+00  0.33668119976E+03  0.33668119976E+03  0.00000000000E+00 0.  1.
          1   -1    0    0  502    0  0.00000000000E+00 -0.00000000000E+00 -0.51310280273E+02  0.51310280273E+02  0.00000000000E+00 0. -1.
         23    2    1    2    0    0 -0.23682592711E+02 -0.64773203589E+02  0.11251097847E+03  0.16039083357E+03  0.91159564036E+02 0.  0.
         23    2    1    2    0    0  0.14422789696E+01  0.54984239938E+02  0.86291889246E+02  0.13768689361E+03  0.92119724886E+02 0.  0.
        -11    1    4    4    0    0 -0.22900647110E+02 -0.30651172793E+01  0.68473725898E+02  0.72266767746E+02  0.00000000000E+00 0.  1.
         11    1    4    4    0    0  0.24342926080E+02  0.58049357217E+02  0.17818163348E+02  0.65420125868E+02  0.00000000000E+00 0. -1.
        -11    1    3    3    0    0  0.32681149197E+02 -0.24470507622E+02  0.21922707196E+02  0.46340784919E+02  0.00000000000E+00 0. -1.
         11    1    3    3    0    0 -0.56363741908E+02 -0.40302695967E+02  0.90588271274E+02  0.11405004865E+03  0.00000000000E+00 0.  1.
         21    1    1    2  502  501  0.22240313741E+02  0.97889636510E+01  0.86568051768E+02  0.89913752850E+02  0.00000000000E+00 0.  1.
<scales pt_clust_5="13000.00000" pt_clust_6="13000.00000" pt_clust_7="13000.00000" pt_clust_8="13000.00000" pt_clust_9="24.29929"></scales>
<clustering>
<clus scale="   24.299">  1  9  2 -1</clus>
<clus scale="   91.160">  7  8 -1 -1</clus>
<clus scale="   92.120">  5  6 -1 -1</clus>
<clus scale="  109.405">  1  7  2 -1</clus>
<clus scale="  110.207">  2  5  1 -1</clus>
</clustering>
</event>
<event>
 9    1  0.1266593E-005  0.1232259E+03  0.7546771E-02  0.1239818E+00
         -1   -1    0    0    0  501 -0.00000000000E+00  0.00000000000E+00  0.16611753432E+03  0.16611753432E+03  0.00000000000E+00 0.  1.
          1   -1    0    0  502    0  0.00000000000E+00 -0.00000000000E+00 -0.14350205090E+03  0.14350205090E+03  0.00000000000E+00 0. -1.
         23    2    1    2    0    0  0.49483775102E+02 -0.69889461350E+02  0.23164827114E+01  0.12925299924E+03  0.96787348940E+02 0.  0.
         23    2    1    2    0    0 -0.64015713196E+02  0.35205361637E+02 -0.27452936647E+02  0.11958491506E+03  0.90606065771E+02 0.  0.
        -13    1    3    3    0    0 -0.77237164287E+01 -0.44598497117E+02  0.36343699509E+02  0.58047792676E+02  0.00000000000E+00 0. -1.
         13    1    3    3    0    0  0.57207491531E+02 -0.25290964233E+02 -0.34027216798E+02  0.71205206566E+02  0.00000000000E+00 0.  1.
        -13    1    4    4    0    0  0.24601468448E+01  0.26579061677E+02  0.23358828773E+02  0.35470180769E+02  0.00000000000E+00 0.  1.
         13    1    4    4    0    0 -0.66475860041E+02  0.86262999607E+01 -0.50811765420E+02  0.84114734288E+02  0.00000000000E+00 0. -1.
         21    1    1    2  502  501  0.14531938094E+02  0.34684099713E+02  0.47751937361E+02  0.60781670916E+02  0.00000000000E+00 0.  1.
<scales pt_clust_5="13000.00000" pt_clust_6="13000.00000" pt_clust_7="13000.00000" pt_clust_8="13000.00000" pt_clust_9="37.60537"></scales>
<clustering>
<clus scale="   37.605">  1  9  2 -1</clus>
<clus scale="   90.606">  7  8 -1 -1</clus>
<clus scale="   96.787">  5  6 -1 -1</clus>
<clus scale="  118.433">  2  7  1 -1</clus>
<clus scale="  118.433">  2  5  1 -1</clus>
</clustering>
</event>
<event>
 9    1  0.1266593E-005  0.9688049E+02  0.7546771E-02  0.1288513E+00
          1   -1    0    0  502    0  0.00000000000E+00  0.00000000000E+00  0.56266054131E+02  0.56266054131E+02  0.00000000000E+00 0. -1.
         -1   -1    0    0    0  501 -0.00000000000E+00 -0.00000000000E+00 -0.30413907313E+03  0.30413907313E+03  0.00000000000E+00 0.  1.
         23    2    1    2    0    0 -0.11307875236E+02 -0.26541443056E+02 -0.11150080686E+03  0.14830033266E+03  0.93425063527E+02 0.  0.
         23    2    1    2    0    0  0.28270168292E+02  0.47237829185E+01 -0.26272079786E+02  0.98589294233E+02  0.90598621516E+02 0.  0.
        -13    1    3    3    0    0  0.35752808584E+02 -0.12475795408E+02 -0.16403132582E+02  0.41267075874E+02  0.00000000000E+00 0. -1.
         13    1    3    3    0    0 -0.47060683819E+02 -0.14065647648E+02 -0.95097674281E+02  0.10703325679E+03  0.00000000000E+00 0.  1.
        -13    1    4    4    0    0  0.32346129653E+02  0.31924698954E+02  0.15978912956E+02  0.48174517809E+02  0.00000000000E+00 0. -1.
         13    1    4    4    0    0 -0.40759613602E+01 -0.27200916036E+02 -0.42250992742E+02  0.50414776424E+02  0.00000000000E+00 0.  1.
         21    1    1    2  502  501 -0.16962293057E+02  0.21817660137E+02 -0.11010013235E+03  0.11351550036E+03  0.00000000000E+00 0. -1.
<scales pt_clust_5="13000.00000" pt_clust_6="13000.00000" pt_clust_7="13000.00000" pt_clust_8="13000.00000" pt_clust_9="27.63566"></scales>
<clustering>
<clus scale="   27.636">  2  9  1 -1</clus>
<clus scale="   90.599">  7  8 -1 -1</clus>
<clus scale="   93.425">  5  6 -1 -1</clus>
<clus scale="   94.158">  1  7  2 -1</clus>
<clus scale="   94.158">  1  5  2 -1</clus>
</clustering>
</event>
<event>
 9    1  0.1266593E-005  0.9413031E+02  0.7546771E-02  0.1293331E+00
          1   -1    0    0  502    0  0.00000000000E+00  0.00000000000E+00  0.10135213399E+03  0.10135213399E+03  0.00000000000E+00 0. -1.
         -1   -1    0    0    0  501 -0.00000000000E+00 -0.00000000000E+00 -0.16077200358E+03  0.16077200358E+03  0.00000000000E+00 0.  1.
         23    2    1    2    0    0 -0.17895758522E+02  0.27191626032E+01 -0.94106221037E+02  0.13269388956E+03  0.91782544473E+02 0.  0.
         23    2    1    2    0    0  0.17021729613E+02 -0.27103646739E+02  0.38297955145E+02  0.10476426587E+03  0.92111188736E+02 0.  0.
        -11    1    3    3    0    0 -0.38697681288E+02  0.28269159817E+00 -0.25609806741E+01  0.38783360783E+02  0.00000000000E+00 0.  1.
         11    1    3    3    0    0  0.20801922766E+02  0.24364710051E+01 -0.91545240363E+02  0.93910528775E+02  0.00000000000E+00 0. -1.
        -13    1    4    4    0    0  0.41337431126E+00  0.31978918533E+02  0.28054729129E+02  0.42542801217E+02  0.00000000000E+00 0. -1.
         13    1    4    4    0    0  0.16608355302E+02 -0.59082565272E+02  0.10243226016E+02  0.62221464658E+02  0.00000000000E+00 0.  1.
         21    1    1    2  502  501  0.87402890835E+00  0.24384484136E+02 -0.36116036998E+01  0.24665982129E+02  0.00000000000E+00 0. -1.
<scales pt_clust_5="13000.00000" pt_clust_6="13000.00000" pt_clust_7="13000.00000" pt_clust_8="13000.00000" pt_clust_9="24.40014"></scales>
<clustering>
<clus scale="   24.400">  1  9  2 -1</clus>
<clus scale="   91.783">  5  6 -1 -1</clus>
<clus scale="   92.111">  7  8 -1 -1</clus>
<clus scale="   93.809">  2  5  1 -1</clus>
<clus scale="   24.400">  1  5  2 -1</clus>
</clustering>
</event>
<event>
 9    1  0.1266593E-005  0.1790460E+03  0.7546771E-02  0.1168781E+00
         -1   -1    0    0    0  501 -0.00000000000E+00  0.00000000000E+00  0.98124950550E+02  0.98124950550E+02  0.00000000000E+00 0.  1.
          1   -1    0    0  502    0  0.00000000000E+00 -0.00000000000E+00 -0.40914903194E+03  0.40914903194E+03  0.00000000000E+00 0. -1.
         23    2    1    2    0    0  0.83221661990E+02  0.15091881753E+03 -0.17975030484E+03  0.26528056441E+03  0.91439987169E+02 0.  0.
         23    2    1    2    0    0 -0.69907627933E+02 -0.11698636682E+03 -0.12219675913E+03  0.20442924687E+03  0.91029569742E+02 0.  0.
        -11    1    3    3    0    0 -0.16594225651E+02  0.24567888805E+02 -0.51510549584E+02  0.59433039664E+02  0.00000000000E+00 0.  1.
         11    1    3    3    0    0  0.99815887641E+02  0.12635092872E+03 -0.12823975526E+03  0.20584752474E+03  0.00000000000E+00 0. -1.
        -13    1    4    4    0    0 -0.40565096367E+02 -0.58194833388E+02 -0.63190925041E+01  0.71218653500E+02  0.00000000000E+00 0. -1.
         13    1    4    4    0    0 -0.29342531565E+02 -0.58791533433E+02 -0.11587766663E+03  0.13321059337E+03  0.00000000000E+00 0.  1.
         21    1    1    2  502  501 -0.13314034057E+02 -0.33932450706E+02 -0.90770174114E+01  0.37564171213E+02  0.00000000000E+00 0. -1.
<scales pt_clust_5="13000.00000" pt_clust_6="13000.00000" pt_clust_7="13000.00000" pt_clust_8="13000.00000" pt_clust_9="36.45099"></scales>
<clustering>
<clus scale="   36.451">  1  9  2 -1</clus>
<clus scale="   91.030">  7  8 -1 -1</clus>
<clus scale="   91.440">  5  6 -1 -1</clus>
<clus scale="  178.837">  2  7  1 -1</clus>
<clus scale="  178.837">  2  5  1 -1</clus>
</clustering>
</event>
<event>
 9    1  0.1266593E-005  0.1048472E+03  0.7546771E-02  0.1270473E+00
          1   -1    0    0  502    0  0.00000000000E+00  0.00000000000E+00  0.77580722893E+03  0.77580722893E+03  0.00000000000E+00 0. -1.
         -1   -1    0    0    0  501 -0.00000000000E+00 -0.00000000000E+00 -0.34648901881E+02  0.34648901881E+02  0.00000000000E+00 0.  1.
         23    2    1    2    0    0 -0.13170240551E+02  0.60633737664E+02  0.19609257020E+03  0.22560260271E+03  0.92705624869E+02 0.  0.
         23    2    1    2    0    0 -0.16608799582E+02 -0.43924262383E+02  0.54052733732E+03  0.55040653916E+03  0.92587055837E+02 0.  0.
        -13    1    3    3    0    0 -0.32763180626E+02  0.88845419236E-01  0.12914548328E+03  0.13323659314E+03  0.00000000000E+00 0. -1.
         13    1    3    3    0    0  0.19592940075E+02  0.60544892245E+02  0.66947086914E+02  0.92366009570E+02  0.00000000000E+00 0.  1.
        -13    1    4    4    0    0 -0.28820838711E+02  0.21388267355E+02  0.14759505910E+03  0.15189601771E+03  0.00000000000E+00 0. -1.
         13    1    4    4    0    0  0.12212039128E+02 -0.65312529738E+02  0.39293227822E+03  0.39851052145E+03  0.00000000000E+00 0.  1.
         21    1    1    2  502  501  0.29779040133E+02 -0.16709475281E+02  0.45384195285E+01  0.34446988943E+02  0.00000000000E+00 0.  1.
<scales pt_clust_5="13000.00000" pt_clust_6="13000.00000" pt_clust_7="13000.00000" pt_clust_8="13000.00000" pt_clust_9="34.14671"></scales>
<clustering>
<clus scale="   34.147">  2  9  1 -1</clus>
<clus scale="   92.587">  7  8 -1 -1</clus>
<clus scale="   92.706">  5  6 -1 -1</clus>
<clus scale="  104.742">  1  7  2 -1</clus>
<clus scale="  104.742">  1  5  2 -1</clus>
</clustering>
</event>
<event>
 9    1  0.1266593E-005  0.1028052E+03  0.7546771E-02  0.1275666E+00
         -1   -1    0    0    0  501 -0.00000000000E+00  0.00000000000E+00  0.48137274374E+03  0.48137274374E+03  0.00000000000E+00 0.  1.
          1   -1    0    0  502    0  0.00000000000E+00 -0.00000000000E+00 -0.28535307047E+03  0.28535307047E+03  0.00000000000E+00 0. -1.
         23    2    1    2    0    0  0.16777286292E+01  0.17503606458E+02  0.16410089575E+03  0.18811060041E+03  0.90262411817E+02 0.  0.
         23    2    1    2    0    0  0.39534160915E+02 -0.24156981420E+02 -0.26198415088E+03  0.28176235706E+03  0.92778342897E+02 0.  0.
        -13    1    4    4    0    0 -0.45255748074E+01 -0.34267986405E+02 -0.31108638633E+02  0.46502936651E+02  0.00000000000E+00 0.  1.
         13    1    4    4    0    0  0.44059735723E+02  0.10111004985E+02 -0.23087551225E+03  0.23525942041E+03  0.00000000000E+00 0. -1.
        -13    1    3    3    0    0 -0.79771639347E+01  0.53794936947E+02  0.99101576598E+02  0.11304270374E+03  0.00000000000E+00 0.  1.
         13    1    3    3    0    0  0.96548925639E+01 -0.36291330489E+02  0.64999319153E+02  0.75067896664E+02  0.00000000000E+00 0. -1.
         21    1    1    2  502  501 -0.41211889545E+02  0.66533749624E+01  0.29390292840E+03  0.29685285675E+03  0.00000000000E+00 0. -1.
<scales pt_clust_5="13000.00000" pt_clust_6="13000.00000" pt_clust_7="13000.00000" pt_clust_8="13000.00000" pt_clust_9="41.74551"></scales>
<clustering>
<clus scale="   41.746">  1  9  2 -1</clus>
<clus scale="   90.262">  7  8 -1 -1</clus>
<clus scale="   92.778">  5  6 -1 -1</clus>
<clus scale="  100.541">  1  7  2 -1</clus>
<clus scale="  102.805">  2  5  1 -1</clus>
</clustering>
</event>
<event>
 9    1  0.1266593E-005  0.1631047E+03  0.7546771E-02  0.1210685E+00
         -2   -1    0    0    0  501 -0.00000000000E+00  0.00000000000E+00  0.11290911634E+03  0.11290911634E+03  0.00000000000E+00 0.  1.
          2   -1    0    0  502    0  0.00000000000E+00 -0.00000000000E+00 -0.73180554953E+03  0.73180554953E+03  0.00000000000E+00 0. -1.
         23    2    1    2    0    0  0.16032054071E+03 -0.52506861341E+01 -0.43996900066E+03  0.47685592845E+03  0.89936697090E+02 0.  0.
         23    2    1    2    0    0 -0.27036259688E+02  0.46940900448E+01 -0.21092678878E+03  0.23078588027E+03  0.89548972558E+02 0.  0.
        -11    1    3    3    0    0  0.15403120737E+03  0.20020165804E+02 -0.40054263176E+03  0.42960542332E+03  0.00000000000E+00 0. -1.
         11    1    3    3    0    0  0.62893333372E+01 -0.25270851938E+02 -0.39426368896E+02  0.47250505138E+02  0.00000000000E+00 0.  1.
        -11    1    4    4    0    0  0.51738007898E+01  0.36244976120E+02 -0.40949610936E+02  0.54930293503E+02  0.00000000000E+00 0.  1.
         11    1    4    4    0    0 -0.32210060478E+02 -0.31550886075E+02 -0.16997717785E+03  0.17585558677E+03  0.00000000000E+00 0. -1.
         21    1    1    2  502  501 -0.13328428102E+03  0.55659608922E+00  0.31999356250E+02  0.13707285715E+03  0.00000000000E+00 0.  1.
<scales pt_clust_5="13000.00000" pt_clust_6="13000.00000" pt_clust_7="13000.00000" pt_clust_8="13000.00000" pt_clust_9="136.06817"></scales>
<clustering>
<clus scale="   89.549">  7  8 -1 -1</clus>
<clus scale="   89.937">  5  6 -1 -1</clus>
<clus scale="   93.659">  2  7  1 -1</clus>
<clus scale="  136.068">  1  9  2 -1</clus>
<clus scale="   93.659">  2  5  1 -1</clus>
</clustering>
</event>
<event>
 9    1  0.2056272E-005  0.1786151E+03  0.7546771E-02  0.1169404E+00
         -2   -1    0    0    0  501 -0.00000000000E+00  0.00000000000E+00  0.22475604879E+03  0.22475604879E+03  0.00000000000E+00 0.  1.
          2   -1    0    0  502    0  0.00000000000E+00 -0.00000000000E+00 -0.54775118978E+03  0.54775118978E+03  0.00000000000E+00 0. -1.
         23    2    1    2    0    0  0.13906216663E+03 -0.63079935726E+02  0.14665191400E+03  0.23071096452E+03  0.91670064852E+02 0.  0.
         23    2    1    2    0    0 -0.16663576745E+03  0.17847275037E+02 -0.44394562243E+03  0.48291622063E+03  0.89634570617E+02 0.  0.
        -11    1    3    3    0    0  0.73981216213E+02  0.11728578433E+02  0.87778670696E+02  0.11539443199E+03  0.00000000000E+00 0.  1.
         11    1    3    3    0    0  0.65080950418E+02 -0.74808514159E+02  0.58873243302E+02  0.11531653253E+03  0.00000000000E+00 0. -1.
        -13    1    4    4    0    0 -0.57326071057E+02  0.14479685761E+02 -0.62215481978E+02  0.85829516603E+02  0.00000000000E+00 0.  1.
         13    1    4    4    0    0 -0.10930969640E+03  0.33675892760E+01 -0.38173014045E+03  0.39708670402E+03  0.00000000000E+00 0. -1.
         21    1    1    2  502  501  0.27573600822E+02  0.45232660689E+02 -0.25701432560E+02  0.58880053422E+02  0.00000000000E+00 0. -1.
<scales pt_clust_5="13000.00000" pt_clust_6="13000.00000" pt_clust_7="13000.00000" pt_clust_8="13000.00000" pt_clust_9="52.97449"></scales>
<clustering>
<clus scale="   52.974">  2  9  1 -1</clus>
<clus scale="   89.635">  7  8 -1 -1</clus>
<clus scale="   91.670">  5  6 -1 -1</clus>
<clus scale="  177.579">  2  7  1 -1</clus>
<clus scale="   52.974">  2  5  1 -1</clus>
</clustering>
</event>
<event>
 9    1  0.1266593E-005  0.1108066E+03  0.7546771E-02  0.1263758E+00
          2   -1    0    0  502    0  0.00000000000E+00  0.00000000000E+00  0.34403449226E+03  0.34403449226E+03  0.00000000000E+00 0. -1.
         -2   -1    0    0    0  501 -0.00000000000E+00 -0.00000000000E+00 -0.96692083108E+02  0.96692083108E+02  0.00000000000E+00 0.  1.
         23    2    1    2    0    0 -0.27411536989E+02  0.37901756326E+02  0.30843672272E+02  0.10688128961E+03  0.91018363292E+02 0.  0.
         23    2    1    2    0    0 -0.12063574738E+02 -0.45797986388E+02  0.25472381739E+03  0.27833139853E+03  0.10169148867E+03 0.  0.
        -11    1    4    4    0    0 -0.37474685589E+02 -0.57965729070E+02  0.23225546561E+03  0.24229523130E+03  0.00000000000E+00 0. -1.
         11    1    4    4    0    0  0.25411110851E+02  0.12167742681E+02  0.22468351787E+02  0.36036167231E+02  0.00000000000E+00 0.  1.
        -13    1    3    3    0    0  0.24576365095E+02  0.33578711720E+02  0.35240384874E+02  0.54529004467E+02  0.00000000000E+00 0.  1.
         13    1    3    3    0    0 -0.51987902084E+02  0.43230446054E+01 -0.43967126023E+01  0.52352285141E+02  0.00000000000E+00 0. -1.
         21    1    1    2  502  501  0.39475111727E+02  0.78962300629E+01 -0.38225080513E+02  0.55513887229E+02  0.00000000000E+00 0.  1.
<scales pt_clust_5="13000.00000" pt_clust_6="13000.00000" pt_clust_7="13000.00000" pt_clust_8="13000.00000" pt_clust_9="40.25711"></scales>
<clustering>
<clus scale="   40.257">  2  9  1 -1</clus>
<clus scale="   91.018">  7  8 -1 -1</clus>
<clus scale="  101.100">  2  7  1 -1</clus>
<clus scale="  101.691">  5  6 -1 -1</clus>
<clus scale="  110.807">  1  5  2 -1</clus>
</clustering>
</event>
<event>
 9    1  0.1266593E-005  0.9842670E+02  0.7546771E-02  0.1284400E+00
         -3   -1    0    0    0  501 -0.00000000000E+00  0.00000000000E+00  0.99382717636E+02  0.99382717636E+02  0.00000000000E+00 0.  1.
          3   -1    0    0  502    0  0.00000000000E+00 -0.00000000000E+00 -0.24583920688E+03  0.24583920688E+03  0.00000000000E+00 0. -1.
         23    2    1    2    0    0  0.32959904235E+02  0.45735111654E+02 -0.10866202721E+02  0.10453423870E+03  0.87357180432E+02 0.  0.
         23    2    1    2    0    0 -0.37792381483E+02 -0.13806764668E+02 -0.16840990599E+03  0.19464531838E+03  0.88915761721E+02 0.  0.
        -13    1    4    4    0    0  0.55478308906E+01  0.24460904656E+02 -0.10859943178E+03  0.11145829205E+03  0.00000000000E+00 0.  1.
         13    1    4    4    0    0 -0.43340212373E+02 -0.38267669324E+02 -0.59810474215E+02  0.83187026332E+02  0.00000000000E+00 0. -1.
        -13    1    3    3    0    0  0.18673769627E+02  0.31548019921E+02 -0.49127776954E+02  0.61298659867E+02  0.00000000000E+00 0. -1.
         13    1    3    3    0    0  0.14286134608E+02  0.14187091733E+02  0.38261574233E+02  0.43235578829E+02  0.00000000000E+00 0.  1.
         21    1    1    2  502  501  0.48324772481E+01 -0.31928346986E+02  0.32819619468E+02  0.46042367441E+02  0.00000000000E+00 0.  1.
<scales pt_clust_5="13000.00000" pt_clust_6="13000.00000" pt_clust_7="13000.00000" pt_clust_8="13000.00000" pt_clust_9="32.29198"></scales>
<clustering>
<clus scale="   32.292">  1  9  2 -1</clus>
<clus scale="   87.357">  7  8 -1 -1</clus>
<clus scale="   88.916">  5  6 -1 -1</clus>
<clus scale="   97.021">  1  7  2 -1</clus>
<clus scale="   98.427">  2  5  1 -1</clus>
</clustering>
</event>
<event>
 9    1  0.2621315E-005  0.1394264E+03  0.7546771E-02  0.1214745E+00
          2   -1    0    0  502    0  0.00000000000E+00  0.00000000000E+00  0.68922315937E+03  0.68922315937E+03  0.00000000000E+00 0.  1.
         -2   -1    0    0    0  501 -0.00000000000E+00 -0.00000000000E+00 -0.84587637167E+02  0.84587637167E+02  0.00000000000E+00 0. -1.
         23    2    1    2    0    0 -0.11778707038E+03 -0.51246232741E+02  0.16914626543E+02  0.15729900195E+03  0.89201463583E+02 0.  0.
         23    2    1    2    0    0  0.92790451623E+02  0.42141374921E+02  0.56522067414E+03  0.58166944458E+03  0.92081316743E+02 0.  0.
        -13    1    4    4    0    0  0.88467854866E+01  0.51980613927E+02  0.20627884827E+03  0.21291127984E+03  0.00000000000E+00 0. -1.
         13    1    4    4    0    0  0.83943666137E+02 -0.98392390058E+01  0.35894182587E+03  0.36875816474E+03  0.00000000000E+00 0.  1.
        -13    1    3    3    0    0  0.80093359609E+01 -0.27126103375E+02  0.39040065403E+01  0.28551991417E+02  0.00000000000E+00 0.  1.
         13    1    3    3    0    0 -0.12579640634E+03 -0.24120129367E+02  0.13010620003E+02  0.12874701054E+03  0.00000000000E+00 0. -1.
         21    1    1    2  502  501  0.24996618758E+02  0.91048578199E+01  0.22500221527E+02  0.34842350007E+02  0.00000000000E+00 0. -1.
<scales pt_clust_5="13000.00000" pt_clust_6="13000.00000" pt_clust_7="13000.00000" pt_clust_8="13000.00000" pt_clust_9="26.60318"></scales>
<clustering>
<clus scale="   26.603">  2  9  1 -1</clus>
<clus scale="   89.201">  7  8 -1 -1</clus>
<clus scale="   92.081">  5  6 -1 -1</clus>
<clus scale="  137.541">  2  7  1 -1</clus>
<clus scale="  139.426">  1  5  2 -1</clus>
</clustering>
</event>
<event>
 9    1  0.1266593E-005  0.1095131E+03  0.7546771E-02  0.1262862E+00
          1   -1    0    0  502    0  0.00000000000E+00  0.00000000000E+00  0.22190173395E+03  0.22190173395E+03  0.00000000000E+00 0. -1.
         -1   -1    0    0    0  501 -0.00000000000E+00 -0.00000000000E+00 -0.70425595840E+02  0.70425595840E+02  0.00000000000E+00 0.  1.
         23    2    1    2    0    0 -0.15655374881E+02  0.11176799627E+02  0.63065955701E+02  0.12768653947E+03  0.10934590061E+03 0.  0.
         23    2    1    2    0    0 -0.30030478947E+01  0.24145408644E+01  0.92684934138E+02  0.14116453042E+03  0.10640525987E+03 0.  0.
        -11    1    3    3    0    0  0.20429698783E+02 -0.39734206670E+02  0.43326807160E+02  0.62236580808E+02  0.00000000000E+00 0.  1.
         11    1    3    3    0    0 -0.36085073663E+02  0.50911006297E+02  0.19739148541E+02  0.65449958660E+02  0.00000000000E+00 0. -1.
        -13    1    4    4    0    0 -0.49896019498E+01  0.49111675664E+02  0.77749445745E+02  0.92096846460E+02  0.00000000000E+00 0. -1.
         13    1    4    4    0    0  0.19865540551E+01 -0.46697134800E+02  0.14935488393E+02  0.49067683959E+02  0.00000000000E+00 0.  1.
         21    1    1    2  502  501  0.18658422775E+02 -0.13591340492E+02 -0.42747517270E+01  0.23476259905E+02  0.00000000000E+00 0.  1.
<scales pt_clust_5="13000.00000" pt_clust_6="13000.00000" pt_clust_7="13000.00000" pt_clust_8="13000.00000" pt_clust_9="23.08379"></scales>
<clustering>
<clus scale="   23.084">  2  9  1 -1</clus>
<clus scale="  106.405">  7  8 -1 -1</clus>
<clus scale="  106.577">  1  7  2 -1</clus>
<clus scale="  109.346">  5  6 -1 -1</clus>
<clus scale="  106.577">  1  5  2 -1</clus>
</clustering>
</event>
<event>
 9    1  0.1266593E-005  0.1109022E+03  0.7546771E-02  0.1259917E+00
          2   -1    0    0  502    0  0.00000000000E+00  0.00000000000E+00  0.52199293830E+03  0.52199293830E+03  0.00000000000E+00 0. -1.
         -2   -1    0    0    0  501 -0.00000000000E+00 -0.00000000000E+00 -0.12006818346E+03  0.12006818346E+03  0.00000000000E+00 0.  1.
         23    2    1    2    0    0  0.36029935101E+02 -0.14216984903E+02 -0.81557708535E+02  0.13770702335E+03  0.10397733203E+03 0.  0.
         23    2    1    2    0    0 -0.40582384356E+02 -0.57692005541E+01  0.46133810431E+03  0.47417885952E+03  0.10164905671E+03 0.  0.
        -13    1    4    4    0    0  0.29345531368E+01  0.43653107513E+02  0.18488391984E+03  0.18999018189E+03  0.00000000000E+00 0.  1.
         13    1    4    4    0    0 -0.43516937492E+02 -0.49422308067E+02  0.27645418447E+03  0.28418867763E+03  0.00000000000E+00 0. -1.
        -13    1    3    3    0    0  0.48410366197E+02  0.24450439130E+02 -0.80533697044E+02  0.97093068179E+02  0.00000000000E+00 0.  1.
         13    1    3    3    0    0 -0.12380431096E+02 -0.38667424033E+02 -0.10240114910E+01  0.40613955175E+02  0.00000000000E+00 0. -1.
         21    1    1    2  502  501  0.45524492547E+01  0.19986185457E+02  0.22144359064E+02  0.30175238884E+02  0.00000000000E+00 0. -1.
<scales pt_clust_5="13000.00000" pt_clust_6="13000.00000" pt_clust_7="13000.00000" pt_clust_8="13000.00000" pt_clust_9="20.49811"></scales>
<clustering>
<clus scale="   20.498">  1  9  2 -1</clus>
<clus scale="  101.649">  5  6 -1 -1</clus>
<clus scale="  103.977">  7  8 -1 -1</clus>
<clus scale="  108.722">  1  5  2 -1</clus>
<clus scale="   20.498">  1  5  2 -1</clus>
</clustering>
</event>
<event>
 9    1  0.1266593E-005  0.9615788E+02  0.7546771E-02  0.1294916E+00
          1   -1    0    0  502    0  0.00000000000E+00  0.00000000000E+00  0.33980758713E+03  0.33980758713E+03  0.00000000000E+00 0. -1.
         -1   -1    0    0    0  501 -0.00000000000E+00 -0.00000000000E+00 -0.91305912762E+02  0.91305912762E+02  0.00000000000E+00 0.  1.
         23    2    1    2    0    0  0.28363491731E+02  0.77372490783E+01  0.14021573165E+03  0.16555193443E+03  0.82961671304E+02 0.  0.
         23    2    1    2    0    0 -0.39693259459E+00 -0.21293859578E+02  0.17060088463E+03  0.19592635811E+03  0.93962172986E+02 0.  0.
        -11    1    3    3    0    0  0.78356720366E+00  0.42996523611E+02  0.74926706657E+02  0.86390545725E+02  0.00000000000E+00 0.  1.
         11    1    3    3    0    0  0.27579924527E+02 -0.35259274533E+02  0.65289024988E+02  0.79161388703E+02  0.00000000000E+00 0. -1.
        -13    1    4    4    0    0 -0.75686270494E+01 -0.45246661086E+02  0.16367350538E+03  0.16998106017E+03  0.00000000000E+00 0. -1.
         13    1    4    4    0    0  0.71716944548E+01  0.23952801508E+02  0.69273792526E+01  0.25945297931E+02  0.00000000000E+00 0.  1.
         21    1    1    2  502  501 -0.27966559136E+02  0.13556610500E+02 -0.62314941911E+02  0.69635207356E+02  0.00000000000E+00 0. -1.
<scales pt_clust_5="13000.00000" pt_clust_6="13000.00000" pt_clust_7="13000.00000" pt_clust_8="13000.00000" pt_clust_9="31.07909"></scales>
<clustering>
<clus scale="   31.079">  2  9  1 -1</clus>
<clus scale="   82.962">  5  6 -1 -1</clus>
<clus scale="   85.441">  2  5  1 -1</clus>
<clus scale="   93.962">  7  8 -1 -1</clus>
<clus scale="   96.158">  1  5  2 -1</clus>
</clustering>
</event>
<event>
 9    1  0.1266593E-005  0.9371796E+02  0.7546771E-02  0.1295553E+00
          1   -1    0    0  502    0  0.00000000000E+00  0.00000000000E+00  0.65456586061E+03  0.65456586061E+03  0.00000000000E+00 0. -1.
         -1   -1    0    0    0  501 -0.00000000000E+00 -0.00000000000E+00 -0.20388360701E+02  0.20388360701E+02  0.00000000000E+00 0.  1.
         23    2    1    2    0    0  0.20736673398E+02 -0.19932918041E+02  0.17553143793E+03  0.19932785666E+03  0.89960979838E+02 0.  0.
         23    2    1    2    0    0 -0.36697957318E+01  0.90571102673E+01  0.43339710557E+03  0.44326788342E+03  0.92508738545E+02 0.  0.
        -11    1    4    4    0    0 -0.38948830968E+02  0.31420121781E+02  0.20020886148E+03  0.20636817512E+03  0.00000000000E+00 0.  1.
         11    1    4    4    0    0  0.35279035236E+02 -0.22363011514E+02  0.23318824408E+03  0.23689970830E+03  0.00000000000E+00 0. -1.
        -13    1    3    3    0    0 -0.32098262822E+02  0.88142911421E+01  0.49123468428E+02  0.59338902543E+02  0.00000000000E+00 0.  1.
         13    1    3    3    0    0  0.52834936220E+02 -0.28747209183E+02  0.12640796950E+03  0.13998895411E+03  0.00000000000E+00 0. -1.
         21    1    1    2  502  501 -0.17066877666E+02  0.10875807774E+02  0.25248956411E+02  0.32358481235E+02  0.00000000000E+00 0. -1.
<scales pt_clust_5="13000.00000" pt_clust_6="13000.00000" pt_clust_7="13000.00000" pt_clust_8="13000.00000" pt_clust_9="20.23763"></scales>
<clustering>
<clus scale="   20.238">  2  9  1 -1</clus>
<clus scale="   89.961">  7  8 -1 -1</clus>
<clus scale="   91.204">  2  7  1 -1</clus>
<clus scale="   92.509">  5  6 -1 -1</clus>
<clus scale="   93.718">  1  5  2 -1</clus>
</clustering>
</event>
<event>
 9    1  0.1266593E-005  0.2015227E+03  0.7546771E-02  0.1156579E+00
         -1   -1    0    0    0  501 -0.00000000000E+00  0.00000000000E+00  0.21196332372E+03  0.21196332372E+03  0.00000000000E+00 0.  1.
          1   -1    0    0  502    0  0.00000000000E+00 -0.00000000000E+00 -0.58928549373E+03  0.58928549373E+03  0.00000000000E+00 0. -1.
         23    2    1    2    0    0  0.25077849482E+03 -0.10190253665E+02 -0.14466473580E+03  0.30378320711E+03  0.91447560956E+02 0.  0.
         23    2    1    2    0    0 -0.10463612692E+03  0.90219259498E+02 -0.27870382092E+03  0.32460004640E+03  0.92742312284E+02 0.  0.
        -11    1    3    3    0    0  0.16943217094E+02  0.16330438061E+02  0.60843795891E+01  0.24305873523E+02  0.00000000000E+00 0. -1.
         11    1    3    3    0    0  0.23383527772E+03 -0.26520691726E+02 -0.15074911539E+03  0.27947733359E+03  0.00000000000E+00 0.  1.
        -11    1    4    4    0    0  0.12081709130E+02  0.28505366265E+02 -0.82424225948E+02  0.88047013717E+02  0.00000000000E+00 0.  1.
         11    1    4    4    0    0 -0.11671783605E+03  0.61713893233E+02 -0.19627959497E+03  0.23655303268E+03  0.00000000000E+00 0. -1.
         21    1    1    2  502  501 -0.14614236790E+03 -0.80029005832E+02  0.46046386706E+02  0.17286556394E+03  0.00000000000E+00 0.  1.
<scales pt_clust_5="13000.00000" pt_clust_6="13000.00000" pt_clust_7="13000.00000" pt_clust_8="13000.00000" pt_clust_9="179.57931"></scales>
<clustering>
<clus scale="   91.448">  5  6 -1 -1</clus>
<clus scale="   92.742">  7  8 -1 -1</clus>
<clus scale="  166.401">  2  7  1 -1</clus>
<clus scale="  179.579">  1  9  2 -1</clus>
<clus scale="  166.401">  2  5  1 -1</clus>
</clustering>
</event>
<event>
 9    1  0.1266593E-005  0.1253861E+03  0.7546771E-02  0.1235174E+00
         -2   -1    0    0    0  501 -0.00000000000E+00  0.00000000000E+00  0.22421095992E+03  0.22421095992E+03  0.00000000000E+00 0.  1.
          2   -1    0    0  502    0  0.00000000000E+00 -0.00000000000E+00 -0.22338652844E+03  0.22338652844E+03  0.00000000000E+00 0. -1.
         23    2    1    2    0    0  0.33236886213E+02 -0.16200091571E+03  0.36303930002E+02  0.19238344234E+03  0.91347831147E+02 0.  0.
         23    2    1    2    0    0  0.24382987416E+01  0.63276508933E+02 -0.82658550657E+02  0.14012673016E+03  0.93772078061E+02 0.  0.
        -13    1    4    4    0    0 -0.93666395848E+01 -0.22017661914E+02 -0.32886014778E+02  0.40669415305E+02  0.00000000000E+00 0.  1.
         13    1    4    4    0    0  0.11804938326E+02  0.85294170848E+02 -0.49772535880E+02  0.99457314851E+02  0.00000000000E+00 0. -1.
        -13    1    3    3    0    0 -0.16748077759E+02 -0.57486114438E+02  0.46885300964E+02  0.76048556253E+02  0.00000000000E+00 0.  1.
         13    1    3    3    0    0  0.49984963973E+02 -0.10451480127E+03 -0.10581370962E+02  0.11633488608E+03  0.00000000000E+00 0. -1.
         21    1    1    2  502  501 -0.35675184955E+02  0.98724406778E+02  0.47179052134E+02  0.11508731588E+03  0.00000000000E+00 0. -1.
<scales pt_clust_5="13000.00000" pt_clust_6="13000.00000" pt_clust_7="13000.00000" pt_clust_8="13000.00000" pt_clust_9="104.97251"></scales>
<clustering>
<clus scale="   91.348">  7  8 -1 -1</clus>
<clus scale="   93.772">  5  6 -1 -1</clus>
<clus scale="  104.973">  1  9  2 -1</clus>
<clus scale="  123.584">  1  7  2 -1</clus>
<clus scale="  125.386">  2  5  1 -1</clus>
</clustering>
</event>
<event>
 9    1  0.1266593E-005  0.1028933E+03  0.7546771E-02  0.1274655E+00
         -1   -1    0    0    0  501 -0.00000000000E+00  0.00000000000E+00  0.29589740713E+03  0.29589740713E+03  0.00000000000E+00 0.  1.
          1   -1    0    0  502    0  0.00000000000E+00 -0.00000000000E+00 -0.60221331379E+02  0.60221331379E+02  0.00000000000E+00 0. -1.
         23    2    1    2    0    0  0.62458127978E+01  0.17032034465E+02  0.15141450237E+03  0.17770538015E+03  0.91234589001E+02 0.  0.
         23    2    1    2    0    0 -0.20331290848E+02 -0.55358041820E+02  0.35617932848E+02  0.11490361662E+03  0.91958304632E+02 0.  0.
        -13    1    4    4    0    0 -0.35009505680E+01 -0.34093810498E+02 -0.28955243426E+02  0.44867033455E+02  0.00000000000E+00 0. -1.
         13    1    4    4    0    0 -0.16830340280E+02 -0.21264231322E+02  0.64573176274E+02  0.70036583167E+02  0.00000000000E+00 0.  1.
        -13    1    3    3    0    0  0.44919966277E+02  0.51765079940E+01  0.11385803868E+03  0.12250817352E+03  0.00000000000E+00 0.  1.
         13    1    3    3    0    0 -0.38674153480E+02  0.11855526471E+02  0.37556463682E+02  0.55197206628E+02  0.00000000000E+00 0. -1.
         21    1    1    2  502  501  0.14085478050E+02  0.38326007355E+02  0.48643640540E+02  0.63509741746E+02  0.00000000000E+00 0.  1.
<scales pt_clust_5="13000.00000" pt_clust_6="13000.00000" pt_clust_7="13000.00000" pt_clust_8="13000.00000" pt_clust_9="40.83238"></scales>
<clustering>
<clus scale="   40.832">  1  9  2 -1</clus>
<clus scale="   91.235">  7  8 -1 -1</clus>
<clus scale="   91.958">  5  6 -1 -1</clus>
<clus scale="  102.247">  1  7  2 -1</clus>
<clus scale="  102.893">  2  5  1 -1</clus>
</clustering>
</event>
<event>
 9    1  0.1266593E-005  0.1883491E+03  0.7546771E-02  0.1160380E+00
         -1   -1    0    0    0  501 -0.00000000000E+00  0.00000000000E+00  0.87842020806E+03  0.87842020806E+03  0.00000000000E+00 0.  1.
          1   -1    0    0  502    0  0.00000000000E+00 -0.00000000000E+00 -0.86641527475E+02  0.86641527475E+02  0.00000000000E+00 0. -1.
         23    2    1    2    0    0  0.12360785235E+03  0.10308710593E+03  0.70194929607E+03  0.72586333504E+03  0.90768465538E+02 0.  0.
         23    2    1    2    0    0 -0.12192970739E+03 -0.12558342046E+03  0.77363556892E+02  0.21342443696E+03  0.94481857080E+02 0.  0.
        -11    1    4    4    0    0 -0.85453874066E+02 -0.39290731653E+02  0.74006525924E+02  0.11967912126E+03  0.00000000000E+00 0.  1.
         11    1    4    4    0    0 -0.36475833329E+02 -0.86292688807E+02  0.33570309676E+01  0.93745315698E+02  0.00000000000E+00 0. -1.
        -13    1    3    3    0    0  0.64972580463E+02  0.55805628195E-02  0.20997294989E+03  0.21979553210E+03  0.00000000000E+00 0.  1.
         13    1    3    3    0    0  0.58635271883E+02  0.10308152537E+03  0.49197634617E+03  0.50606780294E+03  0.00000000000E+00 0. -1.
         21    1    1    2  502  501 -0.16781449513E+01  0.22496314531E+02  0.12465827629E+02  0.25773963537E+02  0.00000000000E+00 0.  1.
<scales pt_clust_5="13000.00000" pt_clust_6="13000.00000" pt_clust_7="13000.00000" pt_clust_8="13000.00000" pt_clust_9="22.55882"></scales>
<clustering>
<clus scale="   22.559">  2  9  1 -1</clus>
<clus scale="   90.768">  7  8 -1 -1</clus>
<clus scale="   94.482">  5  6 -1 -1</clus>
<clus scale="  186.514">  1  7  2 -1</clus>
<clus scale="   22.559">  2  5  1 -1</clus>
</clustering>
</event>
<event>
 9    1  0.1266593E-005  0.1493459E+03  0.7546771E-02  0.1201887E+00
         -3   -1    0    0    0  501 -0.00000000000E+00  0.00000000000E+00  0.65011911383E+03  0.65011911383E+03  0.00000000000E+00 0.  1.
          3   -1    0    0  502    0  0.00000000000E+00 -0.00000000000E+00 -0.10395168978E+03  0.10395168978E+03  0.00000000000E+00 0. -1.
         23    2    1    2    0    0 -0.68633955628E+02  0.56713986977E+02  0.41539977675E+03  0.43492653401E+03  0.93150519460E+02 0.  0.
         23    2    1    2    0    0  0.92878458489E+02 -0.77117690745E+02 -0.31486934267E+02  0.15382440908E+03  0.89983195771E+02 0.  0.
        -11    1    3    3    0    0 -0.77822013486E+02  0.14738980834E+02  0.32941185770E+03  0.33880034730E+03  0.00000000000E+00 0.  1.
         11    1    3    3    0    0  0.91880578578E+01  0.41975006143E+02  0.85987919055E+02  0.96126186710E+02  0.00000000000E+00 0. -1.
        -11    1    4    4    0    0  0.32606854893E+02 -0.82351492716E+02 -0.29278784818E+02  0.93285704044E+02  0.00000000000E+00 0.  1.
         11    1    4    4    0    0  0.60271603596E+02  0.52338019707E+01 -0.22081494488E+01  0.60538705033E+02  0.00000000000E+00 0. -1.
         21    1    1    2  502  501 -0.24244502861E+02  0.20403703768E+02  0.16225458156E+03  0.16531986052E+03  0.00000000000E+00 0.  1.
<scales pt_clust_5="13000.00000" pt_clust_6="13000.00000" pt_clust_7="13000.00000" pt_clust_8="13000.00000" pt_clust_9="31.68765"></scales>
<clustering>
<clus scale="   31.688">  1  9  2 -1</clus>
<clus scale="   89.983">  7  8 -1 -1</clus>
<clus scale="   93.151">  5  6 -1 -1</clus>
<clus scale="  147.391">  2  7  1 -1</clus>
<clus scale="  147.391">  2  5  1 -1</clus>
</clustering>
</event>
<event>
 9    1  0.1266593E-005  0.1082181E+03  0.7546771E-02  0.1264313E+00
         -1   -1    0    0    0  501 -0.00000000000E+00  0.00000000000E+00  0.54660167015E+03  0.54660167015E+03  0.00000000000E+00 0.  1.
          1   -1    0    0  502    0  0.00000000000E+00 -0.00000000000E+00 -0.82202750932E+02  0.82202750932E+02  0.00000000000E+00 0. -1.
         23    2    1    2    0    0  0.55335871744E+02  0.32324022139E+02  0.45152252748E+03  0.46557224481E+03  0.93691094593E+02 0.  0.
         23    2    1    2    0    0 -0.32825765869E+02 -0.42454186369E+02 -0.32193173611E+02  0.11184549692E+03  0.92699114934E+02 0.  0.
        -11    1    3    3    0    0  0.45758429159E+02  0.59360669614E+02  0.39650691305E+03  0.40352850585E+03  0.00000000000E+00 0.  1.
         11    1    3    3    0    0  0.95774425843E+01 -0.27036647475E+02  0.55015614435E+02  0.62043738965E+02  0.00000000000E+00 0. -1.
        -11    1    4    4    0    0 -0.27162297686E+02 -0.12847817966E+02  0.30169479489E+02  0.42579975748E+02  0.00000000000E+00 0.  1.
         11    1    4    4    0    0 -0.56634681829E+01 -0.29606368403E+02 -0.62362653100E+02  0.69265521175E+02  0.00000000000E+00 0. -1.
         21    1    1    2  502  501 -0.22510105875E+02  0.10130164230E+02  0.45069565349E+02  0.51386679350E+02  0.00000000000E+00 0.  1.
<scales pt_clust_5="13000.00000" pt_clust_6="13000.00000" pt_clust_7="13000.00000" pt_clust_8="13000.00000" pt_clust_9="24.68451"></scales>
<clustering>
<clus scale="   24.685">  1  9  2 -1</clus>
<clus scale="   92.699">  7  8 -1 -1</clus>
<clus scale="   93.691">  5  6 -1 -1</clus>
<clus scale="  107.360">  2  7  1 -1</clus>
<clus scale="  107.360">  2  5  1 -1</clus>
</clustering>
</event>
<event>
 9    1  0.1266593E-005  0.1533027E+03  0.7546771E-02  0.1201199E+00
         -2   -1    0    0    0  501 -0.00000000000E+00  0.00000000000E+00  0.78246164793E+03  0.78246164793E+03  0.00000000000E+00 0.  1.
          2   -1    0    0  502    0  0.00000000000E+00 -0.00000000000E+00 -0.38514804402E+02  0.38514804402E+02  0.00000000000E+00 0. -1.
         23    2    1    2    0    0  0.12060497120E+03  0.57967415507E+02  0.36659837188E+03  0.39821857624E+03  0.79233123539E+02 0.  0.
         23    2    1    2    0    0 -0.93876135565E+02 -0.34950252483E+02  0.23011219701E+03  0.27135529679E+03  0.10318829830E+03 0.  0.
        -11    1    3    3    0    0  0.61072484642E+02  0.54094199804E+02  0.28925275583E+03  0.30053816328E+03  0.00000000000E+00 0.  1.
         11    1    3    3    0    0  0.59532486554E+02  0.38732157027E+01  0.77345616048E+02  0.97680412965E+02  0.00000000000E+00 0. -1.
        -11    1    4    4    0    0 -0.53583283194E+02  0.73572552552E+01  0.27872290251E+02  0.60845394292E+02  0.00000000000E+00 0.  1.
         11    1    4    4    0    0 -0.40292852372E+02 -0.42307507738E+02  0.20223990676E+03  0.21050990250E+03  0.00000000000E+00 0. -1.
         21    1    1    2  502  501 -0.26728835631E+02 -0.23017163024E+02  0.14723627464E+03  0.15140257930E+03  0.00000000000E+00 0. -1.
<scales pt_clust_5="13000.00000" pt_clust_6="13000.00000" pt_clust_7="13000.00000" pt_clust_8="13000.00000" pt_clust_9="35.27351"></scales>
<clustering>
<clus scale="   35.274">  1  9  2 -1</clus>
<clus scale="   79.233">  5  6 -1 -1</clus>
<clus scale="  103.188">  7  8 -1 -1</clus>
<clus scale="  138.318">  1  5  2 -1</clus>
<clus scale="  153.303">  2  5  1 -1</clus>
</clustering>
</event>
<event>
 9    1  0.1266593E-005  0.1064661E+03  0.7546771E-02  0.1270579E+00
          2   -1    0    0  502    0  0.00000000000E+00  0.00000000000E+00  0.10202108553E+03  0.10202108553E+03  0.00000000000E+00 0. -1.
         -2   -1    0    0    0  501 -0.00000000000E+00 -0.00000000000E+00 -0.32584439102E+03  0.32584439102E+03  0.00000000000E+00 0.  1.
         23    2    1    2    0    0  0.42106748372E+02  0.31794810445E+02 -0.44429320773E+02  0.11546631927E+03  0.92599233865E+02 0.  0.
         23    2    1    2    0    0 -0.53901847710E+02  0.59535521402E+02 -0.71415737700E+01  0.11707571536E+03  0.84887181336E+02 0.  0.
        -11    1    4    4    0    0 -0.15317647653E+02 -0.12905113507E+02  0.22212142365E+02  0.29909054694E+02  0.00000000000E+00 0.  1.
         11    1    4    4    0    0 -0.38584200056E+02  0.72440634909E+02 -0.29353716135E+02  0.87166660662E+02  0.00000000000E+00 0. -1.
        -11    1    3    3    0    0  0.22516739175E+02  0.61361499116E+02 -0.10159556080E+02  0.66147212312E+02  0.00000000000E+00 0. -1.
         11    1    3    3    0    0  0.19590009197E+02 -0.29566688672E+02 -0.34269764693E+02  0.49319106961E+02  0.00000000000E+00 0.  1.
         21    1    1    2  502  501  0.11795099337E+02 -0.91330331846E+02 -0.17225241096E+03  0.19532344192E+03  0.00000000000E+00 0.  1.
<scales pt_clust_5="13000.00000" pt_clust_6="13000.00000" pt_clust_7="13000.00000" pt_clust_8="13000.00000" pt_clust_9="92.08884"></scales>
<clustering>
<clus scale="   84.887">  5  6 -1 -1</clus>
<clus scale="   92.089">  2  9  1 -1</clus>
<clus scale="   92.599">  7  8 -1 -1</clus>
<clus scale="   99.831">  1  5  2 -1</clus>
<clus scale="   99.831">  1  5  2 -1</clus>
</clustering>
</event>
<event>
 9    1  0.1266593E-005  0.1938302E+03  0.7546771E-02  0.1155435E+00
          1   -1    0    0  502    0  0.00000000000E+00  0.00000000000E+00  0.37224790582E+03  0.37224790582E+03  0.00000000000E+00 0. -1.
         -1   -1    0    0    0  501 -0.00000000000E+00 -0.00000000000E+00 -0.15987566323E+03  0.15987566323E+03  0.00000000000E+00 0.  1.
         23    2    1    2    0    0  0.15086432596E+03  0.80777076135E+02  0.22050558611E+01  0.19615327587E+03  0.95845002414E+02 0.  0.
         23    2    1    2    0    0 -0.17105757166E+03 -0.16896714439E+02  0.15860949693E+03  0.25143235400E+03  0.92277106275E+02 0.  0.
        -13    1    3    3    0    0  0.24586159156E+02 -0.19129421138E+02 -0.14324196000E+02  0.34286973710E+02  0.00000000000E+00 0.  1.
         13    1    3    3    0    0  0.12627816680E+03  0.99906497273E+02  0.16529251861E+02  0.16186630216E+03  0.00000000000E+00 0. -1.
        -13    1    4    4    0    0 -0.44344384184E+02 -0.42069958717E+02  0.26399219885E+02  0.66582465001E+02  0.00000000000E+00 0.  1.
         13    1    4    4    0    0 -0.12671318747E+03  0.25173244278E+02  0.13221027705E+03  0.18484988900E+03  0.00000000000E+00 0. -1.
         21    1    1    2  502  501  0.20193245698E+02 -0.63880361696E+02  0.51557689800E+02  0.84537939174E+02  0.00000000000E+00 0.  1.
<scales pt_clust_5="13000.00000" pt_clust_6="13000.00000" pt_clust_7="13000.00000" pt_clust_8="13000.00000" pt_clust_9="66.99603"></scales>
<clustering>
<clus scale="   66.996">  1  9  2 -1</clus>
<clus scale="   92.277">  7  8 -1 -1</clus>
<clus scale="   95.845">  5  6 -1 -1</clus>
<clus scale="  192.091">  1  7  2 -1</clus>
<clus scale="   66.996">  1  5  2 -1</clus>
</clustering>
</event>
<event>
 9    1  0.1266593E-005  0.1350905E+03  0.7546771E-02  0.1220758E+00
         -1   -1    0    0    0  501 -0.00000000000E+00  0.00000000000E+00  0.96324506008E+03  0.96324506008E+03  0.00000000000E+00 0.  1.
          1   -1    0    0  502    0  0.00000000000E+00 -0.00000000000E+00 -0.28559662638E+02  0.28559662638E+02  0.00000000000E+00 0. -1.
         23    2    1    2    0    0  0.11503947239E+03  0.36717350805E+02  0.45180871518E+03  0.47629745144E+03  0.90254656804E+02 0.  0.
         23    2    1    2    0    0 -0.82596543204E+02 -0.20041743509E+02  0.25170515437E+03  0.28147544686E+03  0.93000440955E+02 0.  0.
        -11    1    3    3    0    0  0.80845088412E+01  0.38221118790E+02  0.74528111069E+02  0.84146613386E+02  0.00000000000E+00 0. -1.
         11    1    3    3    0    0  0.10695496355E+03 -0.15037679852E+01  0.37728060411E+03  0.39215083805E+03  0.00000000000E+00 0.  1.
        -11    1    4    4    0    0 -0.21559022419E+02  0.30820961792E+02  0.13608891921E+03  0.14119106581E+03  0.00000000000E+00 0.  1.
         11    1    4    4    0    0 -0.61037520785E+02 -0.50862705301E+02  0.11561623516E+03  0.14028438105E+03  0.00000000000E+00 0. -1.
         21    1    1    2  502  501 -0.32442929185E+02 -0.16675607297E+02  0.23117152789E+03  0.23403182441E+03  0.00000000000E+00 0.  1.
<scales pt_clust_5="13000.00000" pt_clust_6="13000.00000" pt_clust_7="13000.00000" pt_clust_8="13000.00000" pt_clust_9="36.47766"></scales>
<clustering>
<clus scale="   36.478">  1  9  2 -1</clus>
<clus scale="   90.255">  5  6 -1 -1</clus>
<clus scale="   93.000">  7  8 -1 -1</clus>
<clus scale="  133.215">  1  5  2 -1</clus>
<clus scale="  135.090">  2  5  1 -1</clus>
</clustering>
</event>
<event>
 9    1  0.1266593E-005  0.9627222E+02  0.7546771E-02  0.1290482E+00
         -2   -1    0    0    0  501 -0.00000000000E+00  0.00000000000E+00  0.15805151134E+03  0.15805151134E+03  0.00000000000E+00 0.  1.
          2   -1    0    0  502    0  0.00000000000E+00 -0.00000000000E+00 -0.10731803092E+03  0.10731803092E+03  0.00000000000E+00 0. -1.
         23    2    1    2    0    0  0.32787979949E+02 -0.73194306992E+01  0.66344931641E+01  0.98245873742E+02  0.92084795232E+02 0.  0.
         23    2    1    2    0    0  0.16962892815E+02  0.39471243609E+01 -0.43975680628E+01  0.97564789370E+02  0.95896975951E+02 0.  0.
        -11    1    4    4    0    0  0.33142301620E+02 -0.34819448313E+02 -0.20918950058E+02  0.52425266895E+02  0.00000000000E+00 0. -1.
         11    1    4    4    0    0 -0.16179408805E+02  0.38766572674E+02  0.16521381995E+02  0.45139522475E+02  0.00000000000E+00 0.  1.
        -11    1    3    3    0    0  0.38062546171E+02  0.22842397849E+02 -0.27635028310E+02  0.52289839837E+02  0.00000000000E+00 0. -1.
         11    1    3    3    0    0 -0.52745662224E+01 -0.30161828548E+02  0.34269521474E+02  0.45956033905E+02  0.00000000000E+00 0.  1.
         21    1    1    2  502  501 -0.49750872763E+02  0.33723063383E+01  0.48496555314E+02  0.69558879146E+02  0.00000000000E+00 0.  1.
<scales pt_clust_5="13000.00000" pt_clust_6="13000.00000" pt_clust_7="13000.00000" pt_clust_8="13000.00000" pt_clust_9="49.86504"></scales>
<clustering>
<clus scale="   49.865">  1  9  2 -1</clus>
<clus scale="   92.085">  7  8 -1 -1</clus>
<clus scale="   92.476">  1  7  2 -1</clus>
<clus scale="   95.897">  5  6 -1 -1</clus>
<clus scale="   96.272">  2  5  1 -1</clus>
</clustering>
</event>
<event>
 9    1  0.1266593E-005  0.9091373E+02  0.7546771E-02  0.1301004E+00
         -1   -1    0    0    0  501 -0.00000000000E+00  0.00000000000E+00  0.18921813737E+03  0.18921813737E+03  0.00000000000E+00 0.  1.
          1   -1    0    0  502    0  0.00000000000E+00 -0.00000000000E+00 -0.11548302612E+03  0.11548302612E+03  0.00000000000E+00 0. -1.
         23    2    1    2    0    0 -0.97442349507E+01 -0.33596357414E+02  0.66484934847E+02  0.11777438823E+03  0.90702230486E+02 0.  0.
         23    2    1    2    0    0  0.27048953888E+01 -0.15148050863E+02 -0.55659132471E+02  0.10703215227E+03  0.90117493797E+02 0.  0.
        -11    1    4    4    0    0 -0.38248190522E+02  0.28869825740E+01 -0.48307890966E+02  0.61683961256E+02  0.00000000000E+00 0. -1.
         11    1    4    4    0    0  0.40953085911E+02 -0.18035033437E+02 -0.73512415049E+01  0.45348191015E+02  0.00000000000E+00 0.  1.
        -13    1    3    3    0    0  0.16874734458E+02  0.12161603182E+02  0.61124028566E+02  0.64566307956E+02  0.00000000000E+00 0. -1.
         13    1    3    3    0    0 -0.26618969409E+02 -0.45757960596E+02  0.53609062807E+01  0.53208080274E+02  0.00000000000E+00 0.  1.
         21    1    1    2  502  501  0.70393395619E+01  0.48744408277E+02  0.62909308875E+02  0.79894622991E+02  0.00000000000E+00 0. -1.
<scales pt_clust_5="13000.00000" pt_clust_6="13000.00000" pt_clust_7="13000.00000" pt_clust_8="13000.00000" pt_clust_9="49.25007"></scales>
<clustering>
<clus scale="   49.250">  1  9  2 -1</clus>
<clus scale="   90.117">  5  6 -1 -1</clus>
<clus scale="   90.330">  2  5  1 -1</clus>
<clus scale="   90.702">  7  8 -1 -1</clus>
<clus scale="   90.330">  2  5  1 -1</clus>
</clustering>
</event>
<event>
 9    1  0.1266593E-005  0.1229226E+03  0.7546771E-02  0.1238584E+00
         -1   -1    0    0    0  501 -0.00000000000E+00  0.00000000000E+00  0.55382830667E+03  0.55382830667E+03  0.00000000000E+00 0.  1.
          1   -1    0    0  502    0  0.00000000000E+00 -0.00000000000E+00 -0.41868619263E+02  0.41868619263E+02  0.00000000000E+00 0. -1.
         23    2    1    2    0    0 -0.43302156048E+02  0.55482724211E+02  0.23188627794E+03  0.25886022481E+03  0.91016266071E+02 0.  0.
         23    2    1    2    0    0  0.76370554856E+02 -0.49022913488E+02  0.13064401559E+03  0.18365578877E+03  0.91792604509E+02 0.  0.
        -11    1    4    4    0    0  0.41001300889E+02 -0.12584303262E+02  0.12548605563E+03  0.13261305185E+03  0.00000000000E+00 0.  1.
         11    1    4    4    0    0  0.35369253967E+02 -0.36438610226E+02  0.51579599621E+01  0.51042736921E+02  0.00000000000E+00 0. -1.
        -11    1    3    3    0    0 -0.48284738240E+02  0.76589462823E+02  0.20647062787E+03  0.22544951083E+03  0.00000000000E+00 0. -1.
         11    1    3    3    0    0  0.49825821917E+01 -0.21106738612E+02  0.25415650066E+02  0.33410713976E+02  0.00000000000E+00 0.  1.
         21    1    1    2  502  501 -0.33068398807E+02 -0.64598107231E+01  0.14942939389E+03  0.15318091236E+03  0.00000000000E+00 0. -1.
<scales pt_clust_5="13000.00000" pt_clust_6="13000.00000" pt_clust_7="13000.00000" pt_clust_8="13000.00000" pt_clust_9="33.69344"></scales>
<clustering>
<clus scale="   33.693">  1  9  2 -1</clus>
<clus scale="   91.016">  7  8 -1 -1</clus>
<clus scale="   91.793">  5  6 -1 -1</clus>
<clus scale="  122.344">  1  7  2 -1</clus>
<clus scale="  122.923">  2  5  1 -1</clus>
</clustering>
</event>
<event>
 9    1  0.1266593E-005  0.1030550E+03  0.7546771E-02  0.1274988E+00
          1   -1    0    0  502    0  0.00000000000E+00  0.00000000000E+00  0.62838299460E+03  0.62838299460E+03  0.00000000000E+00 0. -1.
         -1   -1    0    0    0  501 -0.00000000000E+00 -0.00000000000E+00 -0.28162613295E+02  0.28162613295E+02  0.00000000000E+00 0.  1.
         23    2    1    2    0    0 -0.34750574240E+02  0.29804993645E+02  0.19803541395E+03  0.22419364164E+03  0.94598222586E+02 0.  0.
         23    2    1    2    0    0 -0.12562647972E+02 -0.47371053354E+02  0.31088519420E+03  0.32803151750E+03  0.92483704961E+02 0.  0.
        -13    1    3    3    0    0  0.15256649593E+02 -0.23103471219E+02  0.28728927853E+02  0.39898459052E+02  0.00000000000E+00 0.  1.
         13    1    3    3    0    0 -0.50007223833E+02  0.52908464865E+02  0.16930648610E+03  0.18429518258E+03  0.00000000000E+00 0. -1.
        -13    1    4    4    0    0  0.40164868532E+02 -0.16636423057E+02  0.12043519747E+03  0.12804149338E+03  0.00000000000E+00 0.  1.
         13    1    4    4    0    0 -0.52727516505E+02 -0.30734630297E+02  0.19044999672E+03  0.19999002412E+03  0.00000000000E+00 0. -1.
         21    1    1    2  502  501  0.47313222213E+02  0.17566059709E+02  0.91299773159E+02  0.10432044876E+03  0.00000000000E+00 0.  1.
<scales pt_clust_5="13000.00000" pt_clust_6="13000.00000" pt_clust_7="13000.00000" pt_clust_8="13000.00000" pt_clust_9="50.46888"></scales>
<clustering>
<clus scale="   50.469">  2  9  1 -1</clus>
<clus scale="   92.484">  7  8 -1 -1</clus>
<clus scale="   94.598">  5  6 -1 -1</clus>
<clus scale="  101.118">  1  7  2 -1</clus>
<clus scale="  101.118">  1  5  2 -1</clus>
</clustering>
</event>
<event>
 9    1  0.1266593E-005  0.9913708E+02  0.7546771E-02  0.1282445E+00
         -2   -1    0    0    0  501 -0.00000000000E+00  0.00000000000E+00  0.58578284122E+02  0.58578284122E+02  0.00000000000E+00 0.  1.
          2   -1    0    0  502    0  0.00000000000E+00 -0.00000000000E+00 -0.49581916767E+03  0.49581916767E+03  0.00000000000E+00 0. -1.
         23    2    1    2    0    0  0.21468165697E+02  0.59320584561E+02 -0.59816246413E+02  0.12667226174E+03  0.92130693406E+02 0.  0.
         23    2    1    2    0    0  0.35957204911E+02  0.21865002975E+02 -0.21296746632E+03  0.23554055527E+03  0.91395910897E+02 0.  0.
        -11    1    4    4    0    0 -0.17590207022E+02 -0.10915185713E+02 -0.98205745801E+01  0.22912886054E+02  0.00000000000E+00 0. -1.
         11    1    4    4    0    0  0.53547411933E+02  0.32780188688E+02 -0.20314689174E+03  0.21262766922E+03  0.00000000000E+00 0.  1.
        -13    1    3    3    0    0 -0.31331607510E+02  0.58310958397E+01 -0.21550915469E+01  0.31942381367E+02  0.00000000000E+00 0. -1.
         13    1    3    3    0    0  0.52799773207E+02  0.53489488721E+02 -0.57661154866E+02  0.94729880369E+02  0.00000000000E+00 0.  1.
         21    1    1    2  502  501 -0.57425370608E+02 -0.81185587535E+02 -0.16445717082E+03  0.19218463479E+03  0.00000000000E+00 0. -1.
<scales pt_clust_5="13000.00000" pt_clust_6="13000.00000" pt_clust_7="13000.00000" pt_clust_8="13000.00000" pt_clust_9="99.44231"></scales>
<clustering>
<clus scale="   91.396">  5  6 -1 -1</clus>
<clus scale="   92.131">  7  8 -1 -1</clus>
<clus scale="   99.442">  2  9  1 -1</clus>
<clus scale="   99.442">  2  5  1 -1</clus>
<clus scale="   99.137">  2  5  1 -1</clus>
</clustering>
</event>
<event>
 9    1  0.1266593E-005  0.1201437E+03  0.7546771E-02  0.1243116E+00
         -1   -1    0    0    0  501 -0.00000000000E+00  0.00000000000E+00  0.27875845520E+03  0.27875845520E+03  0.00000000000E+00 0.  1.
          1   -1    0    0  502    0  0.00000000000E+00 -0.00000000000E+00 -0.16932140301E+03  0.16932140301E+03  0.00000000000E+00 0. -1.
         23    2    1    2    0    0  0.87770937366E+02 -0.20228688499E+02  0.41696918513E+02  0.13372511163E+03  0.89614927223E+02 0.  0.
         23    2    1    2    0    0 -0.77390022268E+02 -0.12765224941E+01 -0.94102430153E+02  0.15075996376E+03  0.88783186791E+02 0.  0.
        -11    1    3    3    0    0  0.43212198873E+02 -0.45968104544E+02  0.51377885871E+02  0.81363676929E+02  0.00000000000E+00 0.  1.
         11    1    3    3    0    0  0.44558738494E+02  0.25739416045E+02 -0.96809673581E+01  0.52361434696E+02  0.00000000000E+00 0. -1.
        -13    1    4    4    0    0 -0.64232101523E+02  0.38428602372E+02 -0.70012707706E+02  0.10249048535E+03  0.00000000000E+00 0. -1.
         13    1    4    4    0    0 -0.13157920745E+02 -0.39705124866E+02 -0.24089722447E+02  0.48269478416E+02  0.00000000000E+00 0.  1.
         21    1    1    2  502  501 -0.10380915098E+02  0.21505210993E+02  0.16184256383E+03  0.16359478282E+03  0.00000000000E+00 0. -1.
<scales pt_clust_5="13000.00000" pt_clust_6="13000.00000" pt_clust_7="13000.00000" pt_clust_8="13000.00000" pt_clust_9="23.87965"></scales>
<clustering>
<clus scale="   23.880">  1  9  2 -1</clus>
<clus scale="   88.783">  7  8 -1 -1</clus>
<clus scale="   89.615">  5  6 -1 -1</clus>
<clus scale="  119.525">  2  7  1 -1</clus>
<clus scale="  119.525">  2  5  1 -1</clus>
</clustering>
</event>
<event>
 9    1  0.1266593E-005  0.1233213E+03  0.7546771E-02  0.1242049E+00
         -2   -1    0    0    0  501 -0.00000000000E+00  0.00000000000E+00  0.99460030866E+02  0.99460030866E+02  0.00000000000E+00 0.  1.
          2   -1    0    0  502    0  0.00000000000E+00 -0.00000000000E+00 -0.24241119834E+03  0.24241119834E+03  0.00000000000E+00 0. -1.
         23    2    1    2    0    0  0.88954218799E+02 -0.36255567352E+02 -0.83162743611E+02  0.15542632662E+03  0.89520846034E+02 0.  0.
         23    2    1    2    0    0 -0.45261799416E+02 -0.97211064612E+01 -0.47006681819E+02  0.12174362767E+03  0.10231692111E+03 0.  0.
        -11    1    4    4    0    0 -0.13689966028E+02  0.23392793022E+02  0.24708806382E+02  0.36676464497E+02  0.00000000000E+00 0.  1.
         11    1    4    4    0    0 -0.31571833388E+02 -0.33113899483E+02 -0.71715488201E+02  0.85067163173E+02  0.00000000000E+00 0. -1.
        -13    1    3    3    0    0 -0.24879190986E+01  0.22034635748E+02 -0.20408013729E+02  0.30136388940E+02  0.00000000000E+00 0.  1.
         13    1    3    3    0    0  0.91442137898E+02 -0.58290203099E+02 -0.62754729882E+02  0.12528993768E+03  0.00000000000E+00 0. -1.
         21    1    1    2  502  501 -0.43692419383E+02  0.45976673813E+02 -0.12781742047E+02  0.64701274920E+02  0.00000000000E+00 0.  1.
<scales pt_clust_5="13000.00000" pt_clust_6="13000.00000" pt_clust_7="13000.00000" pt_clust_8="13000.00000" pt_clust_9="63.42619"></scales>
<clustering>
<clus scale="   63.426">  1  9  2 -1</clus>
<clus scale="   89.521">  7  8 -1 -1</clus>
<clus scale="  102.317">  5  6 -1 -1</clus>
<clus scale="  112.931">  1  7  2 -1</clus>
<clus scale="  123.321">  2  5  1 -1</clus>
</clustering>
</event>
<event>
 9    1  0.1266593E-005  0.2120888E+03  0.7546771E-02  0.1139965E+00
         -1   -1    0    0    0  501 -0.00000000000E+00  0.00000000000E+00  0.23036424822E+03  0.23036424822E+03  0.00000000000E+00 0.  1.
          1   -1    0    0  502    0  0.00000000000E+00 -0.00000000000E+00 -0.79763246522E+03  0.79763246522E+03  0.00000000000E+00 0. -1.
         23    2    1    2    0    0 -0.18350104723E+03  0.59182159197E+02 -0.31637577122E+03  0.38172634802E+03  0.91903285321E+02 0.  0.
         23    2    1    2    0    0  0.18718118437E+03 -0.33663858334E+02 -0.42264852980E+03  0.47258997078E+03  0.92409142393E+02 0.  0.
        -11    1    4    4    0    0  0.97235113160E+02  0.26905563570E+02 -0.17050990145E+03  0.19812168754E+03  0.00000000000E+00 0. -1.
         11    1    4    4    0    0  0.89946071208E+02 -0.60569421904E+02 -0.25213862835E+03  0.27446828323E+03  0.00000000000E+00 0.  1.
        -13    1    3    3    0    0 -0.40505128808E+02  0.57656429074E+02 -0.11064238408E+03  0.13117418354E+03  0.00000000000E+00 0. -1.
         13    1    3    3    0    0 -0.14299591842E+03  0.15257301228E+01 -0.20573338714E+03  0.25055216447E+03  0.00000000000E+00 0.  1.
         21    1    1    2  502  501 -0.36801371370E+01 -0.25518300863E+02  0.17175608401E+03  0.17368039465E+03  0.00000000000E+00 0.  1.
<scales pt_clust_5="13000.00000" pt_clust_6="13000.00000" pt_clust_7="13000.00000" pt_clust_8="13000.00000" pt_clust_9="25.78230"></scales>
<clustering>
<clus scale="   25.782">  1  9  2 -1</clus>
<clus scale="   91.903">  7  8 -1 -1</clus>
<clus scale="   92.409">  5  6 -1 -1</clus>
<clus scale="  211.869">  1  7  2 -1</clus>
<clus scale="  212.089">  2  5  1 -1</clus>
</clustering>
</event>
<event>
 9    1  0.1266593E-005  0.1841166E+03  0.7546771E-02  0.1163914E+00
         -2   -1    0    0    0  501 -0.00000000000E+00  0.00000000000E+00  0.12087945755E+03  0.12087945755E+03  0.00000000000E+00 0.  1.
          2   -1    0    0  502    0  0.00000000000E+00 -0.00000000000E+00 -0.34660434871E+03  0.34660434871E+03  0.00000000000E+00 0. -1.
         23    2    1    2    0    0  0.47359311264E+02 -0.14880405416E+03 -0.68174698893E+02  0.19294418729E+03  0.90521372843E+02 0.  0.
         23    2    1    2    0    0 -0.81433427251E+02  0.14644168650E+03 -0.13095675082E+03  0.23125177669E+03  0.90835802524E+02 0.  0.
        -13    1    4    4    0    0 -0.28389126631E+02 -0.32127820921E+01 -0.59810070022E+01  0.29189671537E+02  0.00000000000E+00 0.  1.
         13    1    4    4    0    0 -0.53044300620E+02  0.14965446859E+03 -0.12497574382E+03  0.20206210516E+03  0.00000000000E+00 0. -1.
        -13    1    3    3    0    0  0.66013563893E+02 -0.10406149953E+03 -0.74584617124E+02  0.14404669873E+03  0.00000000000E+00 0. -1.
         13    1    3    3    0    0 -0.18654252629E+02 -0.44742554630E+02  0.64099182311E+01  0.48897488563E+02  0.00000000000E+00 0.  1.
         21    1    1    2  502  501  0.34074115987E+02  0.23623676586E+01 -0.26593441448E+02  0.43287842280E+02  0.00000000000E+00 0. -1.
<scales pt_clust_5="13000.00000" pt_clust_6="13000.00000" pt_clust_7="13000.00000" pt_clust_8="13000.00000" pt_clust_9="34.15591"></scales>
<clustering>
<clus scale="   34.156">  2  9  1 -1</clus>
<clus scale="   90.521">  7  8 -1 -1</clus>
<clus scale="   90.836">  5  6 -1 -1</clus>
<clus scale="  183.962">  1  7  2 -1</clus>
<clus scale="   34.156">  2  5  1 -1</clus>
</clustering>
</event>
<event>
 9    1  0.1266593E-005  0.1113084E+03  0.7546771E-02  0.1261244E+00
         -1   -1    0    0    0  501 -0.00000000000E+00  0.00000000000E+00  0.18429424457E+03  0.18429424457E+03  0.00000000000E+00 0.  1.
          1   -1    0    0  502    0  0.00000000000E+00 -0.00000000000E+00 -0.10966153162E+03  0.10966153162E+03  0.00000000000E+00 0. -1.
         23    2    1    2    0    0  0.21504221730E+02  0.42261823524E+02  0.99686187077E+02  0.14850594301E+03  0.99338743378E+02 0.  0.
         23    2    1    2    0    0 -0.41305247638E+02 -0.31655695148E+02 -0.45534030508E+02  0.11505207380E+03  0.91953386196E+02 0.  0.
        -11    1    3    3    0    0  0.33492861807E+02  0.16903960420E+02  0.11181926996E+03  0.11794517711E+03  0.00000000000E+00 0.  1.
         11    1    3    3    0    0 -0.11988640077E+02  0.25357863104E+02 -0.12133082882E+02  0.30560765899E+02  0.00000000000E+00 0. -1.
        -13    1    4    4    0    0  0.20328389038E+02 -0.32190083806E+01  0.13896485486E+02  0.24833802059E+02  0.00000000000E+00 0.  1.
         13    1    4    4    0    0 -0.61633636676E+02 -0.28436686768E+02 -0.59430515994E+02  0.90218271738E+02  0.00000000000E+00 0. -1.
         21    1    1    2  502  501  0.19801025908E+02 -0.10606128376E+02  0.20480556376E+02  0.30397759384E+02  0.00000000000E+00 0. -1.
<scales pt_clust_5="13000.00000" pt_clust_6="13000.00000" pt_clust_7="13000.00000" pt_clust_8="13000.00000" pt_clust_9="22.46265"></scales>
<clustering>
<clus scale="   22.463">  1  9  2 -1</clus>
<clus scale="   91.953">  7  8 -1 -1</clus>
<clus scale="   99.339">  5  6 -1 -1</clus>
<clus scale="  104.770">  2  7  1 -1</clus>
<clus scale="  104.770">  2  5  1 -1</clus>
</clustering>
</event>
<event>
 9    1  0.1266593E-005  0.1553238E+03  0.7546771E-02  0.1195430E+00
         -1   -1    0    0    0  501 -0.00000000000E+00  0.00000000000E+00  0.76856155291E+02  0.76856155291E+02  0.00000000000E+00 0.  1.
          1   -1    0    0  502    0  0.00000000000E+00 -0.00000000000E+00 -0.38743424056E+03  0.38743424056E+03  0.00000000000E+00 0. -1.
         23    2    1    2    0    0  0.11186629784E+03 -0.76049167847E+02 -0.12715295315E+03  0.20263058596E+03  0.81201824795E+02 0.  0.
         23    2    1    2    0    0 -0.11484216448E+03  0.41879299461E+02 -0.15899563904E+03  0.21955000319E+03  0.89330802100E+02 0.  0.
        -13    1    4    4    0    0 -0.93288894752E+02 -0.10618269312E+02 -0.10955895800E+03  0.14428697379E+03  0.00000000000E+00 0.  1.
         13    1    4    4    0    0 -0.21553269725E+02  0.52497568773E+02 -0.49436681037E+02  0.75263029402E+02  0.00000000000E+00 0. -1.
        -13    1    3    3    0    0  0.49574121387E+02 -0.14942153227E+02 -0.43189573259E+01  0.51956855628E+02  0.00000000000E+00 0.  1.
         13    1    3    3    0    0  0.62292176455E+02 -0.61107014620E+02 -0.12283399582E+03  0.15067373033E+03  0.00000000000E+00 0. -1.
         21    1    1    2  502  501  0.29758666340E+01  0.34169868386E+02 -0.24429493087E+02  0.42109806699E+02  0.00000000000E+00 0. -1.
<scales pt_clust_5="13000.00000" pt_clust_6="13000.00000" pt_clust_7="13000.00000" pt_clust_8="13000.00000" pt_clust_9="34.29921"></scales>
<clustering>
<clus scale="   34.299">  1  9  2 -1</clus>
<clus scale="   81.202">  7  8 -1 -1</clus>
<clus scale="   89.331">  5  6 -1 -1</clus>
<clus scale="  150.795">  1  7  2 -1</clus>
<clus scale="  155.324">  2  5  1 -1</clus>
</clustering>
</event>
<event>
 9    1  0.1266593E-005  0.1258489E+03  0.7546771E-02  0.1234681E+00
          1   -1    0    0  502    0  0.00000000000E+00  0.00000000000E+00  0.47461022317E+02  0.47461022317E+02  0.00000000000E+00 0. -1.
         -1   -1    0    0    0  501 -0.00000000000E+00 -0.00000000000E+00 -0.47889077598E+03  0.47889077598E+03  0.00000000000E+00 0.  1.
         23    2    1    2    0    0  0.26756878238E+02  0.66839908323E+02 -0.21477526765E+03  0.24416194055E+03  0.91121532812E+02 0.  0.
         23    2    1    2    0    0 -0.32096851431E+02 -0.89855230006E+02 -0.10158659559E+03  0.16472139495E+03  0.87801658973E+02 0.  0.
        -11    1    3    3    0    0  0.19729429835E+02 -0.11697095127E+02 -0.10555952346E+02  0.25248773554E+02  0.00000000000E+00 0. -1.
         11    1    3    3    0    0  0.70274484026E+01  0.78537003449E+02 -0.20421931530E+03  0.21891316700E+03  0.00000000000E+00 0.  1.
        -13    1    4    4    0    0 -0.55535616342E+02 -0.53305418730E+02 -0.92535974278E+02  0.12036851284E+03  0.00000000000E+00 0.  1.
         13    1    4    4    0    0  0.23438764911E+02 -0.36549811276E+02 -0.90506213144E+01  0.44352882105E+02  0.00000000000E+00 0. -1.
         21    1    1    2  502  501  0.53399731926E+01  0.23015321683E+02 -0.11506789042E+03  0.11746846280E+03  0.00000000000E+00 0.  1.
<scales pt_clust_5="13000.00000" pt_clust_6="13000.00000" pt_clust_7="13000.00000" pt_clust_8="13000.00000" pt_clust_9="23.62669"></scales>
<clustering>
<clus scale="   23.627">  2  9  1 -1</clus>
<clus scale="   87.802">  7  8 -1 -1</clus>
<clus scale="   91.122">  5  6 -1 -1</clus>
<clus scale="  123.466">  1  7  2 -1</clus>
<clus scale="  123.466">  1  5  2 -1</clus>
</clustering>
</event>
<event>
 9    1  0.1266593E-005  0.9073572E+02  0.7546771E-02  0.1311010E+00
         -1   -1    0    0    0  501 -0.00000000000E+00  0.00000000000E+00  0.52454823083E+02  0.52454823083E+02  0.00000000000E+00 0.  1.
          1   -1    0    0  502    0  0.00000000000E+00 -0.00000000000E+00 -0.22251522728E+03  0.22251522728E+03  0.00000000000E+00 0. -1.
         23    2    1    2    0    0  0.68721094479E+01 -0.26256340980E+02 -0.65816194302E+02  0.10320970772E+03  0.74725169819E+02 0.  0.
         23    2    1    2    0    0  0.18124035951E+02 -0.51878177033E+01 -0.91356076013E+02  0.12957448726E+03  0.89934537259E+02 0.  0.
        -11    1    4    4    0    0  0.45057657837E+02  0.16014602404E+02 -0.22907555653E+02  0.53022788741E+02  0.00000000000E+00 0.  1.
         11    1    4    4    0    0 -0.26933621886E+02 -0.21202420107E+02 -0.68448520361E+02  0.76551698517E+02  0.00000000000E+00 0. -1.
        -13    1    3    3    0    0  0.31319276045E+02 -0.40453459111E+02 -0.40292961450E+02  0.65122209333E+02  0.00000000000E+00 0.  1.
         13    1    3    3    0    0 -0.24447166597E+02  0.14197118131E+02 -0.25523232852E+02  0.38087498382E+02  0.00000000000E+00 0. -1.
         21    1    1    2  502  501 -0.24996145399E+02  0.31444158683E+02 -0.12888133884E+02  0.42185855391E+02  0.00000000000E+00 0.  1.
<scales pt_clust_5="13000.00000" pt_clust_6="13000.00000" pt_clust_7="13000.00000" pt_clust_8="13000.00000" pt_clust_9="40.16892"></scales>
<clustering>
<clus scale="   40.169">  1  9  2 -1</clus>
<clus scale="   74.725">  7  8 -1 -1</clus>
<clus scale="   75.688">  1  7  2 -1</clus>
<clus scale="   89.935">  5  6 -1 -1</clus>
<clus scale="   90.736">  2  5  1 -1</clus>
</clustering>
</event>
<event>
 9    1  0.1266593E-005  0.9226446E+02  0.7546771E-02  0.1299729E+00
          1   -1    0    0  502    0  0.00000000000E+00  0.00000000000E+00  0.28887258250E+03  0.28887258250E+03  0.00000000000E+00 0. -1.
         -1   -1    0    0    0  501 -0.00000000000E+00 -0.00000000000E+00 -0.53524929225E+02  0.53524929225E+02  0.00000000000E+00 0.  1.
         23    2    1    2    0    0 -0.16392462896E+02 -0.32003968519E+02  0.46840221467E+02  0.10503409151E+03  0.86863036974E+02 0.  0.
         23    2    1    2    0    0 -0.28412070500E+01  0.11094523810E+02  0.18787522690E+03  0.20894619620E+03  0.90720731406E+02 0.  0.
        -11    1    4    4    0    0  0.34579936254E+02  0.21198796654E+02  0.43576388828E+02  0.59532030321E+02  0.00000000000E+00 0.  1.
         11    1    4    4    0    0 -0.37421143304E+02 -0.10104272844E+02  0.14429883807E+03  0.14941416587E+03  0.00000000000E+00 0. -1.
        -11    1    3    3    0    0  0.23821486784E+02 -0.34967008624E+02  0.48893903689E+02  0.64658864378E+02  0.00000000000E+00 0. -1.
         11    1    3    3    0    0 -0.40213949681E+02  0.29630401052E+01 -0.20536822219E+01  0.40375227136E+02  0.00000000000E+00 0.  1.
         21    1    1    2  502  501  0.19233669946E+02  0.20909444708E+02  0.63220490898E+00  0.28417224014E+02  0.00000000000E+00 0.  1.
<scales pt_clust_5="13000.00000" pt_clust_6="13000.00000" pt_clust_7="13000.00000" pt_clust_8="13000.00000" pt_clust_9="28.41019"></scales>
<clustering>
<clus scale="   28.410">  2  9  1 -1</clus>
<clus scale="   86.863">  7  8 -1 -1</clus>
<clus scale="   88.474">  2  7  1 -1</clus>
<clus scale="   90.721">  5  6 -1 -1</clus>
<clus scale="   92.264">  1  5  2 -1</clus>
</clustering>
</event>
<event>
 9    1  0.1266593E-005  0.1010607E+03  0.7546771E-02  0.1278515E+00
          1   -1    0    0  502    0  0.00000000000E+00  0.00000000000E+00  0.18026916610E+03  0.18026916610E+03  0.00000000000E+00 0. -1.
         -1   -1    0    0    0  501 -0.00000000000E+00 -0.00000000000E+00 -0.75058257745E+02  0.75058257745E+02  0.00000000000E+00 0.  1.
         23    2    1    2    0    0  0.49854424184E+01  0.43233955724E+02  0.39453102794E+02  0.10808703566E+03  0.90731639428E+02 0.  0.
         23    2    1    2    0    0  0.20514461475E+02 -0.40277681260E+02  0.65849114241E+02  0.12156952933E+03  0.91651022241E+02 0.  0.
        -11    1    3    3    0    0  0.23676248249E+02  0.85191140557E+01 -0.23091941534E+02  0.34152273706E+02  0.00000000000E+00 0.  1.
         11    1    3    3    0    0 -0.18690805831E+02  0.34714841668E+02  0.62545044328E+02  0.73934761950E+02  0.00000000000E+00 0. -1.
        -11    1    4    4    0    0  0.29885000386E+02 -0.65191629782E+02  0.61752123151E+02  0.94638187617E+02  0.00000000000E+00 0. -1.
         11    1    4    4    0    0 -0.93705389110E+01  0.24913948522E+02  0.40969910902E+01  0.26931341713E+02  0.00000000000E+00 0.  1.
         21    1    1    2  502  501 -0.25499903893E+02 -0.29562744640E+01 -0.91308680378E-01  0.25670858859E+02  0.00000000000E+00 0.  1.
<scales pt_clust_5="13000.00000" pt_clust_6="13000.00000" pt_clust_7="13000.00000" pt_clust_8="13000.00000" pt_clust_9="25.67070"></scales>
<clustering>
<clus scale="   25.671">  2  9  1 -1</clus>
<clus scale="   90.732">  5  6 -1 -1</clus>
<clus scale="   91.651">  7  8 -1 -1</clus>
<clus scale="  100.228">  2  5  1 -1</clus>
<clus scale="  101.061">  1  5  2 -1</clus>
</clustering>
</event>
<event>
 9    1  0.1266593E-005  0.9466008E+02  0.7546771E-02  0.1292246E+00
         -4   -1    0    0    0  501 -0.00000000000E+00  0.00000000000E+00  0.10129533295E+03  0.10129533295E+03  0.00000000000E+00 0.  1.
          4   -1    0    0  502    0  0.00000000000E+00 -0.00000000000E+00 -0.12893681445E+03  0.12893681445E+03  0.00000000000E+00 0. -1.
         23    2    1    2    0    0 -0.27589627271E+02  0.12615514491E+02  0.37844002141E+01  0.96774331084E+02  0.91818357277E+02 0.  0.
         23    2    1    2    0    0 -0.18682775515E+01 -0.21993335563E+02 -0.37229898375E+02  0.10200311406E+03  0.92365430081E+02 0.  0.
        -13    1    4    4    0    0 -0.31752910869E+02  0.24216168588E+02 -0.15969275054E+02  0.43007998273E+02  0.00000000000E+00 0. -1.
         13    1    4    4    0    0  0.29884633317E+02 -0.46209504151E+02 -0.21260623321E+02  0.58995115784E+02  0.00000000000E+00 0.  1.
        -13    1    3    3    0    0 -0.59087029621E+02  0.16736714322E+02 -0.98670447508E+01  0.62199302631E+02  0.00000000000E+00 0. -1.
         13    1    3    3    0    0  0.31497402350E+02 -0.41211998309E+01  0.13651444965E+02  0.34575028453E+02  0.00000000000E+00 0.  1.
         21    1    1    2  502  501  0.29457904822E+02  0.93778210720E+01  0.58040166588E+01  0.31454702255E+02  0.00000000000E+00 0.  1.
<scales pt_clust_5="13000.00000" pt_clust_6="13000.00000" pt_clust_7="13000.00000" pt_clust_8="13000.00000" pt_clust_9="30.91459"></scales>
<clustering>
<clus scale="   30.915">  1  9  2 -1</clus>
<clus scale="   91.818">  7  8 -1 -1</clus>
<clus scale="   92.365">  5  6 -1 -1</clus>
<clus scale="   94.126">  1  7  2 -1</clus>
<clus scale="   94.660">  2  5  1 -1</clus>
</clustering>
</event>
<event>
 9    1  0.1266593E-005  0.9002057E+02  0.7546771E-02  0.1305481E+00
          2   -1    0    0  502    0  0.00000000000E+00  0.00000000000E+00  0.39412785677E+03  0.39412785677E+03  0.00000000000E+00 0. -1.
         -2   -1    0    0    0  501 -0.00000000000E+00 -0.00000000000E+00 -0.30194593205E+02  0.30194593205E+02  0.00000000000E+00 0.  1.
         23    2    1    2    0    0 -0.18401999550E+01  0.95552430414E+01  0.87808084100E+02  0.12603076091E+03  0.89882167621E+02 0.  0.
         23    2    1    2    0    0 -0.23546459525E+01  0.10186079563E+02  0.25454574987E+03  0.26874531311E+03  0.85564034320E+02 0.  0.
        -13    1    4    4    0    0 -0.65936041433E+01  0.45092296192E+02  0.94924282031E+02  0.10529677161E+03  0.00000000000E+00 0.  1.
         13    1    4    4    0    0  0.42389581908E+01 -0.34906216629E+02  0.15962146784E+03  0.16344854151E+03  0.00000000000E+00 0. -1.
        -13    1    3    3    0    0  0.25000676047E+02  0.41344412893E+02  0.40633352197E+02  0.63130528202E+02  0.00000000000E+00 0.  1.
         13    1    3    3    0    0 -0.26840876002E+02 -0.31789169851E+02  0.47174731903E+02  0.62900232706E+02  0.00000000000E+00 0. -1.
         21    1    1    2  502  501  0.41948459075E+01 -0.19741322604E+02  0.21579429597E+02  0.29546375955E+02  0.00000000000E+00 0.  1.
<scales pt_clust_5="13000.00000" pt_clust_6="13000.00000" pt_clust_7="13000.00000" pt_clust_8="13000.00000" pt_clust_9="20.18208"></scales>
<clustering>
<clus scale="   20.182">  2  9  1 -1</clus>
<clus scale="   85.564">  5  6 -1 -1</clus>
<clus scale="   85.709">  1  5  2 -1</clus>
<clus scale="   89.882">  7  8 -1 -1</clus>
<clus scale="   85.709">  1  5  2 -1</clus>
</clustering>
</event>
<event>
 9    1  0.1266593E-005  0.9417604E+02  0.7546771E-02  0.1293230E+00
          3   -1    0    0  502    0  0.00000000000E+00  0.00000000000E+00  0.30922716601E+03  0.30922716601E+03  0.00000000000E+00 0. -1.
         -3   -1    0    0    0  501 -0.00000000000E+00 -0.00000000000E+00 -0.64799255475E+02  0.64799255475E+02  0.00000000000E+00 0.  1.
         23    2    1    2    0    0  0.30781406905E+02  0.87461030229E+01  0.10637129593E+02  0.96549344164E+02  0.90468989180E+02 0.  0.
         23    2    1    2    0    0 -0.13386962434E+02  0.24944162289E+02  0.21512479257E+03  0.23521574988E+03  0.90809419209E+02 0.  0.
        -11    1    3    3    0    0  0.22602464382E+02 -0.33623080069E+02 -0.18442448391E+02  0.44514119245E+02  0.00000000000E+00 0.  1.
         11    1    3    3    0    0  0.81789425235E+01  0.42369183092E+02  0.29079577983E+02  0.52035224919E+02  0.00000000000E+00 0. -1.
        -13    1    4    4    0    0 -0.38921090072E+02  0.24547735458E+02  0.20065563220E+03  0.20586433713E+03  0.00000000000E+00 0. -1.
         13    1    4    4    0    0  0.25534127638E+02  0.39642683152E+00  0.14469160369E+02  0.29351412747E+02  0.00000000000E+00 0.  1.
         21    1    1    2  502  501 -0.17394444472E+02 -0.33690265312E+02  0.18665988372E+02  0.42261327442E+02  0.00000000000E+00 0.  1.
<scales pt_clust_5="13000.00000" pt_clust_6="13000.00000" pt_clust_7="13000.00000" pt_clust_8="13000.00000" pt_clust_9="37.91570"></scales>
<clustering>
<clus scale="   37.916">  2  9  1 -1</clus>
<clus scale="   90.469">  5  6 -1 -1</clus>
<clus scale="   90.809">  7  8 -1 -1</clus>
<clus scale="   93.848">  2  5  1 -1</clus>
<clus scale="   94.176">  1  5  2 -1</clus>
</clustering>
</event>
<event>
 9    1  0.1266593E-005  0.1703436E+03  0.7546771E-02  0.1177624E+00
          1   -1    0    0  502    0  0.00000000000E+00  0.00000000000E+00  0.52841521582E+03  0.52841521582E+03  0.00000000000E+00 0. -1.
         -1   -1    0    0    0  501 -0.00000000000E+00 -0.00000000000E+00 -0.13869551904E+03  0.13869551904E+03  0.00000000000E+00 0.  1.
         23    2    1    2    0    0 -0.12583084160E+03  0.40017921828E+02 -0.54051730289E+02  0.16959906669E+03  0.91691979524E+02 0.  0.
         23    2    1    2    0    0  0.14481451255E+03 -0.15189921454E+02  0.43074047507E+03  0.46364996303E+03  0.90730119556E+02 0.  0.
        -11    1    3    3    0    0 -0.20371881835E+02 -0.22330750549E+02 -0.33938905174E+02  0.45448050277E+02  0.00000000000E+00 0. -1.
         11    1    3    3    0    0 -0.10545895976E+03  0.62348672377E+02 -0.20112825115E+02  0.12415101641E+03  0.00000000000E+00 0.  1.
        -11    1    4    4    0    0  0.82053830841E+02 -0.26731366869E+02  0.35134673893E+03  0.36178989495E+03  0.00000000000E+00 0. -1.
         11    1    4    4    0    0  0.62760681711E+02  0.11541445415E+02  0.79393736136E+02  0.10186006808E+03  0.00000000000E+00 0.  1.
         21    1    1    2  502  501 -0.18983670953E+02 -0.24828000374E+02  0.13030952006E+02  0.33861705150E+02  0.00000000000E+00 0. -1.
<scales pt_clust_5="13000.00000" pt_clust_6="13000.00000" pt_clust_7="13000.00000" pt_clust_8="13000.00000" pt_clust_9="31.25395"></scales>
<clustering>
<clus scale="   31.254">  2  9  1 -1</clus>
<clus scale="   90.730">  7  8 -1 -1</clus>
<clus scale="   91.692">  5  6 -1 -1</clus>
<clus scale="  169.828">  1  7  2 -1</clus>
<clus scale="  169.828">  1  5  2 -1</clus>
</clustering>
</event>
<event>
 9    1  0.1266593E-005  0.1047692E+03  0.7546771E-02  0.1271404E+00
         -1   -1    0    0    0  501 -0.00000000000E+00  0.00000000000E+00  0.19754551595E+03  0.19754551595E+03  0.00000000000E+00 0.  1.
          1   -1    0    0  502    0  0.00000000000E+00 -0.00000000000E+00 -0.14213560659E+03  0.14213560659E+03  0.00000000000E+00 0. -1.
         23    2    1    2    0    0  0.13944524734E+01  0.81916905038E+02  0.85753343137E+02  0.14912022064E+03  0.90392922923E+02 0.  0.
         23    2    1    2    0    0 -0.20358963576E+02 -0.96885571534E+01  0.24262356373E+02  0.98049393223E+02  0.92285784588E+02 0.  0.
        -11    1    4    4    0    0 -0.49203829064E+02 -0.10775818253E+02  0.40765506842E+02  0.64799395071E+02  0.00000000000E+00 0.  1.
         11    1    4    4    0    0  0.28844865488E+02  0.10872611000E+01 -0.16503150469E+02  0.33249998152E+02  0.00000000000E+00 0. -1.
        -13    1    3    3    0    0  0.13648143447E+02  0.43289307156E+02  0.96973919691E+02  0.10707089723E+03  0.00000000000E+00 0.  1.
         13    1    3    3    0    0 -0.12253690974E+02  0.38627597882E+02 -0.11220576554E+02  0.42049323405E+02  0.00000000000E+00 0. -1.
         21    1    1    2  502  501  0.18964511103E+02 -0.72228347884E+02 -0.54605790152E+02  0.92511508676E+02  0.00000000000E+00 0. -1.
<scales pt_clust_5="13000.00000" pt_clust_6="13000.00000" pt_clust_7="13000.00000" pt_clust_8="13000.00000" pt_clust_9="74.67655"></scales>
<clustering>
<clus scale="   74.677">  2  9  1 -1</clus>
<clus scale="   90.393">  7  8 -1 -1</clus>
<clus scale="   92.286">  5  6 -1 -1</clus>
<clus scale="  103.106">  1  7  2 -1</clus>
<clus scale="   74.677">  2  5  1 -1</clus>
</clustering>
</event>
<event>
 9    1  0.1266593E-005  0.1348361E+03  0.7546771E-02  0.1231855E+00
          4   -1    0    0  502    0  0.00000000000E+00  0.00000000000E+00  0.12303171126E+03  0.12303171126E+03  0.00000000000E+00 0. -1.
         -4   -1    0    0    0  501 -0.00000000000E+00 -0.00000000000E+00 -0.26236264597E+03  0.26236264597E+03  0.00000000000E+00 0.  1.
         23    2    1    2    0    0 -0.30127867077E+02 -0.55435315123E+02 -0.17203627984E+03  0.21789642365E+03  0.11790507758E+03 0.  0.
         23    2    1    2    0    0  0.50419002409E+02  0.43093250473E+02  0.66689629897E+02  0.12603724927E+03  0.83897422060E+02 0.  0.
        -11    1    3    3    0    0  0.40812804760E+02 -0.16313017127E+02 -0.10100402905E+03  0.11015268242E+03  0.00000000000E+00 0.  1.
         11    1    3    3    0    0 -0.70940671838E+02 -0.39122297996E+02 -0.71032250790E+02  0.10774374123E+03  0.00000000000E+00 0. -1.
        -13    1    4    4    0    0  0.11631687079E+01  0.55899918754E+02  0.31658749357E+02  0.64252862108E+02  0.00000000000E+00 0.  1.
         13    1    4    4    0    0  0.49255833701E+02 -0.12806668281E+02  0.35030880540E+02  0.61784387166E+02  0.00000000000E+00 0. -1.
         21    1    1    2  502  501 -0.20291135332E+02  0.12342064651E+02 -0.33984284760E+02  0.41460684311E+02  0.00000000000E+00 0.  1.
<scales pt_clust_5="13000.00000" pt_clust_6="13000.00000" pt_clust_7="13000.00000" pt_clust_8="13000.00000" pt_clust_9="23.74988"></scales>
<clustering>
<clus scale="   23.750">  2  9  1 -1</clus>
<clus scale="   83.897">  7  8 -1 -1</clus>
<clus scale="  106.386">  1  7  2 -1</clus>
<clus scale="  117.905">  5  6 -1 -1</clus>
<clus scale="  106.386">  1  5  2 -1</clus>
</clustering>
</event>
<event>
 9    1  0.1266593E-005  0.9525408E+02  0.7546771E-02  0.1290907E+00
         -1   -1    0    0    0  501 -0.00000000000E+00  0.00000000000E+00  0.16779083481E+03  0.16779083481E+03  0.00000000000E+00 0.  1.
          1   -1    0    0  502    0  0.00000000000E+00 -0.00000000000E+00 -0.13598756869E+03  0.13598756869E+03  0.00000000000E+00 0. -1.
         23    2    1    2    0    0 -0.32880610429E+02  0.53637847354E+02  0.58493893703E+02  0.12531963183E+03  0.91243198712E+02 0.  0.
         23    2    1    2    0    0  0.18926459013E+02 -0.19057864282E+01 -0.63695037399E+02  0.11334156337E+03  0.91800922251E+02 0.  0.
        -11    1    4    4    0    0  0.47812444799E+02  0.25268439251E+02 -0.35808743029E+02  0.64859771640E+02  0.00000000000E+00 0.  1.
         11    1    4    4    0    0 -0.28885985786E+02 -0.27174225680E+02 -0.27886294370E+02  0.48481791735E+02  0.00000000000E+00 0. -1.
        -13    1    3    3    0    0  0.30669070487E+01 -0.22141638802E+02 -0.11798758840E+01  0.22384150527E+02  0.00000000000E+00 0. -1.
         13    1    3    3    0    0 -0.35947517478E+02  0.75779486157E+02  0.59673769587E+02  0.10293548131E+03  0.00000000000E+00 0.  1.
         21    1    1    2  502  501  0.13954151417E+02 -0.51732060926E+02  0.37004409825E+02  0.65117208293E+02  0.00000000000E+00 0.  1.
<scales pt_clust_5="13000.00000" pt_clust_6="13000.00000" pt_clust_7="13000.00000" pt_clust_8="13000.00000" pt_clust_9="53.58101"></scales>
<clustering>
<clus scale="   53.581">  1  9  2 -1</clus>
<clus scale="   91.243">  7  8 -1 -1</clus>
<clus scale="   91.801">  5  6 -1 -1</clus>
<clus scale="   94.717">  1  7  2 -1</clus>
<clus scale="   95.254">  2  5  1 -1</clus>
</clustering>
</event>
<event>
 9    1  0.1266593E-005  0.9228150E+02  0.7546771E-02  0.1298100E+00
         -1   -1    0    0    0  501 -0.00000000000E+00  0.00000000000E+00  0.17400467854E+02  0.17400467854E+02  0.00000000000E+00 0.  1.
          1   -1    0    0  502    0  0.00000000000E+00 -0.00000000000E+00 -0.79159149612E+03  0.79159149612E+03  0.00000000000E+00 0. -1.
         23    2    1    2    0    0  0.15092844394E+01 -0.32902070316E+02 -0.28784932338E+03  0.30333510818E+03  0.89833906269E+02 0.  0.
         23    2    1    2    0    0 -0.18720963172E+02 -0.66474630187E+01 -0.37098122670E+03  0.38249660490E+03  0.91005049147E+02 0.  0.
        -11    1    3    3    0    0 -0.38362707650E+02  0.73054351563E+01 -0.11888459007E+03  0.12513437768E+03  0.00000000000E+00 0.  1.
         11    1    3    3    0    0  0.39871992090E+02 -0.40207505472E+02 -0.16896473331E+03  0.17820073050E+03  0.00000000000E+00 0. -1.
        -13    1    4    4    0    0  0.18638634990E+01  0.39171000284E+02 -0.11141686027E+03  0.11811671348E+03  0.00000000000E+00 0.  1.
         13    1    4    4    0    0 -0.20584826671E+02 -0.45818463303E+02 -0.25956436643E+03  0.26437989143E+03  0.00000000000E+00 0. -1.
         21    1    1    2  502  501  0.17211678733E+02  0.39549533335E+02 -0.11536047818E+03  0.12316025089E+03  0.00000000000E+00 0.  1.
<scales pt_clust_5="13000.00000" pt_clust_6="13000.00000" pt_clust_7="13000.00000" pt_clust_8="13000.00000" pt_clust_9="43.13244"></scales>
<clustering>
<clus scale="   43.132">  1  9  2 -1</clus>
<clus scale="   89.834">  5  6 -1 -1</clus>
<clus scale="   91.005">  7  8 -1 -1</clus>
<clus scale="   91.127">  1  5  2 -1</clus>
<clus scale="   92.281">  2  5  1 -1</clus>
</clustering>
</event>
<event>
 9    1  0.1266593E-005  0.1097022E+03  0.7546771E-02  0.1261182E+00
          1   -1    0    0  502    0  0.00000000000E+00  0.00000000000E+00  0.18843955119E+02  0.18843955119E+02  0.00000000000E+00 0. -1.
         -1   -1    0    0    0  501 -0.00000000000E+00 -0.00000000000E+00 -0.95753748974E+03  0.95753748974E+03  0.00000000000E+00 0.  1.
         23    2    1    2    0    0 -0.54534416337E+02  0.52662109478E+02 -0.52379059028E+03  0.53635577041E+03  0.87026603056E+02 0.  0.
         23    2    1    2    0    0  0.26326459552E+02 -0.58070658264E+02 -0.24558154037E+03  0.26828552461E+03  0.87186844886E+02 0.  0.
        -11    1    3    3    0    0  0.23797579209E+02  0.17581435749E+02 -0.13429396104E+03  0.13751472514E+03  0.00000000000E+00 0. -1.
         11    1    3    3    0    0 -0.78331995546E+02  0.35080673729E+02 -0.38949662924E+03  0.39884104527E+03  0.00000000000E+00 0.  1.
        -11    1    4    4    0    0  0.53858826922E+02 -0.13353221104E+02 -0.12434846028E+03  0.13616762216E+03  0.00000000000E+00 0.  1.
         11    1    4    4    0    0 -0.27532367370E+02 -0.44717437160E+02 -0.12123308009E+03  0.13211790245E+03  0.00000000000E+00 0. -1.
         21    1    1    2  502  501  0.28207956785E+02  0.54085487864E+01 -0.16932140397E+03  0.17174014984E+03  0.00000000000E+00 0. -1.
<scales pt_clust_5="13000.00000" pt_clust_6="13000.00000" pt_clust_7="13000.00000" pt_clust_8="13000.00000" pt_clust_9="28.72179"></scales>
<clustering>
<clus scale="   28.722">  2  9  1 -1</clus>
<clus scale="   87.027">  5  6 -1 -1</clus>
<clus scale="   87.187">  7  8 -1 -1</clus>
<clus scale="  109.575">  2  5  1 -1</clus>
<clus scale="  109.702">  1  5  2 -1</clus>
</clustering>
</event>
<event>
 9    1  0.1266593E-005  0.9301421E+02  0.7546771E-02  0.1296275E+00
         -2   -1    0    0    0  501 -0.00000000000E+00  0.00000000000E+00  0.76674586032E+02  0.76674586032E+02  0.00000000000E+00 0.  1.
          2   -1    0    0  502    0  0.00000000000E+00 -0.00000000000E+00 -0.16841896202E+03  0.16841896202E+03  0.00000000000E+00 0. -1.
         23    2    1    2    0    0  0.22842595078E+02 -0.95957561763E+01 -0.46678710948E+02  0.10528324807E+03  0.91059308046E+02 0.  0.
         23    2    1    2    0    0 -0.23533456027E+01  0.44103562825E+01 -0.63366669887E+02  0.11185275191E+03  0.92036480692E+02 0.  0.
        -11    1    3    3    0    0 -0.29950117168E+02 -0.12955590835E+02  0.29277016453E+01  0.32763215489E+02  0.00000000000E+00 0.  1.
         11    1    3    3    0    0  0.52792712245E+02  0.33598346583E+01 -0.49606412593E+02  0.72520032581E+02  0.00000000000E+00 0. -1.
        -13    1    4    4    0    0 -0.13957689762E+01 -0.43424707070E+02 -0.22483741393E+02  0.48920057054E+02  0.00000000000E+00 0.  1.
         13    1    4    4    0    0 -0.95757662652E+00  0.47835063353E+02 -0.40882928494E+02  0.62932694851E+02  0.00000000000E+00 0. -1.
         21    1    1    2  502  501 -0.20489249475E+02  0.51853998938E+01  0.18301004847E+02  0.27957548077E+02  0.00000000000E+00 0.  1.
<scales pt_clust_5="13000.00000" pt_clust_6="13000.00000" pt_clust_7="13000.00000" pt_clust_8="13000.00000" pt_clust_9="21.13522"></scales>
<clustering>
<clus scale="   21.135">  1  9  2 -1</clus>
<clus scale="   91.059">  5  6 -1 -1</clus>
<clus scale="   92.036">  7  8 -1 -1</clus>
<clus scale="   92.047">  1  5  2 -1</clus>
<clus scale="   93.014">  2  5  1 -1</clus>
</clustering>
</event>
<event>
 9    1  0.1266593E-005  0.1879144E+03  0.7546771E-02  0.1161138E+00
         -2   -1    0    0    0  501 -0.00000000000E+00  0.00000000000E+00  0.68443254309E+03  0.68443254309E+03  0.00000000000E+00 0.  1.
          2   -1    0    0  502    0  0.00000000000E+00 -0.00000000000E+00 -0.35735122873E+03  0.35735122873E+03  0.00000000000E+00 0. -1.
         23    2    1    2    0    0 -0.15555181757E+03 -0.47151086701E+02  0.41550461145E+03  0.45539733341E+03  0.91230785460E+02 0.  0.
         23    2    1    2    0    0  0.14677605792E+03  0.74320650336E+02 -0.31113782429E+03  0.36184922597E+03  0.84031817675E+02 0.  0.
        -11    1    4    4    0    0  0.35877958718E+02  0.63837149280E+02 -0.12974975839E+03  0.14898795036E+03  0.00000000000E+00 0. -1.
         11    1    4    4    0    0  0.11089809920E+03  0.10483501056E+02 -0.18138806590E+03  0.21286127561E+03  0.00000000000E+00 0.  1.
        -13    1    3    3    0    0 -0.25030671596E+02  0.23898556577E+02  0.11599336860E+03  0.12104601227E+03  0.00000000000E+00 0. -1.
         13    1    3    3    0    0 -0.13052114597E+03 -0.71049643278E+02  0.29951124285E+03  0.33435132114E+03  0.00000000000E+00 0.  1.
         21    1    1    2  502  501  0.87757596471E+01 -0.27169563635E+02  0.22271452720E+03  0.22453721244E+03  0.00000000000E+00 0.  1.
<scales pt_clust_5="13000.00000" pt_clust_6="13000.00000" pt_clust_7="13000.00000" pt_clust_8="13000.00000" pt_clust_9="28.55169"></scales>
<clustering>
<clus scale="   28.552">  1  9  2 -1</clus>
<clus scale="   84.032">  5  6 -1 -1</clus>
<clus scale="   91.231">  7  8 -1 -1</clus>
<clus scale="  184.527">  2  5  1 -1</clus>
<clus scale="  184.527">  2  5  1 -1</clus>
</clustering>
</event>
<event>
 9    1  0.1266593E-005  0.1208694E+03  0.7546771E-02  0.1245139E+00
         -1   -1    0    0    0  501 -0.00000000000E+00  0.00000000000E+00  0.17712834976E+03  0.17712834976E+03  0.00000000000E+00 0.  1.
          1   -1    0    0  502    0  0.00000000000E+00 -0.00000000000E+00 -0.14512772949E+03  0.14512772949E+03  0.00000000000E+00 0. -1.
         23    2    1    2    0    0  0.75989422599E+02 -0.40222161072E+02  0.79869869526E+02  0.14459009680E+03  0.84468251116E+02 0.  0.
         23    2    1    2    0    0 -0.56262762235E+02  0.44306317447E+02 -0.77339087694E+02  0.14196874390E+03  0.95106474966E+02 0.  0.
        -11    1    3    3    0    0  0.59381318398E+02 -0.61308510693E+02  0.81077010650E+02  0.11772151933E+03  0.00000000000E+00 0. -1.
         11    1    3    3    0    0  0.16608104201E+02  0.21086349620E+02 -0.12071411246E+01  0.26868577468E+02  0.00000000000E+00 0.  1.
        -13    1    4    4    0    0  0.64571489482E+01  0.25009492418E+02 -0.71577041678E+02  0.76094956330E+02  0.00000000000E+00 0. -1.
         13    1    4    4    0    0 -0.62719911184E+02  0.19296825028E+02 -0.57620460158E+01  0.65873787574E+02  0.00000000000E+00 0.  1.
         21    1    1    2  502  501 -0.19726660363E+02 -0.40841563745E+01  0.29469838440E+02  0.35697238550E+02  0.00000000000E+00 0.  1.
<scales pt_clust_5="13000.00000" pt_clust_6="13000.00000" pt_clust_7="13000.00000" pt_clust_8="13000.00000" pt_clust_9="20.14501"></scales>
<clustering>
<clus scale="   20.145">  1  9  2 -1</clus>
<clus scale="   84.468">  5  6 -1 -1</clus>
<clus scale="   95.106">  7  8 -1 -1</clus>
<clus scale="  112.690">  1  5  2 -1</clus>
<clus scale="  120.869">  2  5  1 -1</clus>
</clustering>
</event>
<event>
 9    1  0.1266593E-005  0.9793809E+02  0.7546771E-02  0.1286344E+00
          1   -1    0    0  502    0  0.00000000000E+00  0.00000000000E+00  0.16517550521E+03  0.16517550521E+03  0.00000000000E+00 0. -1.
         -1   -1    0    0    0  501 -0.00000000000E+00 -0.00000000000E+00 -0.77474384626E+02  0.77474384626E+02  0.00000000000E+00 0.  1.
         23    2    1    2    0    0 -0.17502548029E+02  0.12538185220E+02  0.28655192555E+02  0.98793411831E+02  0.92062331519E+02 0.  0.
         23    2    1    2    0    0  0.29924905609E+02  0.14942840645E+02  0.42456143085E+02  0.10943638627E+03  0.95157816768E+02 0.  0.
        -11    1    3    3    0    0 -0.17317108562E+02  0.38825169734E+02 -0.17262605374E+02  0.45883260543E+02  0.00000000000E+00 0. -1.
         11    1    3    3    0    0 -0.18543946697E+00 -0.26286984513E+02  0.45917797930E+02  0.52910151288E+02  0.00000000000E+00 0.  1.
        -11    1    4    4    0    0 -0.31162215032E+02 -0.62765697612E+01 -0.51726421751E+00  0.31792240185E+02  0.00000000000E+00 0.  1.
         11    1    4    4    0    0  0.61087120641E+02  0.21219410406E+02  0.42973407302E+02  0.77644146086E+02  0.00000000000E+00 0. -1.
         21    1    1    2  502  501 -0.12422357580E+02 -0.27481025865E+02  0.16589784942E+02  0.34420091733E+02  0.00000000000E+00 0.  1.
<scales pt_clust_5="13000.00000" pt_clust_6="13000.00000" pt_clust_7="13000.00000" pt_clust_8="13000.00000" pt_clust_9="30.15828"></scales>
<clustering>
<clus scale="   30.158">  1  9  2 -1</clus>
<clus scale="   92.062">  5  6 -1 -1</clus>
<clus scale="   94.933">  2  5  1 -1</clus>
<clus scale="   95.158">  7  8 -1 -1</clus>
<clus scale="   30.158">  1  5  2 -1</clus>
</clustering>
</event>
<event>
 9    1  0.1266593E-005  0.1017954E+03  0.7546771E-02  0.1276931E+00
         -2   -1    0    0    0  501 -0.00000000000E+00  0.00000000000E+00  0.47804077667E+03  0.47804077667E+03  0.00000000000E+00 0.  1.
          2   -1    0    0  502    0  0.00000000000E+00 -0.00000000000E+00 -0.69417065063E+02  0.69417065063E+02  0.00000000000E+00 0. -1.
         23    2    1    2    0    0 -0.17873026067E+02 -0.46535846050E+02  0.26612034302E+03  0.28578755357E+03  0.91484746142E+02 0.  0.
         23    2    1    2    0    0 -0.74501783784E+02  0.29031914607E+02  0.57639452551E+02  0.13501572900E+03  0.92269023706E+02 0.  0.
        -11    1    4    4    0    0  0.62232379424E+01  0.40052972909E+02  0.16768556769E+02  0.43865177823E+02  0.00000000000E+00 0. -1.
         11    1    4    4    0    0 -0.80725021726E+02 -0.11021058301E+02  0.40870895782E+02  0.91150551182E+02  0.00000000000E+00 0.  1.
        -11    1    3    3    0    0 -0.27522953735E+01  0.27778257673E+02  0.83676752288E+02  0.88210008517E+02  0.00000000000E+00 0.  1.
         11    1    3    3    0    0 -0.15120730693E+02 -0.74314103723E+02  0.18244359073E+03  0.19757754505E+03  0.00000000000E+00 0. -1.
         21    1    1    2  502  501  0.92374809850E+02  0.17503931443E+02  0.84863916033E+02  0.12665455916E+03  0.00000000000E+00 0. -1.
<scales pt_clust_5="13000.00000" pt_clust_6="13000.00000" pt_clust_7="13000.00000" pt_clust_8="13000.00000" pt_clust_9="94.01858"></scales>
<clustering>
<clus scale="   91.485">  7  8 -1 -1</clus>
<clus scale="   92.269">  5  6 -1 -1</clus>
<clus scale="   94.019">  2  9  1 -1</clus>
<clus scale="  101.085">  1  7  2 -1</clus>
<clus scale="   94.019">  2  5  1 -1</clus>
</clustering>
</event>
<event>
 9    1  0.1266593E-005  0.9637575E+02  0.7546771E-02  0.1289746E+00
         -1   -1    0    0    0  501 -0.00000000000E+00  0.00000000000E+00  0.20737961395E+03  0.20737961395E+03  0.00000000000E+00 0.  1.
          1   -1    0    0  502    0  0.00000000000E+00 -0.00000000000E+00 -0.75307966730E+02  0.75307966730E+02  0.00000000000E+00 0. -1.
         23    2    1    2    0    0  0.24288995250E+02  0.10755079011E+02  0.46246980667E+02  0.10518476200E+03  0.90661038603E+02 0.  0.
         23    2    1    2    0    0 -0.77497233317E+01 -0.22069104654E+02  0.77005717284E+01  0.96849679353E+02  0.93666738994E+02 0.  0.
        -11    1    3    3    0    0 -0.13785131713E+02  0.21528446085E+02  0.58434302724E+02  0.63781436030E+02  0.00000000000E+00 0. -1.
         11    1    3    3    0    0  0.38074126963E+02 -0.10773367073E+02 -0.12187322057E+02  0.41403325966E+02  0.00000000000E+00 0.  1.
        -13    1    4    4    0    0 -0.18721473559E+02 -0.39580015305E+02 -0.30539880041E+02  0.53383100853E+02  0.00000000000E+00 0. -1.
         13    1    4    4    0    0  0.10971750227E+02  0.17510910652E+02  0.38240451770E+02  0.43466578499E+02  0.00000000000E+00 0.  1.
         21    1    1    2  502  501 -0.16539271918E+02  0.11314025642E+02  0.78124094824E+02  0.80653139331E+02  0.00000000000E+00 0.  1.
<scales pt_clust_5="13000.00000" pt_clust_6="13000.00000" pt_clust_7="13000.00000" pt_clust_8="13000.00000" pt_clust_9="20.03883"></scales>
<clustering>
<clus scale="   20.039">  1  9  2 -1</clus>
<clus scale="   90.661">  5  6 -1 -1</clus>
<clus scale="   93.457">  1  5  2 -1</clus>
<clus scale="   93.667">  7  8 -1 -1</clus>
<clus scale="   96.376">  2  5  1 -1</clus>
</clustering>
</event>
<event>
 9    1  0.1266593E-005  0.9216495E+02  0.7546771E-02  0.1297820E+00
          1   -1    0    0  502    0  0.00000000000E+00  0.00000000000E+00  0.14822042292E+03  0.14822042292E+03  0.00000000000E+00 0. -1.
         -1   -1    0    0    0  501 -0.00000000000E+00 -0.00000000000E+00 -0.97316980718E+02  0.97316980718E+02  0.00000000000E+00 0.  1.
         23    2    1    2    0    0 -0.85346437537E+00 -0.28110276920E+02 -0.13807493758E+02  0.94829454522E+02  0.89504538941E+02 0.  0.
         23    2    1    2    0    0  0.22560816141E+02  0.93271646325E+01  0.76100538217E+02  0.11982530888E+03  0.89279484246E+02 0.  0.
        -13    1    3    3    0    0  0.30702230299E+02 -0.16295790768E+02 -0.39382605669E+02  0.52527796178E+02  0.00000000000E+00 0.  1.
         13    1    3    3    0    0 -0.31555694674E+02 -0.11814486152E+02  0.25575111911E+02  0.42301658344E+02  0.00000000000E+00 0. -1.
        -13    1    4    4    0    0  0.57058905783E+02  0.50132096899E+01  0.41152116111E+02  0.70529055438E+02  0.00000000000E+00 0.  1.
         13    1    4    4    0    0 -0.34498089641E+02  0.43139549426E+01  0.34948422106E+02  0.49296253446E+02  0.00000000000E+00 0. -1.
         21    1    1    2  502  501 -0.21707351766E+02  0.18783112287E+02 -0.11389602259E+02  0.30882640229E+02  0.00000000000E+00 0. -1.
<scales pt_clust_5="13000.00000" pt_clust_6="13000.00000" pt_clust_7="13000.00000" pt_clust_8="13000.00000" pt_clust_9="28.70565"></scales>
<clustering>
<clus scale="   28.706">  2  9  1 -1</clus>
<clus scale="   89.279">  7  8 -1 -1</clus>
<clus scale="   89.505">  5  6 -1 -1</clus>
<clus scale="   91.946">  1  7  2 -1</clus>
<clus scale="   91.946">  1  5  2 -1</clus>
</clustering>
</event>
<event>
 9    1  0.1266593E-005  0.1007496E+03  0.7546771E-02  0.1278922E+00
          1   -1    0    0  502    0  0.00000000000E+00  0.00000000000E+00  0.14691307963E+03  0.14691307963E+03  0.00000000000E+00 0. -1.
         -1   -1    0    0    0  501 -0.00000000000E+00 -0.00000000000E+00 -0.13301352982E+03  0.13301352982E+03  0.00000000000E+00 0.  1.
         23    2    1    2    0    0  0.94599203922E+01  0.26828500917E+02 -0.46225894684E+02  0.10520745841E+03  0.90125009907E+02 0.  0.
         23    2    1    2    0    0 -0.29169942260E+02 -0.39861270835E+02  0.89823385653E+02  0.13676779055E+03  0.90539391861E+02 0.  0.
        -11    1    3    3    0    0 -0.20960083283E+02 -0.94661641041E+01 -0.52614622387E+02  0.57421527697E+02  0.00000000000E+00 0.  1.
         11    1    3    3    0    0  0.30420003675E+02  0.36294665021E+02  0.63887277032E+01  0.47785930714E+02  0.00000000000E+00 0. -1.
        -11    1    4    4    0    0 -0.30210162479E+02  0.20521661106E+02  0.12383868325E+02  0.38563618687E+02  0.00000000000E+00 0.  1.
         11    1    4    4    0    0  0.10402202195E+01 -0.60382931940E+02  0.77439517329E+02  0.98204171866E+02  0.00000000000E+00 0. -1.
         21    1    1    2  502  501  0.19710021867E+02  0.13032769918E+02 -0.29697941158E+02  0.37951360487E+02  0.00000000000E+00 0. -1.
<scales pt_clust_5="13000.00000" pt_clust_6="13000.00000" pt_clust_7="13000.00000" pt_clust_8="13000.00000" pt_clust_9="23.62918"></scales>
<clustering>
<clus scale="   23.629">  2  9  1 -1</clus>
<clus scale="   90.125">  5  6 -1 -1</clus>
<clus scale="   90.539">  7  8 -1 -1</clus>
<clus scale="  100.377">  2  5  1 -1</clus>
<clus scale="  100.750">  1  5  2 -1</clus>
</clustering>
</event>
<event>
 9    1  0.1266593E-005  0.9855661E+02  0.7546771E-02  0.1284637E+00
          1   -1    0    0  502    0  0.00000000000E+00  0.00000000000E+00  0.45041722370E+03  0.45041722370E+03  0.00000000000E+00 0. -1.
         -1   -1    0    0    0  501 -0.00000000000E+00 -0.00000000000E+00 -0.32138660249E+02  0.32138660249E+02  0.00000000000E+00 0.  1.
         23    2    1    2    0    0  0.49275828608E+02 -0.11972329576E+02  0.18724959753E+03  0.21451384241E+03  0.91555080954E+02 0.  0.
         23    2    1    2    0    0 -0.94713726686E+01  0.71523312031E+01  0.17684376668E+03  0.20063534370E+03  0.94021064592E+02 0.  0.
        -11    1    3    3    0    0  0.15421168964E+02  0.27122889466E+02  0.14326362241E+03  0.14662172108E+03  0.00000000000E+00 0. -1.
         11    1    3    3    0    0  0.33854659644E+02 -0.39095219042E+02  0.43985975122E+02  0.67892121332E+02  0.00000000000E+00 0.  1.
        -13    1    4    4    0    0 -0.44505118376E+02  0.24950710937E+02  0.12899432084E+03  0.13871834178E+03  0.00000000000E+00 0.  1.
         13    1    4    4    0    0  0.35033745708E+02 -0.17798379734E+02  0.47849445838E+02  0.61917001918E+02  0.00000000000E+00 0. -1.
         21    1    1    2  502  501 -0.39804455940E+02  0.48199983728E+01  0.54185199240E+02  0.67406697839E+02  0.00000000000E+00 0.  1.
<scales pt_clust_5="13000.00000" pt_clust_6="13000.00000" pt_clust_7="13000.00000" pt_clust_8="13000.00000" pt_clust_9="40.09523"></scales>
<clustering>
<clus scale="   40.095">  2  9  1 -1</clus>
<clus scale="   91.555">  5  6 -1 -1</clus>
<clus scale="   94.021">  7  8 -1 -1</clus>
<clus scale="   96.207">  2  5  1 -1</clus>
<clus scale="   98.557">  1  5  2 -1</clus>
</clustering>
</event>
<event>
 9    1  0.1266593E-005  0.1456458E+03  0.7546771E-02  0.1208051E+00
          3   -1    0    0  502    0  0.00000000000E+00  0.00000000000E+00  0.68379161724E+02  0.68379161724E+02  0.00000000000E+00 0. -1.
         -3   -1    0    0    0  501 -0.00000000000E+00 -0.00000000000E+00 -0.56958940781E+03  0.56958940781E+03  0.00000000000E+00 0.  1.
         23    2    1    2    0    0  0.82604741341E+02 -0.32161773753E+02 -0.21122668782E+03  0.24302956465E+03  0.81171008749E+02 0.  0.
         23    2    1    2    0    0 -0.13010221752E+03 -0.44578406405E+01 -0.83405298587E+02  0.17983069781E+03  0.91848661916E+02 0.  0.
        -11    1    4    4    0    0 -0.61084574203E+02 -0.36169353615E+02 -0.75232001222E+02  0.10343791062E+03  0.00000000000E+00 0.  1.
         11    1    4    4    0    0 -0.69017643319E+02  0.31711512974E+02 -0.81732973652E+01  0.76392787187E+02  0.00000000000E+00 0. -1.
        -13    1    3    3    0    0  0.50874953618E+02  0.16739238712E+02 -0.57292895316E+02  0.78427921507E+02  0.00000000000E+00 0.  1.
         13    1    3    3    0    0  0.31729787723E+02 -0.48901012464E+02 -0.15393379250E+03  0.16460164314E+03  0.00000000000E+00 0. -1.
         21    1    1    2  502  501  0.47497476180E+02  0.36619614393E+02 -0.20657825968E+03  0.21510830708E+03  0.00000000000E+00 0.  1.
<scales pt_clust_5="13000.00000" pt_clust_6="13000.00000" pt_clust_7="13000.00000" pt_clust_8="13000.00000" pt_clust_9="59.97505"></scales>
<clustering>
<clus scale="   59.975">  2  9  1 -1</clus>
<clus scale="   81.171">  7  8 -1 -1</clus>
<clus scale="   91.849">  5  6 -1 -1</clus>
<clus scale="  139.159">  2  7  1 -1</clus>
<clus scale="  145.646">  1  5  2 -1</clus>
</clustering>
</event>
<event>
 9    1  0.2035037E-005  0.9194103E+02  0.7546771E-02  0.1299485E+00
         -2   -1    0    0    0  501 -0.00000000000E+00  0.00000000000E+00  0.44099201524E+02  0.44099201524E+02  0.00000000000E+00 0.  1.
          2   -1    0    0  502    0  0.00000000000E+00 -0.00000000000E+00 -0.49815103440E+03  0.49815103440E+03  0.00000000000E+00 0. -1.
         23    2    1    2    0    0 -0.11631313223E+02  0.22184399872E+02 -0.39835925079E+02  0.10298923384E+03  0.91610295900E+02 0.  0.
         23    2    1    2    0    0  0.71027818103E+01  0.22459463416E+01 -0.40137091714E+03  0.41129060348E+03  0.89475435741E+02 0.  0.
        -11    1    4    4    0    0 -0.21743352912E+02 -0.34561875467E+02 -0.14272575676E+03  0.14845180455E+03  0.00000000000E+00 0. -1.
         11    1    4    4    0    0  0.28846134722E+02  0.36807821809E+02 -0.25864516038E+03  0.26283879893E+03  0.00000000000E+00 0.  1.
        -13    1    3    3    0    0 -0.43594398615E+02  0.38218303400E+02 -0.32576094761E+02  0.66500468083E+02  0.00000000000E+00 0.  1.
         13    1    3    3    0    0  0.31963085392E+02 -0.16033903528E+02 -0.72598303184E+01  0.36488765756E+02  0.00000000000E+00 0. -1.
         21    1    1    2  502  501  0.45285314127E+01 -0.24430346214E+02 -0.12844990647E+02  0.27970398596E+02  0.00000000000E+00 0. -1.
<scales pt_clust_5="13000.00000" pt_clust_6="13000.00000" pt_clust_7="13000.00000" pt_clust_8="13000.00000" pt_clust_9="24.84652"></scales>
<clustering>
<clus scale="   24.847">  1  9  2 -1</clus>
<clus scale="   89.475">  5  6 -1 -1</clus>
<clus scale="   89.814">  2  5  1 -1</clus>
<clus scale="   91.610">  7  8 -1 -1</clus>
<clus scale="   89.814">  2  5  1 -1</clus>
</clustering>
</event>
<event>
 9    1  0.1266593E-005  0.1467848E+03  0.7546771E-02  0.1205672E+00
         -1   -1    0    0    0  501 -0.00000000000E+00  0.00000000000E+00  0.19672317729E+03  0.19672317729E+03  0.00000000000E+00 0.  1.
          1   -1    0    0  502    0  0.00000000000E+00 -0.00000000000E+00 -0.47963705255E+03  0.47963705255E+03  0.00000000000E+00 0. -1.
         23    2    1    2    0    0  0.44109108224E+02 -0.55592597983E+02 -0.84600637941E+02  0.14039397303E+03  0.86700918938E+02 0.  0.
         23    2    1    2    0    0 -0.13872056949E+03  0.65172582445E+02 -0.32884641325E+03  0.37446698522E+03  0.92707591993E+02 0.  0.
        -13    1    3    3    0    0 -0.67355756840E+01 -0.58171487148E+02 -0.60038729753E+02  0.83868581526E+02  0.00000000000E+00 0. -1.
         13    1    3    3    0    0  0.50844683908E+02  0.25788891650E+01 -0.24561908188E+02  0.56525391506E+02  0.00000000000E+00 0.  1.
        -13    1    4    4    0    0 -0.11434487590E+03  0.88110585966E+02 -0.24779348103E+03  0.28677488601E+03  0.00000000000E+00 0. -1.
         13    1    4    4    0    0 -0.24375693589E+02 -0.22938003521E+02 -0.81052932220E+02  0.87692099216E+02  0.00000000000E+00 0.  1.
         21    1    1    2  502  501  0.94611461262E+02 -0.95799844624E+01  0.13053317593E+03  0.16149927158E+03  0.00000000000E+00 0.  1.
<scales pt_clust_5="13000.00000" pt_clust_6="13000.00000" pt_clust_7="13000.00000" pt_clust_8="13000.00000" pt_clust_9="95.09524"></scales>
<clustering>
<clus scale="   86.701">  5  6 -1 -1</clus>
<clus scale="   92.708">  7  8 -1 -1</clus>
<clus scale="   95.095">  1  9  2 -1</clus>
<clus scale="  143.067">  1  5  2 -1</clus>
<clus scale="  146.785">  2  5  1 -1</clus>
</clustering>
</event>
<event>
 9    1  0.1266593E-005  0.1019454E+03  0.7546771E-02  0.1282535E+00
         -3   -1    0    0    0  501 -0.00000000000E+00  0.00000000000E+00  0.10527585165E+03  0.10527585165E+03  0.00000000000E+00 0.  1.
          3   -1    0    0  502    0  0.00000000000E+00 -0.00000000000E+00 -0.14886080340E+03  0.14886080340E+03  0.00000000000E+00 0. -1.
         23    2    1    2    0    0 -0.12902706282E+02 -0.12362429586E+02  0.24685602847E+02  0.98758061432E+02  0.93938630048E+02 0.  0.
         23    2    1    2    0    0  0.92042386653E+01  0.48150339785E+02 -0.72056897055E+02  0.11920139682E+03  0.81324063844E+02 0.  0.
        -13    1    3    3    0    0  0.36294020305E+02 -0.10481945152E+02 -0.93360584545E+01  0.38913867342E+02  0.00000000000E+00 0.  1.
         13    1    3    3    0    0 -0.49196726587E+02 -0.18804844339E+01  0.34021661302E+02  0.59844194090E+02  0.00000000000E+00 0. -1.
        -13    1    4    4    0    0 -0.28040252336E+02  0.23328588629E+02 -0.64085834283E+02  0.73739222631E+02  0.00000000000E+00 0. -1.
         13    1    4    4    0    0  0.37244491001E+02  0.24821751156E+02 -0.79710627716E+01  0.45462174190E+02  0.00000000000E+00 0.  1.
         21    1    1    2  502  501  0.36984676168E+01 -0.35787910199E+02  0.37863424598E+01  0.36177196801E+02  0.00000000000E+00 0. -1.
<scales pt_clust_5="13000.00000" pt_clust_6="13000.00000" pt_clust_7="13000.00000" pt_clust_8="13000.00000" pt_clust_9="35.97851"></scales>
<clustering>
<clus scale="   35.979">  1  9  2 -1</clus>
<clus scale="   81.324">  7  8 -1 -1</clus>
<clus scale="   90.454">  2  7  1 -1</clus>
<clus scale="   93.939">  5  6 -1 -1</clus>
<clus scale="   90.454">  2  5  1 -1</clus>
</clustering>
</event>
<event>
 9    1  0.1266593E-005  0.1170954E+03  0.7546771E-02  0.1248576E+00
          1   -1    0    0  502    0  0.00000000000E+00  0.00000000000E+00  0.13336850025E+03  0.13336850025E+03  0.00000000000E+00 0. -1.
         -1   -1    0    0    0  501 -0.00000000000E+00 -0.00000000000E+00 -0.22911437400E+03  0.22911437400E+03  0.00000000000E+00 0.  1.
         23    2    1    2    0    0  0.62127878291E+02  0.12973995500E+02 -0.15493846462E+03  0.19243965772E+03  0.94862512209E+02 0.  0.
         23    2    1    2    0    0 -0.68934284362E+02  0.14607304721E+02  0.73768168494E+02  0.13811356341E+03  0.93103731417E+02 0.  0.
        -11    1    4    4    0    0 -0.27973358379E+02 -0.12161461214E+01 -0.20110130391E+02  0.34473252454E+02  0.00000000000E+00 0.  1.
         11    1    4    4    0    0 -0.40960925983E+02  0.15823450842E+02  0.93878298885E+02  0.10364031096E+03  0.00000000000E+00 0. -1.
        -13    1    3    3    0    0  0.17311011166E+01  0.33517593772E+02 -0.11539935767E+02  0.35490786422E+02  0.00000000000E+00 0. -1.
         13    1    3    3    0    0  0.60396777174E+02 -0.20543598272E+02 -0.14339852885E+03  0.15694887129E+03  0.00000000000E+00 0.  1.
         21    1    1    2  502  501  0.68064060712E+01 -0.27581300221E+02 -0.14575577625E+02  0.31929653123E+02  0.00000000000E+00 0.  1.
<scales pt_clust_5="13000.00000" pt_clust_6="13000.00000" pt_clust_7="13000.00000" pt_clust_8="13000.00000" pt_clust_9="28.40872"></scales>
<clustering>
<clus scale="   28.409">  2  9  1 -1</clus>
<clus scale="   93.104">  5  6 -1 -1</clus>
<clus scale="   94.863">  7  8 -1 -1</clus>
<clus scale="  115.675">  1  5  2 -1</clus>
<clus scale="  115.675">  1  5  2 -1</clus>
</clustering>
</event>
<event>
 9    1  0.1266593E-005  0.2452195E+03  0.7546771E-02  0.1118347E+00
          1   -1    0    0  502    0  0.00000000000E+00  0.00000000000E+00  0.19266110718E+03  0.19266110718E+03  0.00000000000E+00 0. -1.
         -1   -1    0    0    0  501 -0.00000000000E+00 -0.00000000000E+00 -0.35516388617E+03  0.35516388617E+03  0.00000000000E+00 0.  1.
         23    2    1    2    0    0  0.16803180508E+03 -0.16816772882E+03 -0.10226276544E+03  0.27187848941E+03  0.83337670201E+02 0.  0.
         23    2    1    2    0    0 -0.14079259351E+03  0.14668325850E+03 -0.39964807363E+02  0.23576390699E+03  0.11246733437E+03 0.  0.
        -11    1    4    4    0    0 -0.18072475296E+02  0.86810152936E+02  0.12372660825E+02  0.89530440365E+02  0.00000000000E+00 0. -1.
         11    1    4    4    0    0 -0.12272011822E+03  0.59873105569E+02 -0.52337468188E+02  0.14623346663E+03  0.00000000000E+00 0.  1.
        -13    1    3    3    0    0  0.96332186801E+02 -0.14943410307E+03 -0.70901164372E+02  0.19140902926E+03  0.00000000000E+00 0.  1.
         13    1    3    3    0    0  0.71699618276E+02 -0.18733625748E+02 -0.31361601066E+02  0.80469460145E+02  0.00000000000E+00 0. -1.
         21    1    1    2  502  501 -0.27239211564E+02  0.21484470311E+02 -0.20275206192E+02  0.40182596946E+02  0.00000000000E+00 0.  1.
<scales pt_clust_5="13000.00000" pt_clust_6="13000.00000" pt_clust_7="13000.00000" pt_clust_8="13000.00000" pt_clust_9="34.69232"></scales>
<clustering>
<clus scale="   34.692">  2  9  1 -1</clus>
<clus scale="   83.338">  7  8 -1 -1</clus>
<clus scale="  112.467">  5  6 -1 -1</clus>
<clus scale="  233.300">  2  7  1 -1</clus>
<clus scale="  245.219">  1  5  2 -1</clus>
</clustering>
</event>
<event>
 9    1  0.1266593E-005  0.9337787E+02  0.7546771E-02  0.1304319E+00
         -1   -1    0    0    0  501 -0.00000000000E+00  0.00000000000E+00  0.68546299033E+02  0.68546299033E+02  0.00000000000E+00 0.  1.
          1   -1    0    0  502    0  0.00000000000E+00 -0.00000000000E+00 -0.32475334125E+03  0.32475334125E+03  0.00000000000E+00 0. -1.
         23    2    1    2    0    0 -0.10326143523E+02 -0.13518874682E+01 -0.97789713831E+02  0.12381493471E+03  0.75225348699E+02 0.  0.
         23    2    1    2    0    0 -0.17538596711E+02 -0.46527224179E+02 -0.18195353757E+03  0.20929495375E+03  0.90691250225E+02 0.  0.
        -11    1    4    4    0    0  0.13091905228E+02 -0.62189622279E+02 -0.83034085823E+02  0.10456388722E+03  0.00000000000E+00 0. -1.
         11    1    4    4    0    0 -0.30630501939E+02  0.15662398100E+02 -0.98919451751E+02  0.10473106654E+03  0.00000000000E+00 0.  1.
        -13    1    3    3    0    0 -0.29748931123E+02 -0.28570897949E+02 -0.42678067914E+02  0.59352443871E+02  0.00000000000E+00 0. -1.
         13    1    3    3    0    0  0.19422787601E+02  0.27219010481E+02 -0.55111645917E+02  0.64462490841E+02  0.00000000000E+00 0.  1.
         21    1    1    2  502  501  0.27864740233E+02  0.47879111647E+02  0.23536209190E+02  0.60189751814E+02  0.00000000000E+00 0.  1.
<scales pt_clust_5="13000.00000" pt_clust_6="13000.00000" pt_clust_7="13000.00000" pt_clust_8="13000.00000" pt_clust_9="55.39723"></scales>
<clustering>
<clus scale="   55.397">  1  9  2 -1</clus>
<clus scale="   75.225">  7  8 -1 -1</clus>
<clus scale="   78.443">  1  7  2 -1</clus>
<clus scale="   90.691">  5  6 -1 -1</clus>
<clus scale="   93.378">  2  5  1 -1</clus>
</clustering>
</event>
<event>
 9    1  0.1266593E-005  0.1405391E+03  0.7546771E-02  0.1232456E+00
         -2   -1    0    0    0  501 -0.00000000000E+00  0.00000000000E+00  0.29250102867E+03  0.29250102867E+03  0.00000000000E+00 0.  1.
          2   -1    0    0  502    0  0.00000000000E+00 -0.00000000000E+00 -0.12571151180E+03  0.12571151180E+03  0.00000000000E+00 0. -1.
         23    2    1    2    0    0  0.36314152510E+01  0.15863569114E+02  0.56744795185E+02  0.10877288477E+03  0.91360432784E+02 0.  0.
         23    2    1    2    0    0 -0.17312535939E+02 -0.10803259026E+03 -0.24116535931E+02  0.14609479179E+03  0.93762020157E+02 0.  0.
        -13    1    3    3    0    0  0.23999697607E+02  0.47074277123E+02  0.45811538104E+02  0.69933325928E+02  0.00000000000E+00 0. -1.
         13    1    3    3    0    0 -0.20368282356E+02 -0.31210708009E+02  0.10933257082E+02  0.38839558841E+02  0.00000000000E+00 0.  1.
        -13    1    4    4    0    0  0.36134376941E+02 -0.36676753898E+02  0.63571014656E+01  0.51877646559E+02  0.00000000000E+00 0.  1.
         13    1    4    4    0    0 -0.53446912880E+02 -0.71355836361E+02 -0.30473637396E+02  0.94217145230E+02  0.00000000000E+00 0. -1.
         21    1    1    2  502  501  0.13681120688E+02  0.92169021145E+02  0.13416125762E+03  0.16334486392E+03  0.00000000000E+00 0.  1.
<scales pt_clust_5="13000.00000" pt_clust_6="13000.00000" pt_clust_7="13000.00000" pt_clust_8="13000.00000" pt_clust_9="104.68965"></scales>
<clustering>
<clus scale="   91.360">  5  6 -1 -1</clus>
<clus scale="   92.799">  1  5  2 -1</clus>
<clus scale="   93.762">  7  8 -1 -1</clus>
<clus scale="  104.690">  1  9  2 -1</clus>
<clus scale="  140.539">  2  5  1 -1</clus>
</clustering>
</event>
<event>
 9    1  0.1266593E-005  0.1020754E+03  0.7546771E-02  0.1284505E+00
          4   -1    0    0  502    0  0.00000000000E+00  0.00000000000E+00  0.35054117301E+03  0.35054117301E+03  0.00000000000E+00 0. -1.
         -4   -1    0    0    0  501 -0.00000000000E+00 -0.00000000000E+00 -0.38400129650E+02  0.38400129650E+02  0.00000000000E+00 0.  1.
         23    2    1    2    0    0  0.33091663174E+02  0.11190483205E+01  0.14240093016E+03  0.17335921858E+03  0.93161597850E+02 0.  0.
         23    2    1    2    0    0 -0.45720780744E+02  0.19280962517E+02  0.16863707005E+03  0.19156392935E+03  0.76132334302E+02 0.  0.
        -11    1    4    4    0    0 -0.57866343578E+02 -0.61291673209E+01  0.13895287874E+03  0.15064522203E+03  0.00000000000E+00 0. -1.
         11    1    4    4    0    0  0.12145562834E+02  0.25410129837E+02  0.29684191307E+02  0.40918707317E+02  0.00000000000E+00 0.  1.
        -13    1    3    3    0    0 -0.30957641692E+02  0.12840026128E+02  0.54254505722E+02  0.63771413982E+02  0.00000000000E+00 0. -1.
         13    1    3    3    0    0  0.64049304866E+02 -0.11720977808E+02  0.88146424440E+02  0.10958780460E+03  0.00000000000E+00 0.  1.
         21    1    1    2  502  501  0.12629117570E+02 -0.20400010837E+02  0.11030431544E+01  0.24018154737E+02  0.00000000000E+00 0.  1.
<scales pt_clust_5="13000.00000" pt_clust_6="13000.00000" pt_clust_7="13000.00000" pt_clust_8="13000.00000" pt_clust_9="23.99281"></scales>
<clustering>
<clus scale="   23.993">  2  9  1 -1</clus>
<clus scale="   76.132">  5  6 -1 -1</clus>
<clus scale="   86.813">  1  5  2 -1</clus>
<clus scale="   93.162">  7  8 -1 -1</clus>
<clus scale="   86.813">  1  5  2 -1</clus>
</clustering>
</event>
<event>
 9    1  0.1266593E-005  0.1237667E+03  0.7546771E-02  0.1237033E+00
         -1   -1    0    0    0  501 -0.00000000000E+00  0.00000000000E+00  0.92468162611E+02  0.92468162611E+02  0.00000000000E+00 0.  1.
          1   -1    0    0  502    0  0.00000000000E+00 -0.00000000000E+00 -0.41181455495E+03  0.41181455495E+03  0.00000000000E+00 0. -1.
         23    2    1    2    0    0  0.55261100336E+02  0.77217413846E+02 -0.17507456491E+03  0.21896236182E+03  0.90978538143E+02 0.  0.
         23    2    1    2    0    0 -0.57473435819E+02 -0.50251758122E+02 -0.19469723021E+03  0.22809481718E+03  0.91059316664E+02 0.  0.
        -11    1    3    3    0    0  0.69802807508E+02  0.54967400529E+02 -0.77716761640E+02  0.11804127285E+03  0.00000000000E+00 0.  1.
         11    1    3    3    0    0 -0.14541707172E+02  0.22250013317E+02 -0.97357803274E+02  0.10092108897E+03  0.00000000000E+00 0. -1.
        -11    1    4    4    0    0 -0.20872489771E+02 -0.51624663567E+02 -0.38592054864E+02  0.67750375765E+02  0.00000000000E+00 0. -1.
         11    1    4    4    0    0 -0.36600946047E+02  0.13729054455E+01 -0.15610517535E+03  0.16034444141E+03  0.00000000000E+00 0.  1.
         21    1    1    2  502  501  0.22123354825E+01 -0.26965655724E+02  0.50425402791E+02  0.57225538561E+02  0.00000000000E+00 0.  1.
<scales pt_clust_5="13000.00000" pt_clust_6="13000.00000" pt_clust_7="13000.00000" pt_clust_8="13000.00000" pt_clust_9="27.05626"></scales>
<clustering>
<clus scale="   27.056">  1  9  2 -1</clus>
<clus scale="   90.979">  5  6 -1 -1</clus>
<clus scale="   91.059">  7  8 -1 -1</clus>
<clus scale="  123.707">  1  5  2 -1</clus>
<clus scale="  123.767">  2  5  1 -1</clus>
</clustering>
</event>
<event>
 9    1  0.1266593E-005  0.1002999E+03  0.7546771E-02  0.1280157E+00
          2   -1    0    0  502    0  0.00000000000E+00  0.00000000000E+00  0.19084908462E+03  0.19084908462E+03  0.00000000000E+00 0. -1.
         -2   -1    0    0    0  501 -0.00000000000E+00 -0.00000000000E+00 -0.20037932779E+03  0.20037932779E+03  0.00000000000E+00 0.  1.
         23    2    1    2    0    0  0.72054491138E+01 -0.10339521148E+02 -0.13064635131E+03  0.15997025542E+03  0.91450474654E+02 0.  0.
         23    2    1    2    0    0  0.16114773501E+02  0.39063513217E+02  0.15213618268E+03  0.18297621908E+03  0.92462071559E+02 0.  0.
        -11    1    4    4    0    0 -0.35930242648E+02  0.79326413232E+01  0.84321568565E+02  0.92000195980E+02  0.00000000000E+00 0. -1.
         11    1    4    4    0    0  0.52045016149E+02  0.31130871894E+02  0.67814614118E+02  0.90976023099E+02  0.00000000000E+00 0.  1.
        -13    1    3    3    0    0  0.56730259975E+00  0.29047418482E+02 -0.11233384116E+03  0.11603002294E+03  0.00000000000E+00 0.  1.
         13    1    3    3    0    0  0.66381465140E+01 -0.39386939631E+02 -0.18312510144E+02  0.43940232480E+02  0.00000000000E+00 0. -1.
         21    1    1    2  502  501 -0.23320222615E+02 -0.28723992069E+02 -0.31020074552E+02  0.48281937910E+02  0.00000000000E+00 0.  1.
<scales pt_clust_5="13000.00000" pt_clust_6="13000.00000" pt_clust_7="13000.00000" pt_clust_8="13000.00000" pt_clust_9="36.99866"></scales>
<clustering>
<clus scale="   36.999">  2  9  1 -1</clus>
<clus scale="   91.450">  7  8 -1 -1</clus>
<clus scale="   92.462">  5  6 -1 -1</clus>
<clus scale="   99.368">  2  7  1 -1</clus>
<clus scale="  100.300">  1  5  2 -1</clus>
</clustering>
</event>
<event>
 9    1  0.1266593E-005  0.1436866E+03  0.7546771E-02  0.1208849E+00
         -3   -1    0    0    0  501 -0.00000000000E+00  0.00000000000E+00  0.30222315933E+02  0.30222315933E+02  0.00000000000E+00 0.  1.
          3   -1    0    0  502    0  0.00000000000E+00 -0.00000000000E+00 -0.10092749845E+04  0.10092749845E+04  0.00000000000E+00 0. -1.
         23    2    1    2    0    0  0.23936426449E+02  0.12912935090E+03 -0.43206405974E+03  0.46051969087E+03  0.90286722075E+02 0.  0.
         23    2    1    2    0    0  0.22468941545E+02 -0.98155712544E+02 -0.39152255662E+03  0.41380340504E+03  0.88339959463E+02 0.  0.
        -13    1    4    4    0    0  0.45645970859E+02 -0.17204902629E+02 -0.12041563335E+03  0.12992108407E+03  0.00000000000E+00 0.  1.
         13    1    4    4    0    0 -0.23177029313E+02 -0.80950809915E+02 -0.27110692327E+03  0.28388232097E+03  0.00000000000E+00 0. -1.
        -13    1    3    3    0    0  0.16894603207E+02  0.10751317047E+03 -0.42173086238E+03  0.43554727611E+03  0.00000000000E+00 0.  1.
         13    1    3    3    0    0  0.70418232422E+01  0.21616180438E+02 -0.10333197359E+02  0.24972414761E+02  0.00000000000E+00 0. -1.
         21    1    1    2  502  501 -0.46405367995E+02 -0.30973638361E+02 -0.15546605219E+03  0.16517420451E+03  0.00000000000E+00 0.  1.
<scales pt_clust_5="13000.00000" pt_clust_6="13000.00000" pt_clust_7="13000.00000" pt_clust_8="13000.00000" pt_clust_9="55.79269"></scales>
<clustering>
<clus scale="   55.793">  1  9  2 -1</clus>
<clus scale="   88.340">  5  6 -1 -1</clus>
<clus scale="   90.287">  7  8 -1 -1</clus>
<clus scale="  142.471">  2  5  1 -1</clus>
<clus scale="  142.471">  2  5  1 -1</clus>
</clustering>
</event>
<event>
 9    1  0.1266593E-005  0.1918591E+03  0.7546771E-02  0.1156917E+00
         -2   -1    0    0    0  501 -0.00000000000E+00  0.00000000000E+00  0.59621598947E+02  0.59621598947E+02  0.00000000000E+00 0.  1.
          2   -1    0    0  502    0  0.00000000000E+00 -0.00000000000E+00 -0.94599408990E+03  0.94599408990E+03  0.00000000000E+00 0. -1.
         23    2    1    2    0    0 -0.92579473922E+02 -0.16466884360E+03 -0.23146961793E+03  0.31263120348E+03  0.92050520468E+02 0.  0.
         23    2    1    2    0    0  0.73182617160E+02  0.14402048768E+03 -0.62448695602E+03  0.65141862604E+03  0.90910240284E+02 0.  0.
        -11    1    3    3    0    0 -0.73805974828E+02 -0.96288819954E+02 -0.20243711449E+03  0.23600772040E+03  0.00000000000E+00 0. -1.
         11    1    3    3    0    0 -0.18773499095E+02 -0.68380023646E+02 -0.29032503444E+02  0.76623483074E+02  0.00000000000E+00 0.  1.
        -13    1    4    4    0    0 -0.21468873883E+02  0.27134244957E+02 -0.10158022879E+03  0.10731133527E+03  0.00000000000E+00 0.  1.
         13    1    4    4    0    0  0.94651491043E+02  0.11688624272E+03 -0.52290672723E+03  0.54410729077E+03  0.00000000000E+00 0. -1.
         21    1    1    2  502  501  0.19396856762E+02  0.20648355924E+02 -0.30415916998E+02  0.41565859326E+02  0.00000000000E+00 0.  1.
<scales pt_clust_5="13000.00000" pt_clust_6="13000.00000" pt_clust_7="13000.00000" pt_clust_8="13000.00000" pt_clust_9="28.33007"></scales>
<clustering>
<clus scale="   28.330">  1  9  2 -1</clus>
<clus scale="   90.910">  7  8 -1 -1</clus>
<clus scale="   92.051">  5  6 -1 -1</clus>
<clus scale="  191.315">  2  7  1 -1</clus>
<clus scale="  191.315">  2  5  1 -1</clus>
</clustering>
</event>
<event>
 9    1  0.1266593E-005  0.1644027E+03  0.7546771E-02  0.1183877E+00
          2   -1    0    0  502    0  0.00000000000E+00  0.00000000000E+00  0.34991919843E+03  0.34991919843E+03  0.00000000000E+00 0. -1.
         -2   -1    0    0    0  501 -0.00000000000E+00 -0.00000000000E+00 -0.10752149367E+03  0.10752149367E+03  0.00000000000E+00 0.  1.
         23    2    1    2    0    0 -0.11833124032E+02 -0.11156327614E+03  0.49186164187E+02  0.15288023552E+03  0.91469668523E+02 0.  0.
         23    2    1    2    0    0  0.12440278739E+01  0.15290090255E+03  0.19169986834E+03  0.26186135275E+03  0.91881961966E+02 0.  0.
        -11    1    4    4    0    0  0.25676100446E+02  0.12269795060E+03  0.18338244503E+03  0.22213322660E+03  0.00000000000E+00 0. -1.
         11    1    4    4    0    0 -0.24432072572E+02  0.30202951947E+02  0.83174233149E+01  0.39728126146E+02  0.00000000000E+00 0.  1.
        -13    1    3    3    0    0 -0.36539436688E+02 -0.21378331316E+02 -0.82653021959E+01  0.43133266787E+02  0.00000000000E+00 0. -1.
         13    1    3    3    0    0  0.24706312656E+02 -0.90184944821E+02  0.57451466382E+02  0.10974696874E+03  0.00000000000E+00 0.  1.
         21    1    1    2  502  501  0.10589096158E+02 -0.41337626412E+02  0.15116722328E+01  0.42699103829E+02  0.00000000000E+00 0. -1.
<scales pt_clust_5="13000.00000" pt_clust_6="13000.00000" pt_clust_7="13000.00000" pt_clust_8="13000.00000" pt_clust_9="42.67234"></scales>
<clustering>
<clus scale="   42.672">  2  9  1 -1</clus>
<clus scale="   91.470">  7  8 -1 -1</clus>
<clus scale="   91.882">  5  6 -1 -1</clus>
<clus scale="  164.173">  2  7  1 -1</clus>
<clus scale="  164.403">  1  5  2 -1</clus>
</clustering>
</event>
<event>
 9    1  0.1266593E-005  0.1164627E+03  0.7546771E-02  0.1250050E+00
          2   -1    0    0  502    0  0.00000000000E+00  0.00000000000E+00  0.82468283232E+02  0.82468283232E+02  0.00000000000E+00 0. -1.
         -2   -1    0    0    0  501 -0.00000000000E+00 -0.00000000000E+00 -0.54770852393E+03  0.54770852393E+03  0.00000000000E+00 0.  1.
         23    2    1    2    0    0  0.13058062994E+02 -0.37347363830E+02 -0.20117933397E+03  0.22378351858E+03  0.89669393763E+02 0.  0.
         23    2    1    2    0    0 -0.37720779902E+02  0.68831293160E+02  0.16943079067E+02  0.12255754833E+03  0.92588771295E+02 0.  0.
        -11    1    4    4    0    0 -0.60364103227E+02  0.60977196920E+02  0.34880927798E+02  0.92621394001E+02  0.00000000000E+00 0. -1.
         11    1    4    4    0    0  0.22643323325E+02  0.78540962394E+01 -0.17937848731E+02  0.29936154329E+02  0.00000000000E+00 0.  1.
        -13    1    3    3    0    0 -0.21277649299E+02 -0.54428993208E+02 -0.13817587584E+03  0.15002608548E+03  0.00000000000E+00 0.  1.
         13    1    3    3    0    0  0.34335712294E+02  0.17081629378E+02 -0.63003458134E+02  0.73757433102E+02  0.00000000000E+00 0. -1.
         21    1    1    2  502  501  0.24662716907E+02 -0.31483929329E+02 -0.28100398579E+03  0.28383574025E+03  0.00000000000E+00 0.  1.
<scales pt_clust_5="13000.00000" pt_clust_6="13000.00000" pt_clust_7="13000.00000" pt_clust_8="13000.00000" pt_clust_9="39.99359"></scales>
<clustering>
<clus scale="   39.994">  2  9  1 -1</clus>
<clus scale="   89.669">  7  8 -1 -1</clus>
<clus scale="   92.589">  5  6 -1 -1</clus>
<clus scale="  114.156">  2  7  1 -1</clus>
<clus scale="  116.463">  1  5  2 -1</clus>
</clustering>
</event>
<event>
 9    1  0.1266593E-005  0.9442141E+02  0.7546771E-02  0.1295020E+00
         -1   -1    0    0    0  501 -0.00000000000E+00  0.00000000000E+00  0.67528044219E+02  0.67528044219E+02  0.00000000000E+00 0.  1.
          1   -1    0    0  502    0  0.00000000000E+00 -0.00000000000E+00 -0.28661144637E+03  0.28661144637E+03  0.00000000000E+00 0. -1.
         23    2    1    2    0    0 -0.20734818695E+02 -0.52324450433E+02 -0.14679790555E+02  0.10807690669E+03  0.91089739765E+02 0.  0.
         23    2    1    2    0    0  0.92488209738E+01  0.15476357404E+02 -0.17958578835E+03  0.20017539119E+03  0.86568317137E+02 0.  0.
        -13    1    3    3    0    0 -0.34424735217E+02 -0.67135874024E+02 -0.31554082834E+02  0.81779876004E+02  0.00000000000E+00 0. -1.
         13    1    3    3    0    0  0.13689916522E+02  0.14811423591E+02  0.16874292280E+02  0.26297030690E+02  0.00000000000E+00 0.  1.
        -13    1    4    4    0    0 -0.34551540332E+02  0.19240504169E+02 -0.11842745328E+03  0.12485618779E+03  0.00000000000E+00 0. -1.
         13    1    4    4    0    0  0.43800361306E+02 -0.37641467646E+01 -0.61158335075E+02  0.75319203399E+02  0.00000000000E+00 0.  1.
         21    1    1    2  502  501  0.11485997721E+02  0.36848093029E+02 -0.24817823238E+02  0.45887192699E+02  0.00000000000E+00 0.  1.
<scales pt_clust_5="13000.00000" pt_clust_6="13000.00000" pt_clust_7="13000.00000" pt_clust_8="13000.00000" pt_clust_9="38.59676"></scales>
<clustering>
<clus scale="   38.597">  1  9  2 -1</clus>
<clus scale="   86.568">  7  8 -1 -1</clus>
<clus scale="   90.067">  2  7  1 -1</clus>
<clus scale="   91.090">  5  6 -1 -1</clus>
<clus scale="   90.067">  2  5  1 -1</clus>
</clustering>
</event>
<event>
 9    1  0.1266593E-005  0.1381336E+03  0.7546771E-02  0.1216215E+00
         -1   -1    0    0    0  501 -0.00000000000E+00  0.00000000000E+00  0.81731099616E+02  0.81731099616E+02  0.00000000000E+00 0.  1.
          1   -1    0    0  502    0  0.00000000000E+00 -0.00000000000E+00 -0.44405775072E+03  0.44405775072E+03  0.00000000000E+00 0. -1.
         23    2    1    2    0    0 -0.61717703635E+02 -0.62297809982E+02 -0.65451244038E+01  0.12548831476E+03  0.89523105495E+02 0.  0.
         23    2    1    2    0    0  0.90832746544E+02  0.61430838219E+02 -0.33827848337E+03  0.36631827712E+03  0.87934135092E+02 0.  0.
        -11    1    4    4    0    0 -0.12359962056E+02  0.29149668005E+02 -0.61541379374E+02  0.69208476230E+02  0.00000000000E+00 0.  1.
         11    1    4    4    0    0  0.10319270860E+03  0.32281170214E+02 -0.27673710400E+03  0.29710980089E+03  0.00000000000E+00 0. -1.
        -13    1    3    3    0    0 -0.67017438406E+02 -0.18691982172E+02  0.22154130206E+02  0.73017345427E+02  0.00000000000E+00 0.  1.
         13    1    3    3    0    0  0.52997347716E+01 -0.43605827810E+02 -0.28699254609E+02  0.52470969333E+02  0.00000000000E+00 0. -1.
         21    1    1    2  502  501 -0.29115042910E+02  0.86697176298E+00 -0.17503043329E+02  0.33982258451E+02  0.00000000000E+00 0.  1.
<scales pt_clust_5="13000.00000" pt_clust_6="13000.00000" pt_clust_7="13000.00000" pt_clust_8="13000.00000" pt_clust_9="29.12795"></scales>
<clustering>
<clus scale="   29.128">  1  9  2 -1</clus>
<clus scale="   87.934">  5  6 -1 -1</clus>
<clus scale="   89.523">  7  8 -1 -1</clus>
<clus scale="  137.109">  2  5  1 -1</clus>
<clus scale="  137.109">  2  5  1 -1</clus>
</clustering>
</event>
<event>
 9    1  0.1272501E-005  0.9359429E+02  0.7546771E-02  0.1296541E+00
         -4   -1    0    0    0  501 -0.00000000000E+00  0.00000000000E+00  0.16202957374E+03  0.16202957374E+03  0.00000000000E+00 0.  1.
          4   -1    0    0  502    0  0.00000000000E+00 -0.00000000000E+00 -0.12233859458E+03  0.12233859458E+03  0.00000000000E+00 0. -1.
         23    2    1    2    0    0 -0.36710501146E+02  0.81070398650E+01  0.96664653558E+02  0.13634907229E+03  0.88507792190E+02 0.  0.
         23    2    1    2    0    0  0.89201371870E+01 -0.81543905137E+01 -0.70858618572E+02  0.11695306562E+03  0.92255150529E+02 0.  0.
        -13    1    4    4    0    0  0.46968716879E+02 -0.18666918963E+02 -0.24817163090E+02  0.56306356770E+02  0.00000000000E+00 0. -1.
         13    1    4    4    0    0 -0.38048579692E+02  0.10512528450E+02 -0.46041455482E+02  0.60646708846E+02  0.00000000000E+00 0.  1.
        -13    1    3    3    0    0  0.25031785819E+01 -0.29844811025E+02  0.68884330913E+02  0.75113445490E+02  0.00000000000E+00 0. -1.
         13    1    3    3    0    0 -0.39213679728E+02  0.37951850890E+02  0.27780322645E+02  0.61235626804E+02  0.00000000000E+00 0.  1.
         21    1    1    2  502  501  0.27790363959E+02  0.47350648629E-01  0.13884944172E+02  0.31066030415E+02  0.00000000000E+00 0. -1.
<scales pt_clust_5="13000.00000" pt_clust_6="13000.00000" pt_clust_7="13000.00000" pt_clust_8="13000.00000" pt_clust_9="27.79040"></scales>
<clustering>
<clus scale="   27.790">  1  9  2 -1</clus>
<clus scale="   88.508">  7  8 -1 -1</clus>
<clus scale="   89.903">  1  7  2 -1</clus>
<clus scale="   92.255">  5  6 -1 -1</clus>
<clus scale="   93.594">  2  5  1 -1</clus>
</clustering>
</event>
<event>
 9    1  0.1266593E-005  0.1100033E+03  0.7546771E-02  0.1267070E+00
         -1   -1    0    0    0  501 -0.00000000000E+00  0.00000000000E+00  0.10946064358E+03  0.10946064358E+03  0.00000000000E+00 0.  1.
          1   -1    0    0  502    0  0.00000000000E+00 -0.00000000000E+00 -0.23715321667E+03  0.23715321667E+03  0.00000000000E+00 0. -1.
         23    2    1    2    0    0  0.20142615716E+02 -0.43835428212E+02 -0.57011479254E+02  0.11594493077E+03  0.88688491195E+02 0.  0.
         23    2    1    2    0    0 -0.26032640623E+02  0.22331375199E+02 -0.12883130958E+03  0.16839080908E+03  0.10286675634E+03 0.  0.
        -11    1    3    3    0    0  0.81332660534E+01 -0.66178352924E+02 -0.60876029204E+02  0.90286296546E+02  0.00000000000E+00 0. -1.
         11    1    3    3    0    0  0.12009349662E+02  0.22342924712E+02  0.38645499494E+01  0.25658634225E+02  0.00000000000E+00 0.  1.
        -13    1    4    4    0    0 -0.52636815688E+02 -0.76308231179E+01 -0.11376319590E+03  0.12558235771E+03  0.00000000000E+00 0. -1.
         13    1    4    4    0    0  0.26604175065E+02  0.29962198317E+02 -0.15068113681E+02  0.42808451371E+02  0.00000000000E+00 0.  1.
         21    1    1    2  502  501  0.58900249072E+01  0.21504053013E+02  0.58150215740E+02  0.62278120395E+02  0.00000000000E+00 0.  1.
<scales pt_clust_5="13000.00000" pt_clust_6="13000.00000" pt_clust_7="13000.00000" pt_clust_8="13000.00000" pt_clust_9="22.29611"></scales>
<clustering>
<clus scale="   22.296">  1  9  2 -1</clus>
<clus scale="   88.688">  5  6 -1 -1</clus>
<clus scale="   96.875">  1  5  2 -1</clus>
<clus scale="  102.867">  7  8 -1 -1</clus>
<clus scale="  110.003">  2  5  1 -1</clus>
</clustering>
</event>
<event>
 9    1  0.1266593E-005  0.2810730E+03  0.7546771E-02  0.1095574E+00
         -1   -1    0    0    0  501 -0.00000000000E+00  0.00000000000E+00  0.48633588457E+03  0.48633588457E+03  0.00000000000E+00 0.  1.
          1   -1    0    0  502    0  0.00000000000E+00 -0.00000000000E+00 -0.32551505106E+03  0.32551505106E+03  0.00000000000E+00 0. -1.
         23    2    1    2    0    0 -0.95518536428E+02  0.19379440629E+03  0.32121377785E+03  0.40036952069E+03  0.10216359089E+03 0.  0.
         23    2    1    2    0    0  0.11098711208E+03 -0.24782610618E+03 -0.19376455707E+03  0.34611807688E+03  0.92288144492E+02 0.  0.
        -13    1    3    3    0    0 -0.11735977372E+03  0.17113663839E+03  0.27765631269E+03  0.34663250492E+03  0.00000000000E+00 0.  1.
         13    1    3    3    0    0  0.21841237296E+02  0.22657767898E+02  0.43557465164E+02  0.53737015773E+02  0.00000000000E+00 0. -1.
        -13    1    4    4    0    0  0.58403495348E+01 -0.85502400454E+02 -0.24575816063E+02  0.89155711546E+02  0.00000000000E+00 0.  1.
         13    1    4    4    0    0  0.10514676255E+03 -0.16232370573E+03 -0.16918874101E+03  0.25696236534E+03  0.00000000000E+00 0. -1.
         21    1    1    2  502  501 -0.15468575656E+02  0.54031699891E+02  0.33371612729E+02  0.65363338058E+02  0.00000000000E+00 0.  1.
<scales pt_clust_5="13000.00000" pt_clust_6="13000.00000" pt_clust_7="13000.00000" pt_clust_8="13000.00000" pt_clust_9="56.20233"></scales>
<clustering>
<clus scale="   56.202">  1  9  2 -1</clus>
<clus scale="   92.288">  7  8 -1 -1</clus>
<clus scale="  102.164">  5  6 -1 -1</clus>
<clus scale="  277.636">  2  7  1 -1</clus>
<clus scale="  277.636">  2  5  1 -1</clus>
</clustering>
</event>
<event>
 9    1  0.1266593E-005  0.9151016E+02  0.7546771E-02  0.1300154E+00
         -2   -1    0    0    0  501 -0.00000000000E+00  0.00000000000E+00  0.17490082220E+03  0.17490082220E+03  0.00000000000E+00 0.  1.
          2   -1    0    0  502    0  0.00000000000E+00 -0.00000000000E+00 -0.10629476155E+03  0.10629476155E+03  0.00000000000E+00 0. -1.
         23    2    1    2    0    0  0.18541956083E+02  0.53051461670E+01  0.83740162165E+01  0.91364600281E+02  0.88912413788E+02 0.  0.
         23    2    1    2    0    0  0.42203703963E+02 -0.54700814335E+01 -0.57509806721E+01  0.10014362638E+03  0.90468766472E+02 0.  0.
        -11    1    4    4    0    0 -0.21785270180E+02  0.33540427881E+01 -0.24428608447E+02  0.32902955954E+02  0.00000000000E+00 0.  1.
         11    1    4    4    0    0  0.63988974143E+02 -0.88241242216E+01  0.18677627774E+02  0.67240670427E+02  0.00000000000E+00 0. -1.
        -13    1    3    3    0    0 -0.68860253225E+01  0.36939295040E+02  0.27434293983E+02  0.46524932554E+02  0.00000000000E+00 0.  1.
         13    1    3    3    0    0  0.25427981406E+02 -0.31634148873E+02 -0.19060277767E+02  0.44839667727E+02  0.00000000000E+00 0. -1.
         21    1    1    2  502  501 -0.60745660046E+02  0.16493526651E+00  0.65983025113E+02  0.89687357086E+02  0.00000000000E+00 0.  1.
<scales pt_clust_5="13000.00000" pt_clust_6="13000.00000" pt_clust_7="13000.00000" pt_clust_8="13000.00000" pt_clust_9="60.74588"></scales>
<clustering>
<clus scale="   60.746">  1  9  2 -1</clus>
<clus scale="   88.912">  7  8 -1 -1</clus>
<clus scale="   89.972">  1  7  2 -1</clus>
<clus scale="   90.469">  5  6 -1 -1</clus>
<clus scale="   91.510">  2  5  1 -1</clus>
</clustering>
</event>
<event>
 9    1  0.1266593E-005  0.9764692E+02  0.7546771E-02  0.1287996E+00
          1   -1    0    0  502    0  0.00000000000E+00  0.00000000000E+00  0.78265257975E+02  0.78265257975E+02  0.00000000000E+00 0. -1.
         -1   -1    0    0    0  501 -0.00000000000E+00 -0.00000000000E+00 -0.18792895531E+03  0.18792895531E+03  0.00000000000E+00 0.  1.
         23    2    1    2    0    0  0.20079630685E+02 -0.79698533650E+01 -0.11205949695E+03  0.14843363251E+03  0.94913130133E+02 0.  0.
         23    2    1    2    0    0 -0.14798228855E+02  0.28450400089E+02  0.80790598696E+01  0.95859771512E+02  0.89974506075E+02 0.  0.
        -13    1    4    4    0    0 -0.47548420214E+02  0.13151629428E+02  0.25721961982E+02  0.55636651136E+02  0.00000000000E+00 0. -1.
         13    1    4    4    0    0  0.32750191359E+02  0.15298770662E+02 -0.17642902112E+02  0.40223120375E+02  0.00000000000E+00 0.  1.
        -13    1    3    3    0    0  0.50252633708E+02  0.19485381859E+02 -0.80403579999E+02  0.96797432700E+02  0.00000000000E+00 0.  1.
         13    1    3    3    0    0 -0.30173003023E+02 -0.27455235224E+02 -0.31655916955E+02  0.51636199810E+02  0.00000000000E+00 0. -1.
         21    1    1    2  502  501 -0.52814018295E+01 -0.20480546724E+02 -0.56832602538E+01  0.21900809267E+02  0.00000000000E+00 0.  1.
<scales pt_clust_5="13000.00000" pt_clust_6="13000.00000" pt_clust_7="13000.00000" pt_clust_8="13000.00000" pt_clust_9="21.15056"></scales>
<clustering>
<clus scale="   21.151">  1  9  2 -1</clus>
<clus scale="   89.975">  5  6 -1 -1</clus>
<clus scale="   92.854">  1  5  2 -1</clus>
<clus scale="   94.913">  7  8 -1 -1</clus>
<clus scale="   21.151">  1  5  2 -1</clus>
</clustering>
</event>
<event>
 9    1  0.1266593E-005  0.1123992E+03  0.7546771E-02  0.1256197E+00
         -2   -1    0    0    0  501 -0.00000000000E+00  0.00000000000E+00  0.21177083874E+03  0.21177083874E+03  0.00000000000E+00 0.  1.
          2   -1    0    0  502    0  0.00000000000E+00 -0.00000000000E+00 -0.14615140123E+03  0.14615140123E+03  0.00000000000E+00 0. -1.
         23    2    1    2    0    0  0.21538510087E+02 -0.76786066633E+02  0.77259370877E+02  0.14431074504E+03  0.92176858817E+02 0.  0.
         23    2    1    2    0    0  0.90200177682E+01  0.61020478568E+02 -0.80219409606E+02  0.13689433940E+03  0.92195699232E+02 0.  0.
        -11    1    3    3    0    0 -0.27801324628E+02  0.15525601804E+01  0.89201531809E+01  0.29238557197E+02  0.00000000000E+00 0. -1.
         11    1    3    3    0    0  0.49339834715E+02 -0.78338626813E+02  0.68339217696E+02  0.11507218785E+03  0.00000000000E+00 0.  1.
        -11    1    4    4    0    0  0.27533442239E+02  0.77179638004E+02 -0.76383030640E+02  0.11202300805E+03  0.00000000000E+00 0. -1.
         11    1    4    4    0    0 -0.18513424470E+02 -0.16159159436E+02 -0.38363789658E+01  0.24871331345E+02  0.00000000000E+00 0.  1.
         21    1    1    2  502  501 -0.30558527855E+02  0.15765588065E+02  0.68579476234E+02  0.76717155527E+02  0.00000000000E+00 0.  1.
<scales pt_clust_5="13000.00000" pt_clust_6="13000.00000" pt_clust_7="13000.00000" pt_clust_8="13000.00000" pt_clust_9="34.38571"></scales>
<clustering>
<clus scale="   34.386">  1  9  2 -1</clus>
<clus scale="   92.177">  5  6 -1 -1</clus>
<clus scale="   92.196">  7  8 -1 -1</clus>
<clus scale="  112.384">  1  5  2 -1</clus>
<clus scale="  112.399">  2  5  1 -1</clus>
</clustering>
</event>
<event>
 9    1  0.1266593E-005  0.1175755E+03  0.7546771E-02  0.1247335E+00
         -1   -1    0    0    0  501 -0.00000000000E+00  0.00000000000E+00  0.12280922750E+03  0.12280922750E+03  0.00000000000E+00 0.  1.
          1   -1    0    0  502    0  0.00000000000E+00 -0.00000000000E+00 -0.19600926938E+03  0.19600926938E+03  0.00000000000E+00 0. -1.
         23    2    1    2    0    0  0.79245689648E+02 -0.35489571660E+02 -0.65172945304E+02  0.14241009181E+03  0.92161447603E+02 0.  0.
         23    2    1    2    0    0 -0.46881133456E+02  0.40360535978E+02 -0.51536426086E+02  0.12196345539E+03  0.91609321021E+02 0.  0.
        -13    1    3    3    0    0  0.63479536150E+02  0.12550147555E+02 -0.66163589351E+01  0.65045629515E+02  0.00000000000E+00 0.  1.
         13    1    3    3    0    0  0.15766153498E+02 -0.48039719216E+02 -0.58556586369E+02  0.77364462292E+02  0.00000000000E+00 0. -1.
        -13    1    4    4    0    0 -0.74745069630E+02  0.30732281918E+02 -0.34130163075E+02  0.87727798430E+02  0.00000000000E+00 0.  1.
         13    1    4    4    0    0  0.27863936174E+02  0.96282540606E+01 -0.17406263010E+02  0.34235656958E+02  0.00000000000E+00 0. -1.
         21    1    1    2  502  501 -0.32364556192E+02 -0.48709643179E+01  0.43509329510E+02  0.54444949677E+02  0.00000000000E+00 0.  1.
<scales pt_clust_5="13000.00000" pt_clust_6="13000.00000" pt_clust_7="13000.00000" pt_clust_8="13000.00000" pt_clust_9="32.72905"></scales>
<clustering>
<clus scale="   32.729">  1  9  2 -1</clus>
<clus scale="   91.609">  7  8 -1 -1</clus>
<clus scale="   92.161">  5  6 -1 -1</clus>
<clus scale="  117.143">  2  7  1 -1</clus>
<clus scale="  117.143">  2  5  1 -1</clus>
</clustering>
</event>
<event>
 9    1  0.1266593E-005  0.1052584E+03  0.7546771E-02  0.1269757E+00
         -2   -1    0    0    0  501 -0.00000000000E+00  0.00000000000E+00  0.60438069257E+02  0.60438069257E+02  0.00000000000E+00 0.  1.
          2   -1    0    0  502    0  0.00000000000E+00 -0.00000000000E+00 -0.28775389944E+03  0.28775389944E+03  0.00000000000E+00 0. -1.
         23    2    1    2    0    0 -0.81328520482E+01 -0.42344545665E+02 -0.93478151851E+02  0.13717016458E+03  0.90654759101E+02 0.  0.
         23    2    1    2    0    0  0.12857186718E+00  0.62472501343E+02 -0.14862683208E+03  0.18479353369E+03  0.90309938127E+02 0.  0.
        -11    1    3    3    0    0 -0.36080518662E+02 -0.24358086303E+02 -0.94365642558E+02  0.10392302291E+03  0.00000000000E+00 0. -1.
         11    1    3    3    0    0  0.27947666614E+02 -0.17986459362E+02  0.88749070713E+00  0.33247141671E+02  0.00000000000E+00 0.  1.
        -13    1    4    4    0    0  0.27724558368E+02  0.42139446049E+02 -0.14089814618E+03  0.14965517582E+03  0.00000000000E+00 0.  1.
         13    1    4    4    0    0 -0.27595986501E+02  0.20333055294E+02 -0.77286858982E+01  0.35138357876E+02  0.00000000000E+00 0. -1.
         21    1    1    2  502  501  0.80042801810E+01 -0.20127955677E+02  0.14789153749E+02  0.26228270427E+02  0.00000000000E+00 0.  1.
<scales pt_clust_5="13000.00000" pt_clust_6="13000.00000" pt_clust_7="13000.00000" pt_clust_8="13000.00000" pt_clust_9="21.66110"></scales>
<clustering>
<clus scale="   21.661">  1  9  2 -1</clus>
<clus scale="   90.310">  7  8 -1 -1</clus>
<clus scale="   90.655">  5  6 -1 -1</clus>
<clus scale="  104.962">  2  7  1 -1</clus>
<clus scale="  104.962">  2  5  1 -1</clus>
</clustering>
</event>
<event>
 9    1  0.1266593E-005  0.1053650E+03  0.7546771E-02  0.1276229E+00
          1   -1    0    0  502    0  0.00000000000E+00  0.00000000000E+00  0.14356326013E+03  0.14356326013E+03  0.00000000000E+00 0. -1.
         -1   -1    0    0    0  501 -0.00000000000E+00 -0.00000000000E+00 -0.31885566643E+03  0.31885566643E+03  0.00000000000E+00 0.  1.
         23    2    1    2    0    0  0.40783889785E+02 -0.81586916979E+01 -0.99532920393E+02  0.14096033478E+03  0.90736562775E+02 0.  0.
         23    2    1    2    0    0 -0.12995047815E+02 -0.76781535987E+00  0.99096577164E+02  0.14418325491E+03  0.10391928879E+03 0.  0.
        -11    1    4    4    0    0 -0.40091166476E+02  0.37147608284E+02  0.34874179529E+02  0.64834056085E+02  0.00000000000E+00 0.  1.
         11    1    4    4    0    0  0.27096118662E+02 -0.37915423644E+02  0.64222397635E+02  0.79349198827E+02  0.00000000000E+00 0. -1.
        -13    1    3    3    0    0 -0.27010750704E+02  0.88982282547E+01 -0.40352408962E+02  0.49366750235E+02  0.00000000000E+00 0.  1.
         13    1    3    3    0    0  0.67794640489E+02 -0.17056919953E+02 -0.59180511431E+02  0.91593584549E+02  0.00000000000E+00 0. -1.
         21    1    1    2  502  501 -0.27788841970E+02  0.89265070578E+01 -0.17485606307E+03  0.17727533686E+03  0.00000000000E+00 0.  1.
<scales pt_clust_5="13000.00000" pt_clust_6="13000.00000" pt_clust_7="13000.00000" pt_clust_8="13000.00000" pt_clust_9="29.18736"></scales>
<clustering>
<clus scale="   29.187">  2  9  1 -1</clus>
<clus scale="   90.737">  7  8 -1 -1</clus>
<clus scale="   92.389">  2  7  1 -1</clus>
<clus scale="  103.919">  5  6 -1 -1</clus>
<clus scale="  105.365">  1  5  2 -1</clus>
</clustering>
</event>
<event>
 9    1  0.1266593E-005  0.1005089E+03  0.7546771E-02  0.1279651E+00
          2   -1    0    0  502    0  0.00000000000E+00  0.00000000000E+00  0.65567456691E+03  0.65567456691E+03  0.00000000000E+00 0. -1.
         -2   -1    0    0    0  501 -0.00000000000E+00 -0.00000000000E+00 -0.38703700214E+02  0.38703700214E+02  0.00000000000E+00 0.  1.
         23    2    1    2    0    0  0.28641805494E+02  0.12942370108E+02  0.13026730853E+03  0.16058743838E+03  0.88492348409E+02 0.  0.
         23    2    1    2    0    0 -0.50489350562E+02  0.19830698195E+02  0.48304504392E+03  0.49423360491E+03  0.89397486826E+02 0.  0.
        -11    1    3    3    0    0  0.35634816978E+02  0.44678030550E+02  0.10453334449E+03  0.11913516149E+03  0.00000000000E+00 0.  1.
         11    1    3    3    0    0 -0.69930114840E+01 -0.31735660442E+02  0.25733964041E+02  0.41452276880E+02  0.00000000000E+00 0. -1.
        -11    1    4    4    0    0 -0.73432413482E+02  0.47828941972E+01  0.40173115117E+03  0.40841536853E+03  0.00000000000E+00 0. -1.
         11    1    4    4    0    0  0.22943062920E+02  0.15047803998E+02  0.81313892751E+02  0.85818236381E+02  0.00000000000E+00 0.  1.
         21    1    1    2  502  501  0.21847545068E+02 -0.32773068303E+02  0.36585142454E+01  0.39557223841E+02  0.00000000000E+00 0.  1.
<scales pt_clust_5="13000.00000" pt_clust_6="13000.00000" pt_clust_7="13000.00000" pt_clust_8="13000.00000" pt_clust_9="39.38768"></scales>
<clustering>
<clus scale="   39.388">  2  9  1 -1</clus>
<clus scale="   88.492">  5  6 -1 -1</clus>
<clus scale="   89.397">  7  8 -1 -1</clus>
<clus scale="   99.705">  2  5  1 -1</clus>
<clus scale="  100.509">  1  5  2 -1</clus>
</clustering>
</event>
<event>
 9    1  0.1266593E-005  0.3872965E+03  0.7546771E-02  0.1048276E+00
          1   -1    0    0  502    0  0.00000000000E+00  0.00000000000E+00  0.12040403853E+04  0.12040403853E+04  0.00000000000E+00 0. -1.
         -1   -1    0    0    0  501 -0.00000000000E+00 -0.00000000000E+00 -0.28806263349E+03  0.28806263349E+03  0.00000000000E+00 0.  1.
         23    2    1    2    0    0 -0.24926561416E+02  0.34140136684E+03 -0.31428072629E+02  0.35562856929E+03  0.91146743253E+02 0.  0.
         23    2    1    2    0    0  0.21837736766E+02 -0.38240239306E+03  0.99708931791E+03  0.10719835624E+04  0.90846976662E+02 0.  0.
        -13    1    3    3    0    0 -0.13677895839E+02  0.52173047624E+02 -0.38214757891E+02  0.66102038195E+02  0.00000000000E+00 0. -1.
         13    1    3    3    0    0 -0.11248665576E+02  0.28922831921E+03  0.67866852620E+01  0.28952653110E+03  0.00000000000E+00 0.  1.
        -13    1    4    4    0    0  0.62278354774E+01 -0.13060611676E+03  0.23118240598E+03  0.26559753106E+03  0.00000000000E+00 0.  1.
         13    1    4    4    0    0  0.15609901288E+02 -0.25179627630E+03  0.76590691192E+03  0.80638603132E+03  0.00000000000E+00 0. -1.
         21    1    1    2  502  501  0.30888246500E+01  0.41001026226E+02 -0.49683493502E+02  0.64490887076E+02  0.00000000000E+00 0. -1.
<scales pt_clust_5="13000.00000" pt_clust_6="13000.00000" pt_clust_7="13000.00000" pt_clust_8="13000.00000" pt_clust_9="41.11721"></scales>
<clustering>
<clus scale="   41.117">  2  9  1 -1</clus>
<clus scale="   90.847">  7  8 -1 -1</clus>
<clus scale="   91.147">  5  6 -1 -1</clus>
<clus scale="  387.226">  1  7  2 -1</clus>
<clus scale="  387.226">  1  5  2 -1</clus>
</clustering>
</event>
<event>
 9    1  0.1266593E-005  0.9977555E+02  0.7546771E-02  0.1280863E+00
         -2   -1    0    0    0  501 -0.00000000000E+00  0.00000000000E+00  0.51007415449E+02  0.51007415449E+02  0.00000000000E+00 0.  1.
          2   -1    0    0  502    0  0.00000000000E+00 -0.00000000000E+00 -0.46486770172E+03  0.46486770172E+03  0.00000000000E+00 0. -1.
         23    2    1    2    0    0  0.43569536024E+01  0.56646837755E+02 -0.13103932094E+03  0.16968633171E+03  0.91620414031E+02 0.  0.
         23    2    1    2    0    0 -0.82870654179E+01 -0.31794527889E+02 -0.30025309458E+03  0.31557894693E+03  0.91425289095E+02 0.  0.
        -13    1    4    4    0    0 -0.48368090952E+02 -0.29813601398E+02 -0.16584610631E+03  0.17530902438E+03  0.00000000000E+00 0.  1.
         13    1    4    4    0    0  0.40081025534E+02 -0.19809264916E+01 -0.13440698827E+03  0.14026992256E+03  0.00000000000E+00 0. -1.
        -13    1    3    3    0    0  0.32559054489E+02  0.41419114057E+02 -0.12685943766E+03  0.13736430381E+03  0.00000000000E+00 0. -1.
         13    1    3    3    0    0 -0.28202100887E+02  0.15227723698E+02 -0.41798832741E+01  0.32322027901E+02  0.00000000000E+00 0.  1.
         21    1    1    2  502  501  0.39301118155E+01 -0.24852309865E+02  0.17432129243E+02  0.30609838524E+02  0.00000000000E+00 0. -1.
<scales pt_clust_5="13000.00000" pt_clust_6="13000.00000" pt_clust_7="13000.00000" pt_clust_8="13000.00000" pt_clust_9="25.16114"></scales>
<clustering>
<clus scale="   25.161">  1  9  2 -1</clus>
<clus scale="   91.425">  5  6 -1 -1</clus>
<clus scale="   91.620">  7  8 -1 -1</clus>
<clus scale="   99.596">  2  5  1 -1</clus>
<clus scale="   99.596">  2  5  1 -1</clus>
</clustering>
</event>
<event>
 9    1  0.1266593E-005  0.1345998E+03  0.7546771E-02  0.1221739E+00
         -3   -1    0    0    0  501 -0.00000000000E+00  0.00000000000E+00  0.10285154314E+03  0.10285154314E+03  0.00000000000E+00 0.  1.
          3   -1    0    0  502    0  0.00000000000E+00 -0.00000000000E+00 -0.23252128831E+03  0.23252128831E+03  0.00000000000E+00 0. -1.
         23    2    1    2    0    0  0.53039672077E+02 -0.69781403601E+02 -0.17313082196E+02  0.12724485842E+03  0.90602759764E+02 0.  0.
         23    2    1    2    0    0 -0.36694113154E+02  0.95592579614E+02 -0.10999107406E+03  0.17748502744E+03  0.94437806903E+02 0.  0.
        -13    1    4    4    0    0 -0.30611129952E+02 -0.84041062131E+01 -0.10504308960E+02  0.33436668269E+02  0.00000000000E+00 0.  1.
         13    1    4    4    0    0 -0.60829832019E+01  0.10399668583E+03 -0.99486765105E+02  0.14404835917E+03  0.00000000000E+00 0. -1.
        -13    1    3    3    0    0  0.24811347424E+02 -0.66892247702E+02  0.25599386648E+02  0.75799105274E+02  0.00000000000E+00 0.  1.
         13    1    3    3    0    0  0.28228324653E+02 -0.28891558986E+01 -0.42912468844E+02  0.51445753147E+02  0.00000000000E+00 0. -1.
         21    1    1    2  502  501 -0.16345558923E+02 -0.25811176014E+02 -0.23655889100E+01  0.30642945593E+02  0.00000000000E+00 0. -1.
<scales pt_clust_5="13000.00000" pt_clust_6="13000.00000" pt_clust_7="13000.00000" pt_clust_8="13000.00000" pt_clust_9="30.55150"></scales>
<clustering>
<clus scale="   30.551">  1  9  2 -1</clus>
<clus scale="   90.603">  7  8 -1 -1</clus>
<clus scale="   94.438">  5  6 -1 -1</clus>
<clus scale="  131.937">  1  7  2 -1</clus>
<clus scale="  134.600">  2  5  1 -1</clus>
</clustering>
</event>
<event>
 9    1  0.1266593E-005  0.1192422E+03  0.7546771E-02  0.1244601E+00
         -2   -1    0    0    0  501 -0.00000000000E+00  0.00000000000E+00  0.40061305218E+03  0.40061305218E+03  0.00000000000E+00 0.  1.
          2   -1    0    0  502    0  0.00000000000E+00 -0.00000000000E+00 -0.25435203354E+03  0.25435203354E+03  0.00000000000E+00 0. -1.
         23    2    1    2    0    0 -0.57247630174E+00  0.15233059394E+03  0.10089867066E+03  0.20550595126E+03  0.94059644277E+02 0.  0.
         23    2    1    2    0    0  0.12725792038E+02 -0.63660096157E+02 -0.17666431141E+03  0.21007242276E+03  0.93303752637E+02 0.  0.
        -13    1    3    3    0    0 -0.23773642222E+02  0.12796417649E+03  0.11026348852E+03  0.17058151550E+03  0.00000000000E+00 0.  1.
         13    1    3    3    0    0  0.23201165921E+02  0.24366417445E+02 -0.93648178593E+01  0.34924435754E+02  0.00000000000E+00 0. -1.
        -13    1    4    4    0    0  0.50540651480E+02 -0.46605550300E+02 -0.13375929436E+03  0.15039276445E+03  0.00000000000E+00 0. -1.
         13    1    4    4    0    0 -0.37814859442E+02 -0.17054545857E+02 -0.42905017043E+02  0.59679658313E+02  0.00000000000E+00 0.  1.
         21    1    1    2  502  501 -0.12153315737E+02 -0.88670497782E+02  0.22202665938E+03  0.23938671170E+03  0.00000000000E+00 0. -1.
<scales pt_clust_5="13000.00000" pt_clust_6="13000.00000" pt_clust_7="13000.00000" pt_clust_8="13000.00000" pt_clust_9="89.49950"></scales>
<clustering>
<clus scale="   89.499">  1  9  2 -1</clus>
<clus scale="   93.304">  7  8 -1 -1</clus>
<clus scale="   94.060">  5  6 -1 -1</clus>
<clus scale="  118.647">  2  7  1 -1</clus>
<clus scale="  118.647">  2  5  1 -1</clus>
</clustering>
</event>
<event>
 9    1  0.1266593E-005  0.1171492E+03  0.7546771E-02  0.1248410E+00
          2   -1    0    0  502    0  0.00000000000E+00  0.00000000000E+00  0.64471334779E+02  0.64471334779E+02  0.00000000000E+00 0. -1.
         -2   -1    0    0    0  501 -0.00000000000E+00 -0.00000000000E+00 -0.28029797764E+03  0.28029797764E+03  0.00000000000E+00 0.  1.
         23    2    1    2    0    0  0.29893438637E+02  0.52616534851E+02 -0.14174079729E+03  0.18194219921E+03  0.96697429243E+02 0.  0.
         23    2    1    2    0    0 -0.52593531689E+02 -0.49577172097E+02 -0.59417621643E+02  0.13562989380E+03  0.98188791430E+02 0.  0.
        -11    1    3    3    0    0  0.42950946526E+02  0.74093570668E+02 -0.12577798340E+03  0.15216682336E+03  0.00000000000E+00 0. -1.
         11    1    3    3    0    0 -0.13057507889E+02 -0.21477035817E+02 -0.15962813890E+02  0.29775375851E+02  0.00000000000E+00 0.  1.
        -13    1    4    4    0    0 -0.23112654890E+02 -0.38077473270E+02 -0.84319939700E+02  0.95362157157E+02  0.00000000000E+00 0.  1.
         13    1    4    4    0    0 -0.29480876800E+02 -0.11499698827E+02  0.24902318056E+02  0.40267736646E+02  0.00000000000E+00 0. -1.
         21    1    1    2  502  501  0.22700093052E+02 -0.30393627538E+01 -0.14668223928E+02  0.27197219412E+02  0.00000000000E+00 0. -1.
<scales pt_clust_5="13000.00000" pt_clust_6="13000.00000" pt_clust_7="13000.00000" pt_clust_8="13000.00000" pt_clust_9="22.90266"></scales>
<clustering>
<clus scale="   22.903">  1  9  2 -1</clus>
<clus scale="   96.697">  5  6 -1 -1</clus>
<clus scale="   98.189">  7  8 -1 -1</clus>
<clus scale="  115.902">  2  5  1 -1</clus>
<clus scale="   22.903">  1  5  2 -1</clus>
</clustering>
</event>
<event>
 9    1  0.1266593E-005  0.1794462E+03  0.7546771E-02  0.1169529E+00
         -1   -1    0    0    0  501 -0.00000000000E+00  0.00000000000E+00  0.46001215803E+03  0.46001215803E+03  0.00000000000E+00 0.  1.
          1   -1    0    0  502    0  0.00000000000E+00 -0.00000000000E+00 -0.93909264808E+02  0.93909264808E+02  0.00000000000E+00 0. -1.
         23    2    1    2    0    0 -0.62666134212E+02  0.14160082368E+03  0.25751519900E+03  0.31173394172E+03  0.82982739549E+02 0.  0.
         23    2    1    2    0    0  0.28774507394E+02 -0.15126035697E+03  0.10091914871E+03  0.20612149240E+03  0.92702358044E+02 0.  0.
        -11    1    3    3    0    0 -0.14881039767E+02  0.38031559330E+02  0.14828488594E+03  0.15380589146E+03  0.00000000000E+00 0.  1.
         11    1    3    3    0    0 -0.47785094446E+02  0.10356926435E+03  0.10923031306E+03  0.15792805026E+03  0.00000000000E+00 0. -1.
        -13    1    4    4    0    0  0.48368818356E+02 -0.14628370242E+03  0.10369145107E+03  0.18571586149E+03  0.00000000000E+00 0.  1.
         13    1    4    4    0    0 -0.19594310962E+02 -0.49766545522E+01 -0.27723023634E+01  0.20405630914E+02  0.00000000000E+00 0. -1.
         21    1    1    2  502  501  0.33891626818E+02  0.96595332921E+01  0.76685455203E+01  0.36065988717E+02  0.00000000000E+00 0. -1.
<scales pt_clust_5="13000.00000" pt_clust_6="13000.00000" pt_clust_7="13000.00000" pt_clust_8="13000.00000" pt_clust_9="35.24130"></scales>
<clustering>
<clus scale="   35.241">  2  9  1 -1</clus>
<clus scale="   82.983">  5  6 -1 -1</clus>
<clus scale="   92.702">  7  8 -1 -1</clus>
<clus scale="  174.623">  1  5  2 -1</clus>
<clus scale="   35.241">  2  5  1 -1</clus>
</clustering>
</event>
<event>
 9    1  0.1266593E-005  0.2054669E+03  0.7546771E-02  0.1145383E+00
         -1   -1    0    0    0  501 -0.00000000000E+00  0.00000000000E+00  0.18416884853E+03  0.18416884853E+03  0.00000000000E+00 0.  1.
          1   -1    0    0  502    0  0.00000000000E+00 -0.00000000000E+00 -0.39074387911E+03  0.39074387911E+03  0.00000000000E+00 0. -1.
         23    2    1    2    0    0 -0.18050891411E+03  0.87143986604E+02  0.84456503736E+01  0.22188754281E+03  0.94790348487E+02 0.  0.
         23    2    1    2    0    0  0.15402903601E+03 -0.86694231661E+02 -0.24298850255E+03  0.31450784758E+03  0.92902852942E+02 0.  0.
        -11    1    4    4    0    0  0.15656685611E+01 -0.34437115825E+02 -0.21649390054E+02  0.40707030770E+02  0.00000000000E+00 0.  1.
         11    1    4    4    0    0  0.15246336745E+03 -0.52257115836E+02 -0.22133911249E+03  0.27380081681E+03  0.00000000000E+00 0. -1.
        -13    1    3    3    0    0 -0.13558551621E+03  0.15139718812E+02 -0.15116711256E+01  0.13643653631E+03  0.00000000000E+00 0.  1.
         13    1    3    3    0    0 -0.44923397907E+02  0.72004267791E+02  0.99573214992E+01  0.85451006496E+02  0.00000000000E+00 0. -1.
         21    1    1    2  502  501  0.26479878107E+02 -0.44975494217E+00  0.27967821596E+02  0.38517337251E+02  0.00000000000E+00 0. -1.
<scales pt_clust_5="13000.00000" pt_clust_6="13000.00000" pt_clust_7="13000.00000" pt_clust_8="13000.00000" pt_clust_9="26.48370"></scales>
<clustering>
<clus scale="   26.484">  1  9  2 -1</clus>
<clus scale="   92.903">  5  6 -1 -1</clus>
<clus scale="   94.790">  7  8 -1 -1</clus>
<clus scale="  204.603">  2  5  1 -1</clus>
<clus scale="  204.603">  2  5  1 -1</clus>
</clustering>
</event>
<event>
 9    1  0.1266593E-005  0.1153370E+03  0.7546771E-02  0.1251335E+00
         -2   -1    0    0    0  501 -0.00000000000E+00  0.00000000000E+00  0.78625797653E+02  0.78625797653E+02  0.00000000000E+00 0.  1.
          2   -1    0    0  502    0  0.00000000000E+00 -0.00000000000E+00 -0.56942497093E+03  0.56942497093E+03  0.00000000000E+00 0. -1.
         23    2    1    2    0    0 -0.52717003638E+02  0.12100485353E+02 -0.21023428653E+03  0.23627664620E+03  0.93288231225E+02 0.  0.
         23    2    1    2    0    0  0.72275803180E+02 -0.34317328229E+02 -0.33126087960E+03  0.35306962137E+03  0.92319642740E+02 0.  0.
        -11    1    4    4    0    0  0.71363957868E+02 -0.89453231371E+01 -0.31456719846E+03  0.32268460706E+03  0.00000000000E+00 0. -1.
         11    1    4    4    0    0  0.91184531216E+00 -0.25372005092E+02 -0.16693681145E+02  0.30385014307E+02  0.00000000000E+00 0.  1.
        -11    1    3    3    0    0 -0.76106990229E+02 -0.83220495185E+01 -0.15626331934E+03  0.17401079116E+03  0.00000000000E+00 0. -1.
         11    1    3    3    0    0  0.23389986590E+02  0.20422534871E+02 -0.53970967193E+02  0.62265855033E+02  0.00000000000E+00 0.  1.
         21    1    1    2  502  501 -0.19558799542E+02  0.22216842876E+02  0.50695992863E+02  0.58704501014E+02  0.00000000000E+00 0.  1.
<scales pt_clust_5="13000.00000" pt_clust_6="13000.00000" pt_clust_7="13000.00000" pt_clust_8="13000.00000" pt_clust_9="29.59957"></scales>
<clustering>
<clus scale="   29.600">  1  9  2 -1</clus>
<clus scale="   92.320">  5  6 -1 -1</clus>
<clus scale="   93.288">  7  8 -1 -1</clus>
<clus scale="  114.555">  2  5  1 -1</clus>
<clus scale="  114.555">  2  5  1 -1</clus>
</clustering>
</event>
<event>
 9    1  0.1266593E-005  0.1058412E+03  0.7546771E-02  0.1269524E+00
         -1   -1    0    0    0  501 -0.00000000000E+00  0.00000000000E+00  0.20574719396E+03  0.20574719396E+03  0.00000000000E+00 0.  1.
          1   -1    0    0  502    0  0.00000000000E+00 -0.00000000000E+00 -0.83770798010E+02  0.83770798010E+02  0.00000000000E+00 0. -1.
         23    2    1    2    0    0 -0.36696023863E+02 -0.14031754788E+02  0.66076762115E+02  0.11706645496E+03  0.88288889877E+02 0.  0.
         23    2    1    2    0    0  0.61712592136E+02  0.15570724714E+02 -0.34314976591E+00  0.11087680336E+03  0.90789075751E+02 0.  0.
        -11    1    4    4    0    0 -0.12948764004E+02  0.21064975491E+02 -0.21837389398E+02  0.32989017223E+02  0.00000000000E+00 0.  1.
         11    1    4    4    0    0  0.74661356140E+02 -0.54942507772E+01  0.21494239632E+02  0.77887786139E+02  0.00000000000E+00 0. -1.
        -13    1    3    3    0    0 -0.31125350037E+02  0.27969098345E+02  0.61590339733E+02  0.74460914751E+02  0.00000000000E+00 0.  1.
         13    1    3    3    0    0 -0.55706738269E+01 -0.42000853133E+02  0.44864223824E+01  0.42605540210E+02  0.00000000000E+00 0. -1.
         21    1    1    2  502  501 -0.25016568273E+02 -0.15389699258E+01  0.56242783601E+02  0.61574733648E+02  0.00000000000E+00 0.  1.
<scales pt_clust_5="13000.00000" pt_clust_6="13000.00000" pt_clust_7="13000.00000" pt_clust_8="13000.00000" pt_clust_9="25.06386"></scales>
<clustering>
<clus scale="   25.064">  1  9  2 -1</clus>
<clus scale="   88.289">  7  8 -1 -1</clus>
<clus scale="   90.789">  5  6 -1 -1</clus>
<clus scale="  103.705">  1  7  2 -1</clus>
<clus scale="  105.841">  2  5  1 -1</clus>
</clustering>
</event>
<event>
 9    1  0.1266593E-005  0.3227680E+03  0.7546771E-02  0.1074519E+00
         -2   -1    0    0    0  501 -0.00000000000E+00  0.00000000000E+00  0.40421647403E+03  0.40421647403E+03  0.00000000000E+00 0.  1.
          2   -1    0    0  502    0  0.00000000000E+00 -0.00000000000E+00 -0.36273784191E+03  0.36273784191E+03  0.00000000000E+00 0. -1.
         23    2    1    2    0    0 -0.87616229984E+02 -0.27032671495E+03  0.19561864360E+03  0.35602079628E+03  0.87926202522E+02 0.  0.
         23    2    1    2    0    0  0.99096859724E+02  0.30273052453E+03 -0.17047688548E+03  0.37287165967E+03  0.92222275046E+02 0.  0.
        -11    1    4    4    0    0  0.21193361802E+02  0.24703973919E+02  0.78827646836E+01  0.33490041668E+02  0.00000000000E+00 0.  1.
         11    1    4    4    0    0  0.77903497922E+02  0.27802655061E+03 -0.17835965016E+03  0.33938161800E+03  0.00000000000E+00 0. -1.
        -11    1    3    3    0    0 -0.70349124559E+02 -0.80991770434E+02  0.74114387510E+02  0.13039021681E+03  0.00000000000E+00 0.  1.
         11    1    3    3    0    0 -0.17267105425E+02 -0.18933494452E+03  0.12150425609E+03  0.22563057947E+03  0.00000000000E+00 0. -1.
         21    1    1    2  502  501 -0.11480629741E+02 -0.32403809576E+02  0.16336873997E+02  0.38061859995E+02  0.00000000000E+00 0. -1.
<scales pt_clust_5="13000.00000" pt_clust_6="13000.00000" pt_clust_7="13000.00000" pt_clust_8="13000.00000" pt_clust_9="34.37749"></scales>
<clustering>
<clus scale="   34.377">  1  9  2 -1</clus>
<clus scale="   87.926">  7  8 -1 -1</clus>
<clus scale="   92.222">  5  6 -1 -1</clus>
<clus scale="  321.567">  1  7  2 -1</clus>
<clus scale="  322.768">  2  5  1 -1</clus>
</clustering>
</event>
<event>
 9    1  0.1266593E-005  0.1178188E+03  0.7546771E-02  0.1247683E+00
         -1   -1    0    0    0  501 -0.00000000000E+00  0.00000000000E+00  0.31356602051E+02  0.31356602051E+02  0.00000000000E+00 0.  1.
          1   -1    0    0  502    0  0.00000000000E+00 -0.00000000000E+00 -0.60512418832E+03  0.60512418832E+03  0.00000000000E+00 0. -1.
         23    2    1    2    0    0 -0.19613483521E+01  0.52803344263E+02 -0.16083409005E+03  0.19305675628E+03  0.92796910364E+02 0.  0.
         23    2    1    2    0    0  0.22993789028E+02 -0.76631009409E+02 -0.36690547302E+03  0.38748924967E+03  0.95536728784E+02 0.  0.
        -11    1    4    4    0    0  0.13105276850E+01 -0.85111727167E+02 -0.34560388363E+03  0.35593225193E+03  0.00000000000E+00 0. -1.
         11    1    4    4    0    0  0.21683261343E+02  0.84807177580E+01 -0.21301589382E+02  0.31556997740E+02  0.00000000000E+00 0.  1.
        -11    1    3    3    0    0 -0.16832514766E+02  0.27267290209E+02 -0.26695292383E+01  0.32155327009E+02  0.00000000000E+00 0.  1.
         11    1    3    3    0    0  0.14871166414E+02  0.25536054053E+02 -0.15816456081E+03  0.16090142927E+03  0.00000000000E+00 0. -1.
         21    1    1    2  502  501 -0.21032440675E+02  0.23827665146E+02 -0.46028023207E+02  0.55934784414E+02  0.00000000000E+00 0.  1.
<scales pt_clust_5="13000.00000" pt_clust_6="13000.00000" pt_clust_7="13000.00000" pt_clust_8="13000.00000" pt_clust_9="31.78240"></scales>
<clustering>
<clus scale="   31.782">  1  9  2 -1</clus>
<clus scale="   92.797">  7  8 -1 -1</clus>
<clus scale="   95.537">  5  6 -1 -1</clus>
<clus scale="  115.608">  1  7  2 -1</clus>
<clus scale="  117.819">  2  5  1 -1</clus>
</clustering>
</event>
<event>
 9    1  0.1266593E-005  0.1197003E+03  0.7546771E-02  0.1246636E+00
          1   -1    0    0  502    0  0.00000000000E+00  0.00000000000E+00  0.12659412883E+03  0.12659412883E+03  0.00000000000E+00 0. -1.
         -1   -1    0    0    0  501 -0.00000000000E+00 -0.00000000000E+00 -0.29200944582E+03  0.29200944582E+03  0.00000000000E+00 0.  1.
         23    2    1    2    0    0  0.45018095982E+02  0.22964709940E+02 -0.10864485680E+03  0.15057255932E+03  0.91183243209E+02 0.  0.
         23    2    1    2    0    0 -0.69180044935E+02 -0.14690252337E+02  0.68475134498E+02  0.14020799153E+03  0.99838643385E+02 0.  0.
        -11    1    4    4    0    0  0.11234249698E+02 -0.37165495598E+02  0.23117841135E+02  0.45187575816E+02  0.00000000000E+00 0.  1.
         11    1    4    4    0    0 -0.80414294633E+02  0.22475243261E+02  0.45357293363E+02  0.95020415713E+02  0.00000000000E+00 0. -1.
        -13    1    3    3    0    0 -0.18242891289E+02  0.25884774194E+02 -0.97418106789E+01  0.33131970858E+02  0.00000000000E+00 0. -1.
         13    1    3    3    0    0  0.63260987271E+02 -0.29200642540E+01 -0.98903046122E+02  0.11744058846E+03  0.00000000000E+00 0.  1.
         21    1    1    2  502  501  0.24161948953E+02 -0.82744576029E+01 -0.12524559468E+03  0.12782302380E+03  0.00000000000E+00 0.  1.
<scales pt_clust_5="13000.00000" pt_clust_6="13000.00000" pt_clust_7="13000.00000" pt_clust_8="13000.00000" pt_clust_9="25.53951"></scales>
<clustering>
<clus scale="   25.540">  2  9  1 -1</clus>
<clus scale="   91.183">  7  8 -1 -1</clus>
<clus scale="   99.839">  5  6 -1 -1</clus>
<clus scale="  112.582">  2  7  1 -1</clus>
<clus scale="  119.700">  1  5  2 -1</clus>
</clustering>
</event>
<event>
 9    1  0.1266593E-005  0.9215521E+02  0.7546771E-02  0.1297984E+00
          2   -1    0    0  502    0  0.00000000000E+00  0.00000000000E+00  0.37038056611E+03  0.37038056611E+03  0.00000000000E+00 0. -1.
         -2   -1    0    0    0  501 -0.00000000000E+00 -0.00000000000E+00 -0.95160961247E+02  0.95160961247E+02  0.00000000000E+00 0.  1.
         23    2    1    2    0    0  0.33684237317E+02 -0.52191041838E+01 -0.43637822497E+02  0.10661953397E+03  0.91113108712E+02 0.  0.
         23    2    1    2    0    0  0.88757881261E+00 -0.11541421090E+02  0.30404203365E+03  0.31774406764E+03  0.91573697647E+02 0.  0.
        -13    1    3    3    0    0 -0.12271609117E+02  0.33815189866E+02 -0.23843351603E+02  0.43157442831E+02  0.00000000000E+00 0. -1.
         13    1    3    3    0    0  0.45955846435E+02 -0.39034294050E+02 -0.19794470894E+02  0.63462091137E+02  0.00000000000E+00 0.  1.
        -13    1    4    4    0    0  0.12300589838E+02 -0.49487345547E+02  0.20038266051E+03  0.20676922526E+03  0.00000000000E+00 0.  1.
         13    1    4    4    0    0 -0.11413011025E+02  0.37945924457E+02  0.10365937313E+03  0.11097484238E+03  0.00000000000E+00 0. -1.
         21    1    1    2  502  501 -0.34571816130E+02  0.16760525274E+02  0.14815393712E+02  0.41177925747E+02  0.00000000000E+00 0. -1.
<scales pt_clust_5="13000.00000" pt_clust_6="13000.00000" pt_clust_7="13000.00000" pt_clust_8="13000.00000" pt_clust_9="38.42038"></scales>
<clustering>
<clus scale="   38.420">  2  9  1 -1</clus>
<clus scale="   91.113">  5  6 -1 -1</clus>
<clus scale="   91.574">  7  8 -1 -1</clus>
<clus scale="   91.698">  2  5  1 -1</clus>
<clus scale="   92.155">  1  5  2 -1</clus>
</clustering>
</event>
<event>
 9    1  0.1266593E-005  0.1644444E+03  0.7546771E-02  0.1183889E+00
          1   -1    0    0  502    0  0.00000000000E+00  0.00000000000E+00  0.61607676171E+03  0.61607676171E+03  0.00000000000E+00 0. -1.
         -1   -1    0    0    0  501 -0.00000000000E+00 -0.00000000000E+00 -0.69704835357E+02  0.69704835357E+02  0.00000000000E+00 0.  1.
         23    2    1    2    0    0  0.29616403681E+02 -0.14748216647E+03  0.21519581785E+03  0.27775883425E+03  0.90623447251E+02 0.  0.
         23    2    1    2    0    0 -0.39512804062E+02  0.12320302813E+03  0.34408056700E+03  0.37880050506E+03  0.91422853946E+02 0.  0.
        -11    1    4    4    0    0 -0.20962606341E+02 -0.80996111647E+01  0.82797262982E+02  0.85792897859E+02  0.00000000000E+00 0.  1.
         11    1    4    4    0    0 -0.18550197721E+02  0.13130263929E+03  0.26128330402E+03  0.29300760720E+03  0.00000000000E+00 0. -1.
        -13    1    3    3    0    0  0.50696943676E+02 -0.13399847014E+03  0.20636666457E+03  0.25122294948E+03  0.00000000000E+00 0.  1.
         13    1    3    3    0    0 -0.21080539995E+02 -0.13483696331E+02  0.88291532786E+01  0.26535884776E+02  0.00000000000E+00 0. -1.
         21    1    1    2  502  501  0.98964003807E+01  0.24279138344E+02 -0.12904458492E+02  0.29222257753E+02  0.00000000000E+00 0.  1.
<scales pt_clust_5="13000.00000" pt_clust_6="13000.00000" pt_clust_7="13000.00000" pt_clust_8="13000.00000" pt_clust_9="26.21861"></scales>
<clustering>
<clus scale="   26.219">  2  9  1 -1</clus>
<clus scale="   90.623">  7  8 -1 -1</clus>
<clus scale="   91.423">  5  6 -1 -1</clus>
<clus scale="  164.001">  2  7  1 -1</clus>
<clus scale="  164.444">  1  5  2 -1</clus>
</clustering>
</event>
<event>
 9    1  0.1266593E-005  0.9694815E+02  0.7546771E-02  0.1287575E+00
          1   -1    0    0  502    0  0.00000000000E+00  0.00000000000E+00  0.26236868599E+03  0.26236868599E+03  0.00000000000E+00 0. -1.
         -1   -1    0    0    0  501 -0.00000000000E+00 -0.00000000000E+00 -0.33335921348E+03  0.33335921348E+03  0.00000000000E+00 0.  1.
         23    2    1    2    0    0 -0.73736484150E+02  0.91524767093E+01 -0.25521341004E+03  0.28247576818E+03  0.95592039542E+02 0.  0.
         23    2    1    2    0    0 -0.43021858089E+01  0.28725155556E+01  0.20905275303E+03  0.23048041561E+03  0.96909278610E+02 0.  0.
        -11    1    4    4    0    0  0.40891830135E+01  0.46805889898E+02  0.69149018534E+02  0.83600834393E+02  0.00000000000E+00 0. -1.
         11    1    4    4    0    0 -0.83913688224E+01 -0.43933374343E+02  0.13990373450E+03  0.14687958122E+03  0.00000000000E+00 0.  1.
        -13    1    3    3    0    0 -0.64353038631E+02  0.27435104109E+02 -0.25217940329E+03  0.26170298042E+03  0.00000000000E+00 0.  1.
         13    1    3    3    0    0 -0.93834455186E+01 -0.18282627399E+02 -0.30340067465E+01  0.20772787761E+02  0.00000000000E+00 0. -1.
         21    1    1    2  502  501  0.78038669959E+02 -0.12024992265E+02 -0.24829870489E+02  0.82771715679E+02  0.00000000000E+00 0. -1.
<scales pt_clust_5="13000.00000" pt_clust_6="13000.00000" pt_clust_7="13000.00000" pt_clust_8="13000.00000" pt_clust_9="78.95970"></scales>
<clustering>
<clus scale="   78.960">  2  9  1 -1</clus>
<clus scale="   95.592">  7  8 -1 -1</clus>
<clus scale="   95.631">  2  7  1 -1</clus>
<clus scale="   96.909">  5  6 -1 -1</clus>
<clus scale="   96.948">  1  5  2 -1</clus>
</clustering>
</event>
<event>
 9    1  0.1266593E-005  0.1073473E+03  0.7546771E-02  0.1265814E+00
          3   -1    0    0  502    0  0.00000000000E+00  0.00000000000E+00  0.75695948661E+02  0.75695948661E+02  0.00000000000E+00 0. -1.
         -3   -1    0    0    0  501 -0.00000000000E+00 -0.00000000000E+00 -0.27918554575E+03  0.27918554575E+03  0.00000000000E+00 0.  1.
         23    2    1    2    0    0 -0.15791599238E+02 -0.48489868672E+02 -0.83768665127E+02  0.13354811010E+03  0.90649139454E+02 0.  0.
         23    2    1    2    0    0  0.47336226743E+02  0.41062315072E+02 -0.15008597503E+02  0.11172086192E+03  0.91265880307E+02 0.  0.
        -13    1    4    4    0    0  0.49518484378E+02  0.21583517799E+01  0.25307387927E+02  0.55652517115E+02  0.00000000000E+00 0. -1.
         13    1    4    4    0    0 -0.21822576350E+01  0.38903963292E+02 -0.40315985430E+02  0.56068344807E+02  0.00000000000E+00 0.  1.
        -13    1    3    3    0    0  0.25122133695E+02 -0.40632205523E+02 -0.78031844108E+02  0.91493532132E+02  0.00000000000E+00 0. -1.
         13    1    3    3    0    0 -0.40913732933E+02 -0.78576631485E+01 -0.57368210191E+01  0.42054577968E+02  0.00000000000E+00 0.  1.
         21    1    1    2  502  501 -0.31544627505E+02  0.74275536001E+01 -0.10471233446E+03  0.10961252239E+03  0.00000000000E+00 0.  1.
<scales pt_clust_5="13000.00000" pt_clust_6="13000.00000" pt_clust_7="13000.00000" pt_clust_8="13000.00000" pt_clust_9="32.40728"></scales>
<clustering>
<clus scale="   32.407">  2  9  1 -1</clus>
<clus scale="   90.649">  7  8 -1 -1</clus>
<clus scale="   91.266">  5  6 -1 -1</clus>
<clus scale="  106.823">  2  7  1 -1</clus>
<clus scale="  107.347">  1  5  2 -1</clus>
</clustering>
</event>
<event>
 9    1  0.1416289E-005  0.1051499E+03  0.7546771E-02  0.1270302E+00
          1   -1    0    0  502    0  0.00000000000E+00  0.00000000000E+00  0.71771491100E+02  0.71771491100E+02  0.00000000000E+00 0. -1.
         -1   -1    0    0    0  501 -0.00000000000E+00 -0.00000000000E+00 -0.83952335724E+03  0.83952335724E+03  0.00000000000E+00 0.  1.
         23    2    1    2    0    0  0.38440728073E+02  0.67501047954E+02 -0.63187495536E+03  0.64332353129E+03  0.92547964001E+02 0.  0.
         23    2    1    2    0    0 -0.58163173016E+01 -0.48097041049E+02  0.21824683124E+02  0.10576570562E+03  0.91448962746E+02 0.  0.
        -11    1    3    3    0    0  0.24302372281E+02  0.90436745085E+02 -0.50685765655E+03  0.51543582934E+03  0.00000000000E+00 0.  1.
         11    1    3    3    0    0  0.14138355792E+02 -0.22935697131E+02 -0.12501729881E+03  0.12788770195E+03  0.00000000000E+00 0. -1.
        -11    1    4    4    0    0 -0.38180084579E+02 -0.52432224889E+02  0.30943542354E+02  0.71863480842E+02  0.00000000000E+00 0. -1.
         11    1    4    4    0    0  0.32363767277E+02  0.43351838400E+01 -0.91188592300E+01  0.33902224779E+02  0.00000000000E+00 0.  1.
         21    1    1    2  502  501 -0.32624410771E+02 -0.19404006905E+02 -0.15770159390E+03  0.16220561144E+03  0.00000000000E+00 0. -1.
<scales pt_clust_5="13000.00000" pt_clust_6="13000.00000" pt_clust_7="13000.00000" pt_clust_8="13000.00000" pt_clust_9="37.95876"></scales>
<clustering>
<clus scale="   37.959">  2  9  1 -1</clus>
<clus scale="   91.449">  7  8 -1 -1</clus>
<clus scale="   92.548">  5  6 -1 -1</clus>
<clus scale="  104.184">  1  7  2 -1</clus>
<clus scale="  104.184">  1  5  2 -1</clus>
</clustering>
</event>
<event>
 9    1  0.1266593E-005  0.9686191E+02  0.7546771E-02  0.1288106E+00
         -2   -1    0    0    0  501 -0.00000000000E+00  0.00000000000E+00  0.11706963781E+03  0.11706963781E+03  0.00000000000E+00 0.  1.
          2   -1    0    0  502    0  0.00000000000E+00 -0.00000000000E+00 -0.30208654071E+03  0.30208654071E+03  0.00000000000E+00 0. -1.
         23    2    1    2    0    0  0.21084465559E+02 -0.33566413455E+02  0.73043530232E+02  0.12255543609E+03  0.90073407873E+02 0.  0.
         23    2    1    2    0    0  0.12503082883E+01  0.35797456962E+02 -0.25714635214E+03  0.27413620990E+03  0.87996556547E+02 0.  0.
        -13    1    3    3    0    0 -0.12896147592E+02  0.25161192353E+02  0.34198387166E+02  0.44372580589E+02  0.00000000000E+00 0.  1.
         13    1    3    3    0    0  0.33980613152E+02 -0.58727605808E+02  0.38845143066E+02  0.78182855499E+02  0.00000000000E+00 0. -1.
        -13    1    4    4    0    0 -0.39353455681E+02  0.24126542552E+01 -0.77435391534E+02  0.86895081775E+02  0.00000000000E+00 0.  1.
         13    1    4    4    0    0  0.40603763969E+02  0.33384802707E+02 -0.17971096060E+03  0.18724112812E+03  0.00000000000E+00 0. -1.
         21    1    1    2  502  501 -0.22334773848E+02 -0.22310435075E+01 -0.91408099787E+00  0.22464532535E+02  0.00000000000E+00 0.  1.
<scales pt_clust_5="13000.00000" pt_clust_6="13000.00000" pt_clust_7="13000.00000" pt_clust_8="13000.00000" pt_clust_9="22.44593"></scales>
<clustering>
<clus scale="   22.446">  1  9  2 -1</clus>
<clus scale="   87.997">  7  8 -1 -1</clus>
<clus scale="   90.073">  5  6 -1 -1</clus>
<clus scale="   94.934">  2  7  1 -1</clus>
<clus scale="   94.934">  2  5  1 -1</clus>
</clustering>
</event>
<event>
 9    1  0.1266593E-005  0.1051034E+03  0.7546771E-02  0.1271689E+00
          1   -1    0    0  502    0  0.00000000000E+00  0.00000000000E+00  0.56629033827E+02  0.56629033827E+02  0.00000000000E+00 0. -1.
         -1   -1    0    0    0  501 -0.00000000000E+00 -0.00000000000E+00 -0.29066463577E+03  0.29066463577E+03  0.00000000000E+00 0.  1.
         23    2    1    2    0    0  0.15605829520E+02  0.43252787971E+02 -0.87183946395E+02  0.13500140137E+03  0.92249619406E+02 0.  0.
         23    2    1    2    0    0  0.12118316109E+02 -0.56274494801E+02 -0.62306423886E+02  0.12236958312E+03  0.88196100059E+02 0.  0.
        -11    1    4    4    0    0 -0.30883372927E+02 -0.49199922569E+02 -0.19480241749E+02  0.61269037227E+02  0.00000000000E+00 0.  1.
         11    1    4    4    0    0  0.43001689037E+02 -0.70745722320E+01 -0.42826182137E+02  0.61100545895E+02  0.00000000000E+00 0. -1.
        -13    1    3    3    0    0 -0.21367746536E+02  0.54553624843E+02 -0.73488510465E+02  0.93985316651E+02  0.00000000000E+00 0.  1.
         13    1    3    3    0    0  0.36973576056E+02 -0.11300836872E+02 -0.13695435930E+02  0.41016084719E+02  0.00000000000E+00 0. -1.
         21    1    1    2  502  501 -0.27724145629E+02  0.13021706830E+02 -0.84545231667E+02  0.89922685110E+02  0.00000000000E+00 0.  1.
<scales pt_clust_5="13000.00000" pt_clust_6="13000.00000" pt_clust_7="13000.00000" pt_clust_8="13000.00000" pt_clust_9="30.62994"></scales>
<clustering>
<clus scale="   30.630">  2  9  1 -1</clus>
<clus scale="   88.196">  5  6 -1 -1</clus>
<clus scale="   92.250">  7  8 -1 -1</clus>
<clus scale="  101.564">  1  5  2 -1</clus>
<clus scale="  101.564">  1  5  2 -1</clus>
</clustering>
</event>
<event>
 9    1  0.1266593E-005  0.1059766E+03  0.7546771E-02  0.1269429E+00
         -3   -1    0    0    0  501 -0.00000000000E+00  0.00000000000E+00  0.71046553321E+02  0.71046553321E+02  0.00000000000E+00 0.  1.
          3   -1    0    0  502    0  0.00000000000E+00 -0.00000000000E+00 -0.25822360108E+03  0.25822360108E+03  0.00000000000E+00 0. -1.
         23    2    1    2    0    0  0.61274611864E+02  0.43114324116E+02 -0.40967108530E+02  0.12376265699E+03  0.89584977991E+02 0.  0.
         23    2    1    2    0    0 -0.39551162685E+02 -0.16274537571E+02 -0.13518641566E+03  0.16926111196E+03  0.92438098210E+02 0.  0.
        -11    1    4    4    0    0  0.19852626304E+01 -0.46346134194E+02 -0.88462281052E+02  0.99887339495E+02  0.00000000000E+00 0. -1.
         11    1    4    4    0    0 -0.41536425315E+02  0.30071596623E+02 -0.46724134608E+02  0.69373772467E+02  0.00000000000E+00 0.  1.
        -13    1    3    3    0    0  0.48583264794E+02 -0.18697316225E+02 -0.28822654434E+02  0.59503518053E+02  0.00000000000E+00 0.  1.
         13    1    3    3    0    0  0.12691347070E+02  0.61811640341E+02 -0.12144454097E+02  0.64259138941E+02  0.00000000000E+00 0. -1.
         21    1    1    2  502  501 -0.21723449179E+02 -0.26839786545E+02 -0.11023523570E+02  0.36246385446E+02  0.00000000000E+00 0.  1.
<scales pt_clust_5="13000.00000" pt_clust_6="13000.00000" pt_clust_7="13000.00000" pt_clust_8="13000.00000" pt_clust_9="34.52944"></scales>
<clustering>
<clus scale="   34.529">  1  9  2 -1</clus>
<clus scale="   89.585">  7  8 -1 -1</clus>
<clus scale="   92.438">  5  6 -1 -1</clus>
<clus scale="  103.497">  1  7  2 -1</clus>
<clus scale="  105.977">  2  5  1 -1</clus>
</clustering>
</event>
<event>
 9    1  0.1266593E-005  0.1024376E+03  0.7546771E-02  0.1277385E+00
         -1   -1    0    0    0  501 -0.00000000000E+00  0.00000000000E+00  0.46939512488E+03  0.46939512488E+03  0.00000000000E+00 0.  1.
          1   -1    0    0  502    0  0.00000000000E+00 -0.00000000000E+00 -0.80711669503E+02  0.80711669503E+02  0.00000000000E+00 0. -1.
         23    2    1    2    0    0 -0.34072066939E+02  0.12428740172E+02  0.31896889149E+03  0.33494993977E+03  0.95576822954E+02 0.  0.
         23    2    1    2    0    0  0.44352997786E+01 -0.79686754420E+02  0.12103546204E+02  0.12177051832E+03  0.91169691160E+02 0.  0.
        -11    1    4    4    0    0 -0.23891982774E+02  0.10876933053E+02  0.15933583531E+01  0.26299682591E+02  0.00000000000E+00 0.  1.
         11    1    4    4    0    0  0.28327282553E+02 -0.90563687473E+02  0.10510187851E+02  0.95470835726E+02  0.00000000000E+00 0. -1.
        -13    1    3    3    0    0 -0.66408211769E+02  0.11848516731E+02  0.17888783629E+03  0.19118393215E+03  0.00000000000E+00 0.  1.
         13    1    3    3    0    0  0.32336144830E+02  0.58022344062E+00  0.14008105520E+03  0.14376600762E+03  0.00000000000E+00 0. -1.
         21    1    1    2  502  501  0.29636767160E+02  0.67258014248E+02  0.57611017683E+02  0.93386336296E+02  0.00000000000E+00 0.  1.
<scales pt_clust_5="13000.00000" pt_clust_6="13000.00000" pt_clust_7="13000.00000" pt_clust_8="13000.00000" pt_clust_9="73.49815"></scales>
<clustering>
<clus scale="   73.498">  2  9  1 -1</clus>
<clus scale="   91.170">  5  6 -1 -1</clus>
<clus scale="   95.577">  7  8 -1 -1</clus>
<clus scale="   98.338">  2  5  1 -1</clus>
<clus scale="   73.498">  2  5  1 -1</clus>
</clustering>
</event>
<event>
 9    1  0.1266593E-005  0.1404465E+03  0.7546771E-02  0.1213036E+00
         -2   -1    0    0    0  501 -0.00000000000E+00  0.00000000000E+00  0.33593247531E+02  0.33593247531E+02  0.00000000000E+00 0.  1.
          2   -1    0    0  502    0  0.00000000000E+00 -0.00000000000E+00 -0.87788139846E+03  0.87788139846E+03  0.00000000000E+00 0. -1.
         23    2    1    2    0    0 -0.29652812814E+02  0.93308698969E+02 -0.33744389871E+03  0.36291786438E+03  0.90858070081E+02 0.  0.
         23    2    1    2    0    0  0.18564181976E+02 -0.11127335554E+03 -0.50691387075E+03  0.52744537555E+03  0.92252714437E+02 0.  0.
        -13    1    3    3    0    0 -0.13550461162E+02  0.10884606350E+03 -0.25718984641E+03  0.27960274969E+03  0.00000000000E+00 0.  1.
         13    1    3    3    0    0 -0.16102351652E+02 -0.15537364534E+02 -0.80254052300E+02  0.83315114691E+02  0.00000000000E+00 0. -1.
        -13    1    4    4    0    0  0.38639096172E+02 -0.23033206541E+02 -0.87568405587E+02  0.98446604886E+02  0.00000000000E+00 0.  1.
         13    1    4    4    0    0 -0.20074914196E+02 -0.88240148997E+02 -0.41934546516E+03  0.42899877066E+03  0.00000000000E+00 0. -1.
         21    1    1    2  502  501  0.11088630838E+02  0.17964656570E+02  0.69618525605E-01  0.21111406070E+02  0.00000000000E+00 0.  1.
<scales pt_clust_5="13000.00000" pt_clust_6="13000.00000" pt_clust_7="13000.00000" pt_clust_8="13000.00000" pt_clust_9="21.11129"></scales>
<clustering>
<clus scale="   21.111">  1  9  2 -1</clus>
<clus scale="   90.858">  5  6 -1 -1</clus>
<clus scale="   92.253">  7  8 -1 -1</clus>
<clus scale="  139.534">  1  5  2 -1</clus>
<clus scale="  140.447">  2  5  1 -1</clus>
</clustering>
</event>
<event>
 9    1  0.1266593E-005  0.9447653E+02  0.7546771E-02  0.1292515E+00
         -1   -1    0    0    0  501 -0.00000000000E+00  0.00000000000E+00  0.71153413196E+03  0.71153413196E+03  0.00000000000E+00 0.  1.
          1   -1    0    0  502    0  0.00000000000E+00 -0.00000000000E+00 -0.20764352868E+02  0.20764352868E+02  0.00000000000E+00 0. -1.
         23    2    1    2    0    0 -0.17024104016E+02 -0.50913679462E+02  0.25483300910E+03  0.27507273463E+03  0.88561413363E+02 0.  0.
         23    2    1    2    0    0  0.58267568473E-01  0.13719136178E+02  0.22375541931E+03  0.24114197192E+03  0.88852376776E+02 0.  0.
        -13    1    3    3    0    0  0.10428001895E+02  0.21576793259E+02  0.39363763067E+02  0.46084781367E+02  0.00000000000E+00 0.  1.
         13    1    3    3    0    0 -0.27452105911E+02 -0.72490472721E+02  0.21546924603E+03  0.22898795326E+03  0.00000000000E+00 0. -1.
        -13    1    4    4    0    0 -0.27567473742E+02 -0.15236627682E+02  0.30707471598E+02  0.43989421951E+02  0.00000000000E+00 0. -1.
         13    1    4    4    0    0  0.27625741311E+02  0.28955763860E+02  0.19304794771E+03  0.19715254997E+03  0.00000000000E+00 0.  1.
         21    1    1    2  502  501  0.16965836448E+02  0.37194543284E+02  0.21218135069E+03  0.21608377829E+03  0.00000000000E+00 0.  1.
<scales pt_clust_5="13000.00000" pt_clust_6="13000.00000" pt_clust_7="13000.00000" pt_clust_8="13000.00000" pt_clust_9="40.88121"></scales>
<clustering>
<clus scale="   40.881">  1  9  2 -1</clus>
<clus scale="   88.561">  5  6 -1 -1</clus>
<clus scale="   88.852">  7  8 -1 -1</clus>
<clus scale="   94.203">  1  5  2 -1</clus>
<clus scale="   94.477">  2  5  1 -1</clus>
</clustering>
</event>
<event>
 9    1  0.1266593E-005  0.1552478E+03  0.7546771E-02  0.1195093E+00
          2   -1    0    0  502    0  0.00000000000E+00  0.00000000000E+00  0.28957143874E+03  0.28957143874E+03  0.00000000000E+00 0. -1.
         -2   -1    0    0    0  501 -0.00000000000E+00 -0.00000000000E+00 -0.20940114161E+03  0.20940114161E+03  0.00000000000E+00 0.  1.
         23    2    1    2    0    0 -0.76529747841E+02 -0.10851504822E+03  0.71174821460E+02  0.17778977900E+03  0.94398264360E+02 0.  0.
         23    2    1    2    0    0  0.84732614620E+02  0.82276101597E+02  0.13006640223E+03  0.19702991736E+03  0.89188264208E+02 0.  0.
        -13    1    3    3    0    0 -0.53942362814E+02 -0.11744341146E+03  0.79944995562E+02  0.15196689020E+03  0.00000000000E+00 0. -1.
         13    1    3    3    0    0 -0.22587385028E+02  0.89283632406E+01 -0.87701741021E+01  0.25822888807E+02  0.00000000000E+00 0.  1.
        -13    1    4    4    0    0  0.10693055534E+02  0.43841977962E+02  0.32607207229E+01  0.45244809292E+02  0.00000000000E+00 0.  1.
         13    1    4    4    0    0  0.74039559086E+02  0.38434123635E+02  0.12680568151E+03  0.15178510807E+03  0.00000000000E+00 0. -1.
         21    1    1    2  502  501 -0.82028667787E+01  0.26238946620E+02 -0.12107092656E+03  0.12415288398E+03  0.00000000000E+00 0.  1.
<scales pt_clust_5="13000.00000" pt_clust_6="13000.00000" pt_clust_7="13000.00000" pt_clust_8="13000.00000" pt_clust_9="27.49126"></scales>
<clustering>
<clus scale="   27.491">  2  9  1 -1</clus>
<clus scale="   89.188">  7  8 -1 -1</clus>
<clus scale="   94.398">  5  6 -1 -1</clus>
<clus scale="  152.136">  1  7  2 -1</clus>
<clus scale="  152.136">  1  5  2 -1</clus>
</clustering>
</event>
<event>
 9    1  0.1266593E-005  0.1112105E+03  0.7546771E-02  0.1263544E+00
          4   -1    0    0  502    0  0.00000000000E+00  0.00000000000E+00  0.18699328941E+03  0.18699328941E+03  0.00000000000E+00 0. -1.
         -4   -1    0    0    0  501 -0.00000000000E+00 -0.00000000000E+00 -0.18758293921E+03  0.18758293921E+03  0.00000000000E+00 0.  1.
         23    2    1    2    0    0  0.62788651246E+02  0.20594092706E+01  0.22704994166E+02  0.10780647809E+03  0.84617161766E+02 0.  0.
         23    2    1    2    0    0 -0.46985590669E+02 -0.17332234160E+02  0.95986935924E+02  0.14548046327E+03  0.97175209050E+02 0.  0.
        -13    1    3    3    0    0 -0.90772141566E+00 -0.29104580229E+02 -0.84982389391E+01  0.30333489967E+02  0.00000000000E+00 0.  1.
         13    1    3    3    0    0  0.63696372662E+02  0.31163989500E+02  0.31203233105E+02  0.77472988119E+02  0.00000000000E+00 0. -1.
        -13    1    4    4    0    0 -0.10284567227E+02 -0.53915258027E+02  0.33503004626E+02  0.64304577521E+02  0.00000000000E+00 0.  1.
         13    1    4    4    0    0 -0.36701023442E+02  0.36583023866E+02  0.62483931297E+02  0.81175885750E+02  0.00000000000E+00 0. -1.
         21    1    1    2  502  501 -0.15803060577E+02  0.15272824890E+02 -0.11928157989E+03  0.12128928726E+03  0.00000000000E+00 0.  1.
<scales pt_clust_5="13000.00000" pt_clust_6="13000.00000" pt_clust_7="13000.00000" pt_clust_8="13000.00000" pt_clust_9="21.97717"></scales>
<clustering>
<clus scale="   21.977">  2  9  1 -1</clus>
<clus scale="   84.617">  5  6 -1 -1</clus>
<clus scale="   97.175">  7  8 -1 -1</clus>
<clus scale="  100.423">  2  5  1 -1</clus>
<clus scale="  111.211">  1  5  2 -1</clus>
</clustering>
</event>
<event>
 9    1  0.1266593E-005  0.1007852E+03  0.7546771E-02  0.1279698E+00
          2   -1    0    0  502    0  0.00000000000E+00  0.00000000000E+00  0.70407883009E+03  0.70407883009E+03  0.00000000000E+00 0. -1.
         -2   -1    0    0    0  501 -0.00000000000E+00 -0.00000000000E+00 -0.47303014904E+02  0.47303014904E+02  0.00000000000E+00 0.  1.
         23    2    1    2    0    0  0.24322766598E+02 -0.61843832666E+02  0.22875022999E+03  0.25494329904E+03  0.90846911817E+02 0.  0.
         23    2    1    2    0    0 -0.22789833740E+02  0.18600179762E+02  0.44068673568E+03  0.45135342501E+03  0.93004150735E+02 0.  0.
        -11    1    3    3    0    0 -0.26396105156E+02 -0.29956500857E+02  0.38431291225E+02  0.55417600600E+02  0.00000000000E+00 0. -1.
         11    1    3    3    0    0  0.50718871754E+02 -0.31887331809E+02  0.19031893877E+03  0.19952569844E+03  0.00000000000E+00 0.  1.
        -13    1    4    4    0    0  0.35361487764E+02 -0.28007458798E+01  0.15030703605E+03  0.15443601938E+03  0.00000000000E+00 0.  1.
         13    1    4    4    0    0 -0.58151321504E+02  0.21400925642E+02  0.29037969963E+03  0.29691740563E+03  0.00000000000E+00 0. -1.
         21    1    1    2  502  501 -0.15329328577E+01  0.43243652904E+02 -0.12661150487E+02  0.45085120952E+02  0.00000000000E+00 0. -1.
<scales pt_clust_5="13000.00000" pt_clust_6="13000.00000" pt_clust_7="13000.00000" pt_clust_8="13000.00000" pt_clust_9="43.27081"></scales>
<clustering>
<clus scale="   43.271">  2  9  1 -1</clus>
<clus scale="   90.847">  5  6 -1 -1</clus>
<clus scale="   93.004">  7  8 -1 -1</clus>
<clus scale="   98.798">  2  5  1 -1</clus>
<clus scale="  100.785">  1  5  2 -1</clus>
</clustering>
</event>
<event>
 9    1  0.1266593E-005  0.9206735E+02  0.7546771E-02  0.1298242E+00
          3   -1    0    0  502    0  0.00000000000E+00  0.00000000000E+00  0.28157138229E+03  0.28157138229E+03  0.00000000000E+00 0. -1.
         -3   -1    0    0    0  501 -0.00000000000E+00 -0.00000000000E+00 -0.88085302820E+02  0.88085302820E+02  0.00000000000E+00 0.  1.
         23    2    1    2    0    0  0.98593719593E+01 -0.34351555491E+02 -0.31527357989E+02  0.10232854200E+03  0.90553407588E+02 0.  0.
         23    2    1    2    0    0 -0.47775274189E+01  0.91471964758E+01  0.22349620138E+03  0.24157184558E+03  0.91103834023E+02 0.  0.
        -11    1    3    3    0    0  0.21325845348E+02  0.16966448041E+02  0.15870483054E+02  0.31536078883E+02  0.00000000000E+00 0. -1.
         11    1    3    3    0    0 -0.11466473388E+02 -0.51318003532E+02 -0.47397841043E+02  0.70792463116E+02  0.00000000000E+00 0.  1.
        -11    1    4    4    0    0 -0.46849891360E+02  0.14603284972E+02  0.11210991224E+03  0.12237973964E+03  0.00000000000E+00 0.  1.
         11    1    4    4    0    0  0.42072363941E+02 -0.54560884967E+01  0.11138628914E+03  0.11919210594E+03  0.00000000000E+00 0. -1.
         21    1    1    2  502  501 -0.50818445404E+01  0.25204359015E+02  0.15172360807E+01  0.25756297533E+02  0.00000000000E+00 0.  1.
<scales pt_clust_5="13000.00000" pt_clust_6="13000.00000" pt_clust_7="13000.00000" pt_clust_8="13000.00000" pt_clust_9="25.71157"></scales>
<clustering>
<clus scale="   25.712">  2  9  1 -1</clus>
<clus scale="   90.553">  5  6 -1 -1</clus>
<clus scale="   91.104">  7  8 -1 -1</clus>
<clus scale="   91.523">  2  5  1 -1</clus>
<clus scale="   92.067">  1  5  2 -1</clus>
</clustering>
</event>
<event>
 9    1  0.1266593E-005  0.1803225E+03  0.7546771E-02  0.1169861E+00
          2   -1    0    0  502    0  0.00000000000E+00  0.00000000000E+00  0.10132174160E+04  0.10132174160E+04  0.00000000000E+00 0. -1.
         -2   -1    0    0    0  501 -0.00000000000E+00 -0.00000000000E+00 -0.41450540126E+02  0.41450540126E+02  0.00000000000E+00 0.  1.
         23    2    1    2    0    0  0.13921209550E+03  0.73085559745E+02  0.44644067686E+03  0.48539710358E+03  0.10760838087E+03 0.  0.
         23    2    1    2    0    0 -0.10516355316E+03 -0.88571473748E+02  0.49313596780E+03  0.51992181251E+03  0.90726674774E+02 0.  0.
        -11    1    3    3    0    0  0.13453584177E+03  0.41013410243E+02  0.25485720282E+03  0.29109137117E+03  0.00000000000E+00 0. -1.
         11    1    3    3    0    0  0.46762537309E+01  0.32072149501E+02  0.19158347404E+03  0.19430573241E+03  0.00000000000E+00 0.  1.
        -11    1    4    4    0    0 -0.98197834536E+02 -0.44693519233E+02  0.42575488664E+03  0.43921241884E+03  0.00000000000E+00 0. -1.
         11    1    4    4    0    0 -0.69657186217E+01 -0.43877954514E+02  0.67381081158E+02  0.80709393668E+02  0.00000000000E+00 0.  1.
         21    1    1    2  502  501 -0.34048542341E+02  0.15485914003E+02  0.32190231261E+02  0.49349040079E+02  0.00000000000E+00 0. -1.
<scales pt_clust_5="13000.00000" pt_clust_6="13000.00000" pt_clust_7="13000.00000" pt_clust_8="13000.00000" pt_clust_9="37.40477"></scales>
<clustering>
<clus scale="   37.405">  2  9  1 -1</clus>
<clus scale="   90.727">  7  8 -1 -1</clus>
<clus scale="  107.608">  5  6 -1 -1</clus>
<clus scale="  170.786">  1  7  2 -1</clus>
<clus scale="  170.786">  1  5  2 -1</clus>
</clustering>
</event>
<event>
 9    1  0.1266593E-005  0.1043874E+03  0.7546771E-02  0.1271708E+00
          3   -1    0    0  502    0  0.00000000000E+00  0.00000000000E+00  0.43943850696E+03  0.43943850696E+03  0.00000000000E+00 0. -1.
         -3   -1    0    0    0  501 -0.00000000000E+00 -0.00000000000E+00 -0.14262657814E+03  0.14262657814E+03  0.00000000000E+00 0.  1.
         23    2    1    2    0    0 -0.12942663888E+02  0.28429381921E+02 -0.63515577199E+02  0.11369343136E+03  0.88973172831E+02 0.  0.
         23    2    1    2    0    0  0.43450212181E+02 -0.33836992119E+02  0.40248483012E+03  0.41605346640E+03  0.89853132650E+02 0.  0.
        -11    1    3    3    0    0  0.11746636080E+02  0.32516181596E+02 -0.77616940148E+02  0.84968670243E+02  0.00000000000E+00 0.  1.
         11    1    3    3    0    0 -0.24689299968E+02 -0.40867996747E+01  0.14101362950E+02  0.28724761122E+02  0.00000000000E+00 0. -1.
        -13    1    4    4    0    0 -0.22007639542E+02  0.11436157668E+02  0.73231234690E+02  0.77317110879E+02  0.00000000000E+00 0.  1.
         13    1    4    4    0    0  0.65457851723E+02 -0.45273149787E+02  0.32925359543E+03  0.33873635552E+03  0.00000000000E+00 0. -1.
         21    1    1    2  502  501 -0.30507548293E+02  0.54076101980E+01 -0.42157324103E+02  0.52318187339E+02  0.00000000000E+00 0.  1.
<scales pt_clust_5="13000.00000" pt_clust_6="13000.00000" pt_clust_7="13000.00000" pt_clust_8="13000.00000" pt_clust_9="30.98310"></scales>
<clustering>
<clus scale="   30.983">  2  9  1 -1</clus>
<clus scale="   88.973">  5  6 -1 -1</clus>
<clus scale="   89.853">  7  8 -1 -1</clus>
<clus scale="  103.631">  2  5  1 -1</clus>
<clus scale="  104.387">  1  5  2 -1</clus>
</clustering>
</event>
<event>
 9    1  0.1266593E-005  0.9526207E+02  0.7546771E-02  0.1292094E+00
         -1   -1    0    0    0  501 -0.00000000000E+00  0.00000000000E+00  0.34829737909E+03  0.34829737909E+03  0.00000000000E+00 0.  1.
          1   -1    0    0  502    0  0.00000000000E+00 -0.00000000000E+00 -0.47999205457E+02  0.47999205457E+02  0.00000000000E+00 0. -1.
         23    2    1    2    0    0  0.14334341468E+02 -0.79755854526E+00  0.19247273390E+03  0.21271951855E+03  0.89430033157E+02 0.  0.
         23    2    1    2    0    0  0.81280515953E+01  0.32408385215E+02  0.40895469386E+02  0.10622446814E+03  0.92167399663E+02 0.  0.
        -11    1    3    3    0    0  0.99798279968E+01 -0.32596388802E+02  0.25193580739E+02  0.42389126439E+02  0.00000000000E+00 0. -1.
         11    1    3    3    0    0  0.43545134716E+01  0.31798830256E+02  0.16727915316E+03  0.17033039211E+03  0.00000000000E+00 0.  1.
        -13    1    4    4    0    0  0.33137292792E+02  0.50860977729E+02  0.84396795201E+01  0.61287416486E+02  0.00000000000E+00 0. -1.
         13    1    4    4    0    0 -0.25009241196E+02 -0.18452592514E+02  0.32455789866E+02  0.44937051656E+02  0.00000000000E+00 0.  1.
         21    1    1    2  502  501 -0.22462393064E+02 -0.31610826670E+02  0.66929970346E+02  0.77352597858E+02  0.00000000000E+00 0.  1.
<scales pt_clust_5="13000.00000" pt_clust_6="13000.00000" pt_clust_7="13000.00000" pt_clust_8="13000.00000" pt_clust_9="38.77890"></scales>
<clustering>
<clus scale="   38.779">  1  9  2 -1</clus>
<clus scale="   89.430">  5  6 -1 -1</clus>
<clus scale="   92.167">  7  8 -1 -1</clus>
<clus scale="   92.616">  1  5  2 -1</clus>
<clus scale="   95.262">  2  5  1 -1</clus>
</clustering>
</event>
<event>
 9    1  0.1266593E-005  0.1084885E+03  0.7546771E-02  0.1263751E+00
         -4   -1    0    0    0  501 -0.00000000000E+00  0.00000000000E+00  0.14128336558E+03  0.14128336558E+03  0.00000000000E+00 0.  1.
          4   -1    0    0  502    0  0.00000000000E+00 -0.00000000000E+00 -0.13564796473E+03  0.13564796473E+03  0.00000000000E+00 0. -1.
         23    2    1    2    0    0  0.26920720975E+02  0.24457323567E+02  0.19366574680E+02  0.10183545514E+03  0.93126311082E+02 0.  0.
         23    2    1    2    0    0 -0.59618251542E+02 -0.32733727766E+02 -0.50461696084E+02  0.12522846459E+03  0.92249404997E+02 0.  0.
        -13    1    3    3    0    0  0.29227813523E+02  0.56957719447E+02  0.25079355467E+02  0.68756243052E+02  0.00000000000E+00 0.  1.
         13    1    3    3    0    0 -0.23070925488E+01 -0.32500395880E+02 -0.57127807869E+01  0.33079212093E+02  0.00000000000E+00 0. -1.
        -13    1    4    4    0    0 -0.15741073106E+02 -0.50616591840E+02 -0.56489190006E+02  0.77465149193E+02  0.00000000000E+00 0. -1.
         13    1    4    4    0    0 -0.43877178436E+02  0.17882864073E+02  0.60274939221E+01  0.47763315400E+02  0.00000000000E+00 0.  1.
         21    1    1    2  502  501  0.32697530568E+02  0.82764041994E+01  0.36730522252E+02  0.49867410566E+02  0.00000000000E+00 0.  1.
<scales pt_clust_5="13000.00000" pt_clust_6="13000.00000" pt_clust_7="13000.00000" pt_clust_8="13000.00000" pt_clust_9="33.72873"></scales>
<clustering>
<clus scale="   33.729">  1  9  2 -1</clus>
<clus scale="   92.249">  7  8 -1 -1</clus>
<clus scale="   93.126">  5  6 -1 -1</clus>
<clus scale="  107.737">  2  7  1 -1</clus>
<clus scale="  107.737">  2  5  1 -1</clus>
</clustering>
</event>
<event>
 9    1  0.1266593E-005  0.1000396E+03  0.7546771E-02  0.1281567E+00
          1   -1    0    0  502    0  0.00000000000E+00  0.00000000000E+00  0.40468309999E+03  0.40468309999E+03  0.00000000000E+00 0. -1.
         -1   -1    0    0    0  501 -0.00000000000E+00 -0.00000000000E+00 -0.34654948833E+02  0.34654948833E+02  0.00000000000E+00 0.  1.
         23    2    1    2    0    0 -0.31841111695E+02  0.16087580080E+02  0.15620491796E+03  0.18473960584E+03  0.91956940712E+02 0.  0.
         23    2    1    2    0    0  0.46659941905E+02  0.15374533669E+02  0.17508332269E+03  0.20253844878E+03  0.89185911918E+02 0.  0.
        -11    1    3    3    0    0  0.26031918627E+02  0.11860610002E+02  0.99787898556E+02  0.10380731937E+03  0.00000000000E+00 0. -1.
         11    1    3    3    0    0 -0.57873030323E+02  0.42269700780E+01  0.56417019400E+02  0.80932286467E+02  0.00000000000E+00 0.  1.
        -13    1    4    4    0    0  0.15359608811E+02 -0.19173617971E+02  0.35977810086E+01  0.24829201299E+02  0.00000000000E+00 0.  1.
         13    1    4    4    0    0  0.31300333095E+02  0.34548151640E+02  0.17148554168E+03  0.17770924748E+03  0.00000000000E+00 0. -1.
         21    1    1    2  502  501 -0.14818830210E+02 -0.31462113749E+02  0.38739910510E+02  0.52059994206E+02  0.00000000000E+00 0.  1.
<scales pt_clust_5="13000.00000" pt_clust_6="13000.00000" pt_clust_7="13000.00000" pt_clust_8="13000.00000" pt_clust_9="34.77732"></scales>
<clustering>
<clus scale="   34.777">  2  9  1 -1</clus>
<clus scale="   89.186">  7  8 -1 -1</clus>
<clus scale="   91.957">  5  6 -1 -1</clus>
<clus scale="   97.499">  1  7  2 -1</clus>
<clus scale="   97.499">  1  5  2 -1</clus>
</clustering>
</event>
<event>
 9    1  0.1266593E-005  0.1078566E+03  0.7546771E-02  0.1267163E+00
          2   -1    0    0  502    0  0.00000000000E+00  0.00000000000E+00  0.49800546059E+03  0.49800546059E+03  0.00000000000E+00 0. -1.
         -2   -1    0    0    0  501 -0.00000000000E+00 -0.00000000000E+00 -0.31577399243E+02  0.31577399243E+02  0.00000000000E+00 0.  1.
         23    2    1    2    0    0  0.30621903115E+02  0.19500319912E+02  0.13712512464E+03  0.16883857749E+03  0.91570748678E+02 0.  0.
         23    2    1    2    0    0 -0.44498343614E+02 -0.46190132015E+02  0.24828520350E+03  0.27432220898E+03  0.97434599512E+02 0.  0.
        -11    1    4    4    0    0  0.28868711847E+02  0.67599791635E-01  0.79047645552E+02  0.84154247432E+02  0.00000000000E+00 0.  1.
         11    1    4    4    0    0 -0.73367055461E+02 -0.46257731807E+02  0.16923755794E+03  0.19016796154E+03  0.00000000000E+00 0. -1.
        -13    1    3    3    0    0  0.54111287986E+01  0.52994018188E+02  0.97762699746E+02  0.11133369544E+03  0.00000000000E+00 0.  1.
         13    1    3    3    0    0  0.25210774317E+02 -0.33493698276E+02  0.39362424897E+02  0.57504882051E+02  0.00000000000E+00 0. -1.
         21    1    1    2  502  501  0.13876440499E+02  0.26689812103E+02  0.81017733212E+02  0.86422073372E+02  0.00000000000E+00 0.  1.
<scales pt_clust_5="13000.00000" pt_clust_6="13000.00000" pt_clust_7="13000.00000" pt_clust_8="13000.00000" pt_clust_9="30.08158"></scales>
<clustering>
<clus scale="   30.082">  1  9  2 -1</clus>
<clus scale="   91.571">  7  8 -1 -1</clus>
<clus scale="   97.435">  5  6 -1 -1</clus>
<clus scale="  102.590">  2  7  1 -1</clus>
<clus scale="   30.082">  1  5  2 -1</clus>
</clustering>
</event>
<event>
 9    1  0.1266593E-005  0.1193098E+03  0.7546771E-02  0.1248269E+00
          1   -1    0    0  502    0  0.00000000000E+00  0.00000000000E+00  0.29733470745E+03  0.29733470745E+03  0.00000000000E+00 0. -1.
         -1   -1    0    0    0  501 -0.00000000000E+00 -0.00000000000E+00 -0.82092048512E+02  0.82092048512E+02  0.00000000000E+00 0.  1.
         23    2    1    2    0    0 -0.79970213222E+02 -0.51574905231E+02  0.11229123315E+03  0.17987126288E+03  0.10338831807E+03 0.  0.
         23    2    1    2    0    0  0.38449819555E+02  0.43633354593E+01  0.91279002402E+02  0.13560925881E+03  0.92523442840E+02 0.  0.
        -13    1    3    3    0    0 -0.27917019194E+02 -0.76649336841E+02  0.54200742465E+02  0.97939783963E+02  0.00000000000E+00 0.  1.
         13    1    3    3    0    0 -0.52053194028E+02  0.25074431610E+02  0.58090490683E+02  0.81931478913E+02  0.00000000000E+00 0. -1.
        -13    1    4    4    0    0 -0.16593478978E+02 -0.27068347564E+02  0.52345163825E+02  0.61221361961E+02  0.00000000000E+00 0.  1.
         13    1    4    4    0    0  0.55043298533E+02  0.31431683024E+02  0.38933838577E+02  0.74387896848E+02  0.00000000000E+00 0. -1.
         21    1    1    2  502  501  0.41520393667E+02  0.47211569772E+02  0.11672423390E+02  0.63946234279E+02  0.00000000000E+00 0. -1.
<scales pt_clust_5="13000.00000" pt_clust_6="13000.00000" pt_clust_7="13000.00000" pt_clust_8="13000.00000" pt_clust_9="62.87190"></scales>
<clustering>
<clus scale="   62.872">  2  9  1 -1</clus>
<clus scale="   92.523">  7  8 -1 -1</clus>
<clus scale="  103.388">  5  6 -1 -1</clus>
<clus scale="  110.028">  1  7  2 -1</clus>
<clus scale="  110.028">  1  5  2 -1</clus>
</clustering>
</event>
<event>
 9    1  0.1266593E-005  0.1168868E+03  0.7546771E-02  0.1251641E+00
          1   -1    0    0  502    0  0.00000000000E+00  0.00000000000E+00  0.26166942914E+03  0.26166942914E+03  0.00000000000E+00 0. -1.
         -1   -1    0    0    0  501 -0.00000000000E+00 -0.00000000000E+00 -0.70084646112E+02  0.70084646112E+02  0.00000000000E+00 0.  1.
         23    2    1    2    0    0  0.19016594372E+01 -0.73712318239E+02  0.55104581608E+02  0.12383254095E+03  0.82830315196E+02 0.  0.
         23    2    1    2    0    0  0.22978395497E+02  0.67976863744E+02  0.13960655355E+03  0.18219826372E+03  0.92505982751E+02 0.  0.
        -11    1    3    3    0    0  0.25462796427E+02  0.46195181694E+01  0.12726679463E+01  0.25909720834E+02  0.00000000000E+00 0. -1.
         11    1    3    3    0    0 -0.23561136989E+02 -0.78331836408E+02  0.53831913662E+02  0.97922820118E+02  0.00000000000E+00 0.  1.
        -13    1    4    4    0    0  0.46581774124E+02  0.66086428570E+02  0.13603823215E+03  0.15825194573E+03  0.00000000000E+00 0. -1.
         13    1    4    4    0    0 -0.23603378627E+02  0.18904351746E+01  0.35683214045E+01  0.23946317992E+02  0.00000000000E+00 0.  1.
         21    1    1    2  502  501 -0.24880054935E+02  0.57354544946E+01 -0.31263521276E+01  0.25723270582E+02  0.00000000000E+00 0.  1.
<scales pt_clust_5="13000.00000" pt_clust_6="13000.00000" pt_clust_7="13000.00000" pt_clust_8="13000.00000" pt_clust_9="25.53258"></scales>
<clustering>
<clus scale="   25.533">  2  9  1 -1</clus>
<clus scale="   82.830">  5  6 -1 -1</clus>
<clus scale="   92.506">  7  8 -1 -1</clus>
<clus scale="  109.389">  2  5  1 -1</clus>
<clus scale="  116.887">  1  5  2 -1</clus>
</clustering>
</event>
<event>
 9    1  0.1266593E-005  0.2526968E+03  0.7546771E-02  0.1111620E+00
         -1   -1    0    0    0  501 -0.00000000000E+00  0.00000000000E+00  0.33321471312E+03  0.33321471312E+03  0.00000000000E+00 0.  1.
          1   -1    0    0  502    0  0.00000000000E+00 -0.00000000000E+00 -0.34702853550E+03  0.34702853550E+03  0.00000000000E+00 0. -1.
         23    2    1    2    0    0  0.21712612317E+03 -0.68188330636E+02  0.75401929116E+02  0.25693788337E+03  0.92402506444E+02 0.  0.
         23    2    1    2    0    0 -0.23273404262E+03  0.51233862645E+02 -0.19089243478E+03  0.31904986631E+03  0.92535681021E+02 0.  0.
        -11    1    3    3    0    0  0.14771905210E+03 -0.66903639533E+02  0.11476436884E+02  0.16256913588E+03  0.00000000000E+00 0. -1.
         11    1    3    3    0    0  0.69407071064E+02 -0.12846911030E+01  0.63925492232E+02  0.94368747486E+02  0.00000000000E+00 0.  1.
        -13    1    4    4    0    0 -0.92606081081E+02 -0.14337717560E+02 -0.10987610203E+03  0.14440988261E+03  0.00000000000E+00 0.  1.
         13    1    4    4    0    0 -0.14012796154E+03  0.65571580205E+02 -0.81016332751E+02  0.17463998371E+03  0.00000000000E+00 0. -1.
         21    1    1    2  502  501  0.15607919455E+02  0.16954467991E+02  0.10167668329E+03  0.10425549894E+03  0.00000000000E+00 0. -1.
<scales pt_clust_5="13000.00000" pt_clust_6="13000.00000" pt_clust_7="13000.00000" pt_clust_8="13000.00000" pt_clust_9="23.04476"></scales>
<clustering>
<clus scale="   23.045">  1  9  2 -1</clus>
<clus scale="   92.403">  5  6 -1 -1</clus>
<clus scale="   92.536">  7  8 -1 -1</clus>
<clus scale="  252.648">  1  5  2 -1</clus>
<clus scale="  252.697">  2  5  1 -1</clus>
</clustering>
</event>
<event>
 9    1  0.1266593E-005  0.1474881E+03  0.7546771E-02  0.1204603E+00
          1   -1    0    0  502    0  0.00000000000E+00  0.00000000000E+00  0.40261886269E+03  0.40261886269E+03  0.00000000000E+00 0. -1.
         -1   -1    0    0    0  501 -0.00000000000E+00 -0.00000000000E+00 -0.15840358936E+03  0.15840358936E+03  0.00000000000E+00 0.  1.
         23    2    1    2    0    0  0.94435248403E+02 -0.20068407594E+02  0.12982347724E+02  0.13260996943E+03  0.89978361372E+02 0.  0.
         23    2    1    2    0    0 -0.11727188955E+03  0.10493169226E+02  0.31048660100E+03  0.34538030554E+03  0.94988543399E+02 0.  0.
        -11    1    3    3    0    0  0.78247746673E+02 -0.51352371088E+02  0.22219554004E+02  0.96195033427E+02  0.00000000000E+00 0.  1.
         11    1    3    3    0    0  0.16187501729E+02  0.31283963494E+02 -0.92372062801E+01  0.36414936002E+02  0.00000000000E+00 0. -1.
        -13    1    4    4    0    0 -0.93648706415E+02  0.42958176902E+02  0.26701806557E+03  0.28620645087E+03  0.00000000000E+00 0. -1.
         13    1    4    4    0    0 -0.23623183131E+02 -0.32465007676E+02  0.43468535422E+02  0.59173854669E+02  0.00000000000E+00 0.  1.
         21    1    1    2  502  501  0.22836641144E+02  0.95752383675E+01 -0.79253675392E+02  0.83032177086E+02  0.00000000000E+00 0.  1.
<scales pt_clust_5="13000.00000" pt_clust_6="13000.00000" pt_clust_7="13000.00000" pt_clust_8="13000.00000" pt_clust_9="24.76282"></scales>
<clustering>
<clus scale="   24.763">  2  9  1 -1</clus>
<clus scale="   89.978">  5  6 -1 -1</clus>
<clus scale="   94.989">  7  8 -1 -1</clus>
<clus scale="  144.312">  2  5  1 -1</clus>
<clus scale="  147.488">  1  5  2 -1</clus>
</clustering>
</event>
<event>
 9    1  0.1266593E-005  0.1146649E+03  0.7546771E-02  0.1253067E+00
         -3   -1    0    0    0  501 -0.00000000000E+00  0.00000000000E+00  0.10264268475E+03  0.10264268475E+03  0.00000000000E+00 0.  1.
          3   -1    0    0  502    0  0.00000000000E+00 -0.00000000000E+00 -0.47137082536E+03  0.47137082536E+03  0.00000000000E+00 0. -1.
         23    2    1    2    0    0 -0.42621855322E+02  0.64404942599E+02 -0.48632458709E+02  0.12889713295E+03  0.91020523286E+02 0.  0.
         23    2    1    2    0    0  0.68934241109E+02 -0.19057790680E+02 -0.36107933391E+03  0.37857041136E+03  0.88442874173E+02 0.  0.
        -11    1    4    4    0    0  0.12361934877E+01  0.25670613097E+02 -0.15458025856E+03  0.15670215342E+03  0.00000000000E+00 0.  1.
         11    1    4    4    0    0  0.67698047621E+02 -0.44728403778E+02 -0.20649907536E+03  0.22186825794E+03  0.00000000000E+00 0. -1.
        -13    1    3    3    0    0 -0.28045822454E+02  0.86637665050E+02 -0.46440196769E+02  0.10222203793E+03  0.00000000000E+00 0.  1.
         13    1    3    3    0    0 -0.14576032868E+02 -0.22232722451E+02 -0.21922619399E+01  0.26675095017E+02  0.00000000000E+00 0. -1.
         21    1    1    2  502  501 -0.26312385787E+02 -0.45347151919E+02  0.40983652019E+02  0.66545965811E+02  0.00000000000E+00 0.  1.
<scales pt_clust_5="13000.00000" pt_clust_6="13000.00000" pt_clust_7="13000.00000" pt_clust_8="13000.00000" pt_clust_9="52.42810"></scales>
<clustering>
<clus scale="   52.428">  1  9  2 -1</clus>
<clus scale="   88.443">  5  6 -1 -1</clus>
<clus scale="   91.021">  7  8 -1 -1</clus>
<clus scale="  112.630">  2  5  1 -1</clus>
<clus scale="  112.630">  2  5  1 -1</clus>
</clustering>
</event>
<event>
 9    1  0.1266593E-005  0.2635237E+03  0.7546771E-02  0.1105669E+00
         -2   -1    0    0    0  501 -0.00000000000E+00  0.00000000000E+00  0.97164942226E+02  0.97164942226E+02  0.00000000000E+00 0.  1.
          2   -1    0    0  502    0  0.00000000000E+00 -0.00000000000E+00 -0.87393815719E+03  0.87393815719E+03  0.00000000000E+00 0. -1.
         23    2    1    2    0    0  0.22895889428E+03  0.11960914052E+03 -0.27493277428E+03  0.38655859789E+03  0.84326730451E+02 0.  0.
         23    2    1    2    0    0 -0.21546432093E+03 -0.10115806722E+03 -0.49937934960E+03  0.56155314261E+03  0.96459157201E+02 0.  0.
        -13    1    3    3    0    0  0.18208123136E+02  0.34348751822E+02 -0.71965312946E+02  0.81794735572E+02  0.00000000000E+00 0.  1.
         13    1    3    3    0    0  0.21075077114E+03  0.85260388695E+02 -0.20296746133E+03  0.30476386232E+03  0.00000000000E+00 0. -1.
        -13    1    4    4    0    0 -0.63889656448E+02 -0.76625076928E+02 -0.15283555447E+03  0.18251574542E+03  0.00000000000E+00 0.  1.
         13    1    4    4    0    0 -0.15157466449E+03 -0.24532990294E+02 -0.34654379513E+03  0.37903739719E+03  0.00000000000E+00 0. -1.
         21    1    1    2  502  501 -0.13494573343E+02 -0.18451073296E+02 -0.24610910867E+01  0.22991358916E+02  0.00000000000E+00 0.  1.
<scales pt_clust_5="13000.00000" pt_clust_6="13000.00000" pt_clust_7="13000.00000" pt_clust_8="13000.00000" pt_clust_9="22.85926"></scales>
<clustering>
<clus scale="   22.859">  1  9  2 -1</clus>
<clus scale="   84.327">  5  6 -1 -1</clus>
<clus scale="   96.459">  7  8 -1 -1</clus>
<clus scale="  259.329">  1  5  2 -1</clus>
<clus scale="  263.524">  2  5  1 -1</clus>
</clustering>
</event>
<event>
 9    1  0.1266593E-005  0.1673098E+03  0.7546771E-02  0.1180793E+00
          1   -1    0    0  502    0  0.00000000000E+00  0.00000000000E+00  0.57091588789E+03  0.57091588789E+03  0.00000000000E+00 0. -1.
         -1   -1    0    0    0  501 -0.00000000000E+00 -0.00000000000E+00 -0.10439212743E+03  0.10439212743E+03  0.00000000000E+00 0.  1.
         23    2    1    2    0    0  0.11529550389E+03 -0.74326250602E+02 -0.21246894237E+01  0.16504456609E+03  0.91748295590E+02 0.  0.
         23    2    1    2    0    0 -0.13629343265E+03  0.74551584143E+02  0.43218700204E+03  0.46818731625E+03  0.90994065104E+02 0.  0.
        -11    1    4    4    0    0 -0.28384855133E+02 -0.93205320185E+01  0.25936216132E+02  0.39563362158E+02  0.00000000000E+00 0.  1.
         11    1    4    4    0    0 -0.10790857752E+03  0.83872116162E+02  0.40625078591E+03  0.42862395409E+03  0.00000000000E+00 0. -1.
        -13    1    3    3    0    0  0.92797104763E+02 -0.77820170846E+02 -0.34075837286E+02  0.12581114549E+03  0.00000000000E+00 0.  1.
         13    1    3    3    0    0  0.22498399131E+02  0.34939202449E+01  0.31951147862E+02  0.39233420598E+02  0.00000000000E+00 0. -1.
         21    1    1    2  502  501  0.20997928760E+02 -0.22533354180E+00  0.36461447843E+02  0.42076132976E+02  0.00000000000E+00 0.  1.
<scales pt_clust_5="13000.00000" pt_clust_6="13000.00000" pt_clust_7="13000.00000" pt_clust_8="13000.00000" pt_clust_9="20.99914"></scales>
<clustering>
<clus scale="   20.999">  1  9  2 -1</clus>
<clus scale="   90.994">  5  6 -1 -1</clus>
<clus scale="   91.748">  7  8 -1 -1</clus>
<clus scale="  166.897">  1  5  2 -1</clus>
<clus scale="   20.999">  1  5  2 -1</clus>
</clustering>
</event>
<event>
 9    1  0.1266593E-005  0.1164466E+03  0.7546771E-02  0.1249089E+00
          1   -1    0    0  502    0  0.00000000000E+00  0.00000000000E+00  0.37769771656E+03  0.37769771656E+03  0.00000000000E+00 0. -1.
         -1   -1    0    0    0  501 -0.00000000000E+00 -0.00000000000E+00 -0.11039890958E+03  0.11039890958E+03  0.00000000000E+00 0.  1.
         23    2    1    2    0    0 -0.29702878880E+02  0.44444143130E+02 -0.19769915084E+02  0.10769520483E+03  0.91377594233E+02 0.  0.
         23    2    1    2    0    0  0.41398919264E+02 -0.62892361297E+02  0.31982581434E+03  0.34102933465E+03  0.91340768257E+02 0.  0.
        -13    1    3    3    0    0  0.27539005978E+02  0.27836499998E+02  0.10926062023E+02  0.40652754073E+02  0.00000000000E+00 0.  1.
         13    1    3    3    0    0 -0.57241884858E+02  0.16607643132E+02 -0.30695977107E+02  0.67042450753E+02  0.00000000000E+00 0. -1.
        -13    1    4    4    0    0  0.41749420175E+02  0.11513495057E+02  0.13547992408E+03  0.14223355611E+03  0.00000000000E+00 0.  1.
         13    1    4    4    0    0 -0.35050091077E+00 -0.74405856354E+02  0.18434589026E+03  0.19879577854E+03  0.00000000000E+00 0. -1.
         21    1    1    2  502  501 -0.11696040384E+02  0.18448218167E+02 -0.32757092276E+02  0.39372086668E+02  0.00000000000E+00 0. -1.
<scales pt_clust_5="13000.00000" pt_clust_6="13000.00000" pt_clust_7="13000.00000" pt_clust_8="13000.00000" pt_clust_9="21.84340"></scales>
<clustering>
<clus scale="   21.843">  2  9  1 -1</clus>
<clus scale="   91.341">  7  8 -1 -1</clus>
<clus scale="   91.378">  5  6 -1 -1</clus>
<clus scale="  116.418">  1  7  2 -1</clus>
<clus scale="  116.418">  1  5  2 -1</clus>
</clustering>
</event>
<event>
 9    1  0.1266593E-005  0.3421984E+03  0.7546771E-02  0.1066200E+00
          1   -1    0    0  502    0  0.00000000000E+00  0.00000000000E+00  0.13763968589E+03  0.13763968589E+03  0.00000000000E+00 0. -1.
         -1   -1    0    0    0  501 -0.00000000000E+00 -0.00000000000E+00 -0.10741906041E+04  0.10741906041E+04  0.00000000000E+00 0.  1.
         23    2    1    2    0    0 -0.65881132202E+02 -0.31267679675E+03 -0.52333345150E+03  0.62036380424E+03  0.94160742068E+02 0.  0.
         23    2    1    2    0    0  0.13842109301E+03  0.30895107447E+03 -0.31739933907E+03  0.47122905188E+03  0.81873765563E+02 0.  0.
        -11    1    3    3    0    0 -0.15126852222E+01 -0.21883433456E+03 -0.36001950601E+03  0.42131318387E+03  0.00000000000E+00 0.  1.
         11    1    3    3    0    0 -0.64368446980E+02 -0.93842462189E+02 -0.16331394549E+03  0.19905062036E+03  0.00000000000E+00 0. -1.
        -13    1    4    4    0    0  0.10286382839E+03  0.22495892880E+03 -0.27730008340E+03  0.37159497183E+03  0.00000000000E+00 0.  1.
         13    1    4    4    0    0  0.35557264618E+02  0.83992145668E+02 -0.40099255667E+02  0.99634080044E+02  0.00000000000E+00 0. -1.
         21    1    1    2  502  501 -0.72539960805E+02  0.37257222770E+01 -0.95818127641E+02  0.12023743387E+03  0.00000000000E+00 0.  1.
<scales pt_clust_5="13000.00000" pt_clust_6="13000.00000" pt_clust_7="13000.00000" pt_clust_8="13000.00000" pt_clust_9="72.63558"></scales>
<clustering>
<clus scale="   72.636">  2  9  1 -1</clus>
<clus scale="   81.874">  7  8 -1 -1</clus>
<clus scale="   94.161">  5  6 -1 -1</clus>
<clus scale="  339.023">  1  7  2 -1</clus>
<clus scale="  339.023">  1  5  2 -1</clus>
</clustering>
</event>
<event>
 9    1  0.1266593E-005  0.1770166E+03  0.7546771E-02  0.1172076E+00
         -1   -1    0    0    0  501 -0.00000000000E+00  0.00000000000E+00  0.40355147819E+02  0.40355147819E+02  0.00000000000E+00 0.  1.
          1   -1    0    0  502    0  0.00000000000E+00 -0.00000000000E+00 -0.99013529603E+03  0.99013529603E+03  0.00000000000E+00 0. -1.
         23    2    1    2    0    0  0.11354889722E+03 -0.10523498342E+03 -0.46702407942E+03  0.50036613890E+03  0.91033117100E+02 0.  0.
         23    2    1    2    0    0 -0.94717463282E+02  0.11614900102E+03 -0.47872955279E+03  0.50798945651E+03  0.80058197090E+02 0.  0.
        -11    1    3    3    0    0  0.83547741253E+02 -0.21919199028E+02 -0.17408780368E+03  0.19433795240E+03  0.00000000000E+00 0.  1.
         11    1    3    3    0    0  0.30001155966E+02 -0.83315784393E+02 -0.29293627574E+03  0.30602818650E+03  0.00000000000E+00 0. -1.
        -13    1    4    4    0    0 -0.10259238060E+03  0.73421741421E+02 -0.36907163369E+03  0.39003822821E+03  0.00000000000E+00 0. -1.
         13    1    4    4    0    0  0.78749173223E+01  0.42727259599E+02 -0.10965791910E+03  0.11795122830E+03  0.00000000000E+00 0.  1.
         21    1    1    2  502  501 -0.18831433936E+02 -0.10914017598E+02 -0.40265160019E+01  0.22134848437E+02  0.00000000000E+00 0. -1.
<scales pt_clust_5="13000.00000" pt_clust_6="13000.00000" pt_clust_7="13000.00000" pt_clust_8="13000.00000" pt_clust_9="21.76554"></scales>
<clustering>
<clus scale="   21.766">  1  9  2 -1</clus>
<clus scale="   80.058">  7  8 -1 -1</clus>
<clus scale="   91.033">  5  6 -1 -1</clus>
<clus scale="  171.631">  2  7  1 -1</clus>
<clus scale="  171.631">  2  5  1 -1</clus>
</clustering>
</event>
<event>
 9    1  0.1376669E-005  0.1020874E+03  0.7546771E-02  0.1276277E+00
         -2   -1    0    0    0  501 -0.00000000000E+00  0.00000000000E+00  0.10850487378E+03  0.10850487378E+03  0.00000000000E+00 0. -1.
          2   -1    0    0  502    0  0.00000000000E+00 -0.00000000000E+00 -0.40423708263E+03  0.40423708263E+03  0.00000000000E+00 0.  1.
         23    2    1    2    0    0  0.39715129693E+02  0.16335122203E+02  0.46123047875E+02  0.11095876509E+03  0.91325704277E+02 0.  0.
         23    2    1    2    0    0 -0.26096062924E+02 -0.38444608521E+02 -0.35732230252E+03  0.37155840230E+03  0.90650019396E+02 0.  0.
        -13    1    3    3    0    0  0.81007274325E-01  0.48858710688E+02  0.15591851599E+02  0.51286314047E+02  0.00000000000E+00 0.  1.
         13    1    3    3    0    0  0.39634122418E+02 -0.32523588485E+02  0.30531196276E+02  0.59672451046E+02  0.00000000000E+00 0. -1.
        -13    1    4    4    0    0  0.91073447118E+01 -0.59337929840E+02 -0.18771876833E+03  0.19708442260E+03  0.00000000000E+00 0.  1.
         13    1    4    4    0    0 -0.35203407636E+02  0.20893321318E+02 -0.16960353419E+03  0.17447397970E+03  0.00000000000E+00 0. -1.
         21    1    1    2  502  501 -0.13619066768E+02  0.22109486319E+02  0.15467045797E+02  0.30224789008E+02  0.00000000000E+00 0. -1.
<scales pt_clust_5="13000.00000" pt_clust_6="13000.00000" pt_clust_7="13000.00000" pt_clust_8="13000.00000" pt_clust_9="25.96745"></scales>
<clustering>
<clus scale="   25.967">  1  9  2 -1</clus>
<clus scale="   90.650">  7  8 -1 -1</clus>
<clus scale="   91.326">  5  6 -1 -1</clus>
<clus scale="  101.483">  2  7  1 -1</clus>
<clus scale="  101.483">  2  5  1 -1</clus>
</clustering>
</event>
<event>
 9    1  0.1266593E-005  0.1039395E+03  0.7546771E-02  0.1273782E+00
         -1   -1    0    0    0  501 -0.00000000000E+00  0.00000000000E+00  0.11109182575E+03  0.11109182575E+03  0.00000000000E+00 0.  1.
          1   -1    0    0  502    0  0.00000000000E+00 -0.00000000000E+00 -0.14046869908E+03  0.14046869908E+03  0.00000000000E+00 0. -1.
         23    2    1    2    0    0  0.34420110950E+02 -0.37366366151E-01  0.28222338301E+02  0.10470455937E+03  0.94772353249E+02 0.  0.
         23    2    1    2    0    0 -0.59658344917E+02  0.42099491389E+00 -0.40716010742E+02  0.11648890935E+03  0.91392434680E+02 0.  0.
        -11    1    4    4    0    0 -0.14311222565E+02  0.38753373044E+02  0.49150810110E+01  0.41602800807E+02  0.00000000000E+00 0.  1.
         11    1    4    4    0    0 -0.45347122352E+02 -0.38332378130E+02 -0.45631091753E+02  0.74886108547E+02  0.00000000000E+00 0. -1.
        -13    1    3    3    0    0  0.18334258637E+02 -0.14024857627E+02  0.61216084370E+02  0.65423624608E+02  0.00000000000E+00 0.  1.
         13    1    3    3    0    0  0.16085852312E+02  0.13987491261E+02 -0.32993746069E+02  0.39280934766E+02  0.00000000000E+00 0. -1.
         21    1    1    2  502  501  0.25238233967E+02 -0.38362854773E+00 -0.16883200888E+02  0.30367056111E+02  0.00000000000E+00 0.  1.
<scales pt_clust_5="13000.00000" pt_clust_6="13000.00000" pt_clust_7="13000.00000" pt_clust_8="13000.00000" pt_clust_9="25.24115"></scales>
<clustering>
<clus scale="   25.241">  2  9  1 -1</clus>
<clus scale="   91.392">  5  6 -1 -1</clus>
<clus scale="   94.772">  7  8 -1 -1</clus>
<clus scale="  100.867">  2  5  1 -1</clus>
<clus scale="   25.241">  2  5  1 -1</clus>
</clustering>
</event>
<event>
 9    1  0.1266593E-005  0.9720102E+02  0.7546771E-02  0.1287094E+00
          3   -1    0    0  502    0  0.00000000000E+00  0.00000000000E+00  0.11155325530E+03  0.11155325530E+03  0.00000000000E+00 0. -1.
         -3   -1    0    0    0  501 -0.00000000000E+00 -0.00000000000E+00 -0.20952429129E+03  0.20952429129E+03  0.00000000000E+00 0.  1.
         23    2    1    2    0    0  0.42429468522E+01 -0.14731255631E+02 -0.13614572526E+03  0.16525145618E+03  0.92397904585E+02 0.  0.
         23    2    1    2    0    0  0.30513131106E+02  0.16905453829E+02  0.60364922248E+02  0.11453300948E+03  0.90868261147E+02 0.  0.
        -11    1    4    4    0    0  0.55398800028E+02  0.27255900189E+02  0.17981811241E+02  0.64305961428E+02  0.00000000000E+00 0. -1.
         11    1    4    4    0    0 -0.24885668922E+02 -0.10350446360E+02  0.42383111007E+02  0.50227048054E+02  0.00000000000E+00 0.  1.
        -13    1    3    3    0    0  0.44279711498E+02  0.11549701675E+02 -0.65449473675E+02  0.79860641517E+02  0.00000000000E+00 0. -1.
         13    1    3    3    0    0 -0.40036764646E+02 -0.26280957306E+02 -0.70696251583E+02  0.85390814659E+02  0.00000000000E+00 0.  1.
         21    1    1    2  502  501 -0.34756077958E+02 -0.21741981980E+01 -0.22190232983E+02  0.41293080930E+02  0.00000000000E+00 0.  1.
<scales pt_clust_5="13000.00000" pt_clust_6="13000.00000" pt_clust_7="13000.00000" pt_clust_8="13000.00000" pt_clust_9="34.82402"></scales>
<clustering>
<clus scale="   34.824">  2  9  1 -1</clus>
<clus scale="   90.868">  5  6 -1 -1</clus>
<clus scale="   92.398">  7  8 -1 -1</clus>
<clus scale="   95.748">  1  5  2 -1</clus>
<clus scale="   95.748">  1  5  2 -1</clus>
</clustering>
</event>
<event>
 9    1  0.1266593E-005  0.3590828E+03  0.7546771E-02  0.1059038E+00
          1   -1    0    0  502    0  0.00000000000E+00  0.00000000000E+00  0.12683778058E+04  0.12683778058E+04  0.00000000000E+00 0. -1.
         -1   -1    0    0    0  501 -0.00000000000E+00 -0.00000000000E+00 -0.19258318160E+03  0.19258318160E+03  0.00000000000E+00 0.  1.
         23    2    1    2    0    0  0.26918542004E+03 -0.50841263051E+02  0.23641350706E+03  0.37200220384E+03  0.86305671569E+02 0.  0.
         23    2    1    2    0    0 -0.35042583009E+03  0.23397561186E+03  0.75964620242E+03  0.87332981855E+03  0.89998720992E+02 0.  0.
        -11    1    4    4    0    0 -0.33834727848E+03  0.21049040250E+03  0.66672503241E+03  0.77672862651E+03  0.00000000000E+00 0. -1.
         11    1    4    4    0    0 -0.12078551611E+02  0.23485209357E+02  0.92921170006E+02  0.96601192037E+02  0.00000000000E+00 0.  1.
        -13    1    3    3    0    0  0.25601978377E+03 -0.68655428974E+02  0.21786125801E+03  0.34310818316E+03  0.00000000000E+00 0.  1.
         13    1    3    3    0    0  0.13165636273E+02  0.17814165922E+02  0.18552249053E+02  0.28894020678E+02  0.00000000000E+00 0. -1.
         21    1    1    2  502  501  0.81240410050E+02 -0.18313434881E+03  0.79734914765E+02  0.21562896506E+03  0.00000000000E+00 0.  1.
<scales pt_clust_5="13000.00000" pt_clust_6="13000.00000" pt_clust_7="13000.00000" pt_clust_8="13000.00000" pt_clust_9="200.34519"></scales>
<clustering>
<clus scale="   86.306">  7  8 -1 -1</clus>
<clus scale="   89.999">  5  6 -1 -1</clus>
<clus scale="  200.345">  2  9  1 -1</clus>
<clus scale="  358.175">  2  7  1 -1</clus>
<clus scale="  359.083">  1  5  2 -1</clus>
</clustering>
</event>
<event>
 9    1  0.1266593E-005  0.9408012E+02  0.7546771E-02  0.1293928E+00
          2   -1    0    0  502    0  0.00000000000E+00  0.00000000000E+00  0.37083555113E+03  0.37083555113E+03  0.00000000000E+00 0. -1.
         -2   -1    0    0    0  501 -0.00000000000E+00 -0.00000000000E+00 -0.42858206389E+02  0.42858206389E+02  0.00000000000E+00 0.  1.
         23    2    1    2    0    0  0.17515919537E+02 -0.14796644011E+02  0.11019717161E+03  0.14456280984E+03  0.90715165476E+02 0.  0.
         23    2    1    2    0    0 -0.12534282939E+02 -0.34496851242E+02  0.18475085125E+03  0.20958599423E+03  0.91903595921E+02 0.  0.
        -13    1    3    3    0    0 -0.21765861367E+02 -0.21777517469E+02  0.39136159705E+01  0.31037547875E+02  0.00000000000E+00 0.  1.
         13    1    3    3    0    0  0.39281780904E+02  0.69808734580E+01  0.10628355564E+03  0.11352526196E+03  0.00000000000E+00 0. -1.
        -13    1    4    4    0    0 -0.22311197871E+02  0.25882768577E+02  0.41067144524E+02  0.53424878278E+02  0.00000000000E+00 0. -1.
         13    1    4    4    0    0  0.97769149328E+01 -0.60379619819E+02  0.14368370673E+03  0.15616111595E+03  0.00000000000E+00 0.  1.
         21    1    1    2  502  501 -0.49816365988E+01  0.49293495253E+02  0.33029321878E+02  0.59544953448E+02  0.00000000000E+00 0.  1.
<scales pt_clust_5="13000.00000" pt_clust_6="13000.00000" pt_clust_7="13000.00000" pt_clust_8="13000.00000" pt_clust_9="49.54458"></scales>
<clustering>
<clus scale="   49.545">  2  9  1 -1</clus>
<clus scale="   90.715">  5  6 -1 -1</clus>
<clus scale="   91.904">  7  8 -1 -1</clus>
<clus scale="   92.920">  2  5  1 -1</clus>
<clus scale="   94.080">  1  5  2 -1</clus>
</clustering>
</event>
<event>
 9    1  0.1655253E-005  0.2029116E+03  0.7546771E-02  0.1147375E+00
          2   -1    0    0  502    0  0.00000000000E+00  0.00000000000E+00  0.68016159758E+03  0.68016159758E+03  0.00000000000E+00 0.  1.
         -2   -1    0    0    0  501 -0.00000000000E+00 -0.00000000000E+00 -0.11957864190E+03  0.11957864190E+03  0.00000000000E+00 0. -1.
         23    2    1    2    0    0  0.19765925987E+02 -0.19226637735E+03  0.29413397964E+02  0.21652417029E+03  0.93061896865E+02 0.  0.
         23    2    1    2    0    0 -0.32971685461E+02  0.17476939309E+03  0.52255999531E+03  0.55966482492E+03  0.92327107356E+02 0.  0.
        -11    1    3    3    0    0  0.41594584056E+02 -0.14451599990E+03  0.52343689657E+02  0.15923204921E+03  0.00000000000E+00 0.  1.
         11    1    3    3    0    0 -0.21828658068E+02 -0.47750377455E+02 -0.22930291693E+02  0.57292121075E+02  0.00000000000E+00 0. -1.
        -13    1    4    4    0    0 -0.42682155195E+02  0.51612156432E+02  0.10792787203E+03  0.12701970959E+03  0.00000000000E+00 0. -1.
         13    1    4    4    0    0  0.97104697341E+01  0.12315723665E+03  0.41463212327E+03  0.43264511532E+03  0.00000000000E+00 0.  1.
         21    1    1    2  502  501  0.13205759474E+02  0.17496984269E+02  0.86095624126E+01  0.23551244272E+02  0.00000000000E+00 0. -1.
<scales pt_clust_5="13000.00000" pt_clust_6="13000.00000" pt_clust_7="13000.00000" pt_clust_8="13000.00000" pt_clust_9="21.92114"></scales>
<clustering>
<clus scale="   21.921">  2  9  1 -1</clus>
<clus scale="   92.327">  7  8 -1 -1</clus>
<clus scale="   93.062">  5  6 -1 -1</clus>
<clus scale="  202.576">  1  7  2 -1</clus>
<clus scale="  202.576">  1  5  2 -1</clus>
</clustering>
</event>
<event>
 9    1  0.1266593E-005  0.1670028E+03  0.7546771E-02  0.1181167E+00
         -3   -1    0    0    0  501 -0.00000000000E+00  0.00000000000E+00  0.79199626661E+03  0.79199626661E+03  0.00000000000E+00 0.  1.
          3   -1    0    0  502    0  0.00000000000E+00 -0.00000000000E+00 -0.10000607433E+03  0.10000607433E+03  0.00000000000E+00 0. -1.
         23    2    1    2    0    0  0.18422582961E+03 -0.34658562312E+00  0.13097991920E+03  0.24343768172E+03  0.90370842822E+02 0.  0.
         23    2    1    2    0    0 -0.10480672422E+03 -0.40490964624E+02  0.93087241349E+02  0.17219603783E+03  0.91445466176E+02 0.  0.
        -11    1    4    4    0    0 -0.29753820086E+02 -0.47017016244E+02  0.77268336336E+02  0.95217043781E+02  0.00000000000E+00 0.  1.
         11    1    4    4    0    0 -0.75052904136E+02  0.65260516206E+01  0.15818905012E+02  0.76978994049E+02  0.00000000000E+00 0. -1.
        -11    1    3    3    0    0  0.95050257546E+02 -0.39632090339E+02  0.93299673753E+02  0.13896072527E+03  0.00000000000E+00 0.  1.
         11    1    3    3    0    0  0.89175572060E+02  0.39285504716E+02  0.37680245448E+02  0.10447695645E+03  0.00000000000E+00 0. -1.
         21    1    1    2  502  501 -0.79419105384E+02  0.40837550247E+02  0.46792303173E+03  0.47636862138E+03  0.00000000000E+00 0.  1.
<scales pt_clust_5="13000.00000" pt_clust_6="13000.00000" pt_clust_7="13000.00000" pt_clust_8="13000.00000" pt_clust_9="89.30341"></scales>
<clustering>
<clus scale="   89.303">  1  9  2 -1</clus>
<clus scale="   90.371">  7  8 -1 -1</clus>
<clus scale="   91.445">  5  6 -1 -1</clus>
<clus scale="  166.417">  1  7  2 -1</clus>
<clus scale="  167.003">  2  5  1 -1</clus>
</clustering>
</event>
<event>
 9    1  0.1266593E-005  0.1079344E+03  0.7546771E-02  0.1271193E+00
          2   -1    0    0  502    0  0.00000000000E+00  0.00000000000E+00  0.41054819536E+03  0.41054819536E+03  0.00000000000E+00 0. -1.
         -2   -1    0    0    0  501 -0.00000000000E+00 -0.00000000000E+00 -0.73665869907E+02  0.73665869907E+02  0.00000000000E+00 0.  1.
         23    2    1    2    0    0  0.54222776541E+02  0.49573223760E+01  0.13593318252E+03  0.18109486059E+03  0.10654967800E+03 0.  0.
         23    2    1    2    0    0  0.30144956586E+01 -0.12292936583E+02  0.22249693015E+03  0.24152193446E+03  0.93100791748E+02 0.  0.
        -11    1    3    3    0    0  0.11255649492E+02  0.45912732173E+02  0.20976603313E+02  0.51717371430E+02  0.00000000000E+00 0.  1.
         11    1    3    3    0    0  0.42967127049E+02 -0.40955409797E+02  0.11495657920E+03  0.12937748916E+03  0.00000000000E+00 0. -1.
        -13    1    4    4    0    0 -0.69874743019E+01  0.38450123905E+02  0.66022568284E+02  0.76721681083E+02  0.00000000000E+00 0.  1.
         13    1    4    4    0    0  0.10001969961E+02 -0.50743060489E+02  0.15647436187E+03  0.16480025337E+03  0.00000000000E+00 0. -1.
         21    1    1    2  502  501 -0.57237272199E+02  0.73356142072E+01 -0.21547787217E+02  0.61597270220E+02  0.00000000000E+00 0.  1.
<scales pt_clust_5="13000.00000" pt_clust_6="13000.00000" pt_clust_7="13000.00000" pt_clust_8="13000.00000" pt_clust_9="57.70543"></scales>
<clustering>
<clus scale="   57.705">  2  9  1 -1</clus>
<clus scale="   93.101">  7  8 -1 -1</clus>
<clus scale="   94.682">  1  7  2 -1</clus>
<clus scale="  106.550">  5  6 -1 -1</clus>
<clus scale="   94.682">  1  5  2 -1</clus>
</clustering>
</event>
<event>
 9    1  0.1266593E-005  0.1087183E+03  0.7546771E-02  0.1265861E+00
         -2   -1    0    0    0  501 -0.00000000000E+00  0.00000000000E+00  0.20905481588E+03  0.20905481588E+03  0.00000000000E+00 0.  1.
          2   -1    0    0  502    0  0.00000000000E+00 -0.00000000000E+00 -0.89995606811E+03  0.89995606811E+03  0.00000000000E+00 0. -1.
         23    2    1    2    0    0 -0.17809107754E+02 -0.59926255911E+02 -0.33716841593E+03  0.35382698527E+03  0.87193315881E+02 0.  0.
         23    2    1    2    0    0 -0.26779769196E+02  0.49396698008E+02 -0.54632300224E+03  0.55721922624E+03  0.94166095264E+02 0.  0.
        -11    1    3    3    0    0 -0.26617271350E+02  0.14993214636E+02 -0.73933026072E+02  0.79996049674E+02  0.00000000000E+00 0. -1.
         11    1    3    3    0    0  0.88081635961E+01 -0.74919470546E+02 -0.26323538986E+03  0.27383093559E+03  0.00000000000E+00 0.  1.
        -13    1    4    4    0    0  0.21174873485E+02 -0.16993760867E+02 -0.16289886425E+03  0.16514600555E+03  0.00000000000E+00 0.  1.
         13    1    4    4    0    0 -0.47954642681E+02  0.66390458875E+02 -0.38342413799E+03  0.39207322069E+03  0.00000000000E+00 0. -1.
         21    1    1    2  502  501  0.44588876951E+02  0.10529557903E+02  0.19259016594E+03  0.19796467249E+03  0.00000000000E+00 0.  1.
<scales pt_clust_5="13000.00000" pt_clust_6="13000.00000" pt_clust_7="13000.00000" pt_clust_8="13000.00000" pt_clust_9="45.81528"></scales>
<clustering>
<clus scale="   45.815">  1  9  2 -1</clus>
<clus scale="   87.193">  5  6 -1 -1</clus>
<clus scale="   94.166">  7  8 -1 -1</clus>
<clus scale="  102.738">  1  5  2 -1</clus>
<clus scale="  108.718">  2  5  1 -1</clus>
</clustering>
</event>
<event>
 9    1  0.1338872E-005  0.3842401E+03  0.7546771E-02  0.1049520E+00
         -2   -1    0    0    0  501 -0.00000000000E+00  0.00000000000E+00  0.18207483326E+03  0.18207483326E+03  0.00000000000E+00 0.  1.
          2   -1    0    0  502    0  0.00000000000E+00 -0.00000000000E+00 -0.18343224051E+04  0.18343224051E+04  0.00000000000E+00 0. -1.
         23    2    1    2    0    0  0.31824089662E+03  0.19188210975E+03 -0.98535461927E+02  0.39372819221E+03  0.84950807862E+02 0.  0.
         23    2    1    2    0    0 -0.35613104820E+03 -0.14849962424E+03 -0.14578311287E+04  0.15108170627E+04  0.91734047041E+02 0.  0.
        -11    1    3    3    0    0  0.13642109936E+03  0.13121303390E+03 -0.41936925224E+02  0.19387181929E+03  0.00000000000E+00 0. -1.
         11    1    3    3    0    0  0.18181979726E+03  0.60669075851E+02 -0.56598536703E+02  0.19985637292E+03  0.00000000000E+00 0.  1.
        -11    1    4    4    0    0 -0.31816322538E+03 -0.15533560478E+03 -0.12383126467E+04  0.12879344700E+04  0.00000000000E+00 0.  1.
         11    1    4    4    0    0 -0.37967822812E+02  0.68359805355E+01 -0.21951848197E+03  0.22288259269E+03  0.00000000000E+00 0. -1.
         21    1    1    2  502  501  0.37890151573E+02 -0.43382485506E+02 -0.95880981257E+02  0.11185198345E+03  0.00000000000E+00 0. -1.
<scales pt_clust_5="13000.00000" pt_clust_6="13000.00000" pt_clust_7="13000.00000" pt_clust_8="13000.00000" pt_clust_9="57.59951"></scales>
<clustering>
<clus scale="   57.600">  2  9  1 -1</clus>
<clus scale="   84.951">  5  6 -1 -1</clus>
<clus scale="   91.734">  7  8 -1 -1</clus>
<clus scale="  382.677">  1  5  2 -1</clus>
<clus scale="   57.600">  2  5  1 -1</clus>
</clustering>
</event>
<event>
 9    1  0.1266593E-005  0.9727389E+02  0.7546771E-02  0.1288792E+00
         -4   -1    0    0    0  501 -0.00000000000E+00  0.00000000000E+00  0.31403120492E+03  0.31403120492E+03  0.00000000000E+00 0.  1.
          4   -1    0    0  502    0  0.00000000000E+00 -0.00000000000E+00 -0.76056247948E+02  0.76056247948E+02  0.00000000000E+00 0. -1.
         23    2    1    2    0    0 -0.18685564986E+02  0.35438105403E+02  0.68464451610E+02  0.12062082992E+03  0.90868002195E+02 0.  0.
         23    2    1    2    0    0  0.11874559165E+02  0.42341988792E+02  0.29847089651E+02  0.10946036513E+03  0.95691554502E+02 0.  0.
        -11    1    4    4    0    0 -0.24679841465E+02  0.47673284202E+02  0.44490668214E+02  0.69722709066E+02  0.00000000000E+00 0. -1.
         11    1    4    4    0    0  0.36554400630E+02 -0.53312954100E+01 -0.14643578563E+02  0.39737656062E+02  0.00000000000E+00 0.  1.
        -13    1    3    3    0    0 -0.68111907901E+01 -0.22429847669E+02  0.55349657536E+02  0.60108859378E+02  0.00000000000E+00 0.  1.
         13    1    3    3    0    0 -0.11874374196E+02  0.57867953072E+02  0.13114794074E+02  0.60511970542E+02  0.00000000000E+00 0. -1.
         21    1    1    2  502  501  0.68110058206E+01 -0.77780094196E+02  0.13966341571E+03  0.16000625782E+03  0.00000000000E+00 0.  1.
<scales pt_clust_5="13000.00000" pt_clust_6="13000.00000" pt_clust_7="13000.00000" pt_clust_8="13000.00000" pt_clust_9="78.07774"></scales>
<clustering>
<clus scale="   78.078">  1  9  2 -1</clus>
<clus scale="   90.868">  7  8 -1 -1</clus>
<clus scale="   92.533">  1  7  2 -1</clus>
<clus scale="   95.692">  5  6 -1 -1</clus>
<clus scale="   97.274">  2  5  1 -1</clus>
</clustering>
</event>
<event>
 9    1  0.1266593E-005  0.8997413E+02  0.7546771E-02  0.1315533E+00
         -2   -1    0    0    0  501 -0.00000000000E+00  0.00000000000E+00  0.76936715102E+02  0.76936715102E+02  0.00000000000E+00 0.  1.
          2   -1    0    0  502    0  0.00000000000E+00 -0.00000000000E+00 -0.16618121963E+03  0.16618121963E+03  0.00000000000E+00 0. -1.
         23    2    1    2    0    0  0.21561109284E+02 -0.79478164569E+01 -0.13497419905E+02  0.93603977871E+02  0.89730012310E+02 0.  0.
         23    2    1    2    0    0  0.15455319500E+02 -0.70697739234E+01 -0.81031853370E+02  0.10921913335E+03  0.71230676153E+02 0.  0.
        -13    1    3    3    0    0 -0.10240334468E+02  0.26755225760E+02 -0.32069676612E+02  0.43001984995E+02  0.00000000000E+00 0.  1.
         13    1    3    3    0    0  0.31801443752E+02 -0.34703042217E+02  0.18572256708E+02  0.50601992876E+02  0.00000000000E+00 0. -1.
        -13    1    4    4    0    0  0.39669288453E+02  0.11126091805E+02 -0.34702957335E+02  0.53867778987E+02  0.00000000000E+00 0.  1.
         13    1    4    4    0    0 -0.24213968953E+02 -0.18195865729E+02 -0.46328896035E+02  0.55351354364E+02  0.00000000000E+00 0. -1.
         21    1    1    2  502  501 -0.37016428783E+02  0.15017590380E+02  0.52847687492E+01  0.40294823507E+02  0.00000000000E+00 0. -1.
<scales pt_clust_5="13000.00000" pt_clust_6="13000.00000" pt_clust_7="13000.00000" pt_clust_8="13000.00000" pt_clust_9="39.94676"></scales>
<clustering>
<clus scale="   39.947">  1  9  2 -1</clus>
<clus scale="   71.231">  7  8 -1 -1</clus>
<clus scale="   71.538">  2  7  1 -1</clus>
<clus scale="   89.730">  5  6 -1 -1</clus>
<clus scale="   71.538">  2  5  1 -1</clus>
</clustering>
</event>
<event>
 9    1  0.1266593E-005  0.1924943E+03  0.7546771E-02  0.1158189E+00
         -1   -1    0    0    0  501 -0.00000000000E+00  0.00000000000E+00  0.15172109987E+03  0.15172109987E+03  0.00000000000E+00 0.  1.
          1   -1    0    0  502    0  0.00000000000E+00 -0.00000000000E+00 -0.34391178757E+03  0.34391178757E+03  0.00000000000E+00 0. -1.
         23    2    1    2    0    0 -0.25339940446E+02  0.17183785592E+03  0.13501375190E+02  0.19771470957E+03  0.93479719391E+02 0.  0.
         23    2    1    2    0    0  0.10972213123E+02 -0.15258728312E+03 -0.19696238431E+03  0.27235994183E+03  0.10946455431E+03 0.  0.
        -11    1    4    4    0    0  0.24686680253E+02  0.81776645551E+01 -0.19438080855E+02  0.32467604882E+02  0.00000000000E+00 0.  1.
         11    1    4    4    0    0 -0.13714467129E+02 -0.16076494768E+03 -0.17752430345E+03  0.23989233695E+03  0.00000000000E+00 0. -1.
        -11    1    3    3    0    0  0.33888008509E+02  0.38256550389E+02  0.48192014844E+01  0.51334057616E+02  0.00000000000E+00 0. -1.
         11    1    3    3    0    0 -0.59227948955E+02  0.13358130553E+03  0.86821737055E+01  0.14638065195E+03  0.00000000000E+00 0.  1.
         21    1    1    2  502  501  0.14367727322E+02 -0.19250572800E+02 -0.87296785831E+01  0.25558236044E+02  0.00000000000E+00 0.  1.
<scales pt_clust_5="13000.00000" pt_clust_6="13000.00000" pt_clust_7="13000.00000" pt_clust_8="13000.00000" pt_clust_9="24.02116"></scales>
<clustering>
<clus scale="   24.021">  1  9  2 -1</clus>
<clus scale="   93.480">  7  8 -1 -1</clus>
<clus scale="  109.465">  5  6 -1 -1</clus>
<clus scale="  183.875">  1  7  2 -1</clus>
<clus scale="  192.494">  2  5  1 -1</clus>
</clustering>
</event>
<event>
 9    1  0.1266593E-005  0.9675785E+02  0.7546771E-02  0.1287346E+00
          1   -1    0    0  502    0  0.00000000000E+00  0.00000000000E+00  0.12252452188E+03  0.12252452188E+03  0.00000000000E+00 0. -1.
         -1   -1    0    0    0  501 -0.00000000000E+00 -0.00000000000E+00 -0.41206511714E+03  0.41206511714E+03  0.00000000000E+00 0.  1.
         23    2    1    2    0    0 -0.48091864310E+01  0.10797405713E+02 -0.14444806405E+03  0.17115143656E+03  0.91037677829E+02 0.  0.
         23    2    1    2    0    0 -0.29186026513E+02  0.26039234847E+02  0.83468022393E+02  0.12944559733E+03  0.90881164225E+02 0.  0.
        -11    1    4    4    0    0  0.22761666991E+02 -0.14385559860E+01  0.63349590447E+02  0.67330034437E+02  0.00000000000E+00 0. -1.
         11    1    4    4    0    0 -0.51947693505E+02  0.27477790833E+02  0.20118431947E+02  0.62115562893E+02  0.00000000000E+00 0.  1.
        -11    1    3    3    0    0 -0.25789993942E+02 -0.32512813688E+02 -0.85616456399E+02  0.95144019506E+02  0.00000000000E+00 0.  1.
         11    1    3    3    0    0  0.20980807511E+02  0.43310219401E+02 -0.58831607650E+02  0.76007417053E+02  0.00000000000E+00 0. -1.
         21    1    1    2  502  501  0.33995212944E+02 -0.36836640560E+02 -0.22856055360E+03  0.23399260513E+03  0.00000000000E+00 0.  1.
<scales pt_clust_5="13000.00000" pt_clust_6="13000.00000" pt_clust_7="13000.00000" pt_clust_8="13000.00000" pt_clust_9="50.12597"></scales>
<clustering>
<clus scale="   50.126">  2  9  1 -1</clus>
<clus scale="   90.881">  5  6 -1 -1</clus>
<clus scale="   91.038">  7  8 -1 -1</clus>
<clus scale="   96.611">  1  5  2 -1</clus>
<clus scale="   96.611">  1  5  2 -1</clus>
</clustering>
</event>
<event>
 9    1  0.1266593E-005  0.9546595E+02  0.7546771E-02  0.1292342E+00
         -1   -1    0    0    0  501 -0.00000000000E+00  0.00000000000E+00  0.58712670965E+02  0.58712670965E+02  0.00000000000E+00 0.  1.
          1   -1    0    0  502    0  0.00000000000E+00 -0.00000000000E+00 -0.27408630567E+03  0.27408630567E+03  0.00000000000E+00 0. -1.
         23    2    1    2    0    0  0.14700293728E+02  0.31251312881E+01 -0.90355945420E+02  0.13227246761E+03  0.95425068679E+02 0.  0.
         23    2    1    2    0    0  0.48463767843E+01  0.29252743617E+01 -0.14522393143E+03  0.17176938890E+03  0.91557021066E+02 0.  0.
        -13    1    3    3    0    0  0.14961798913E+02 -0.25728501495E+02  0.71309218113E+01  0.30604922182E+02  0.00000000000E+00 0. -1.
         13    1    3    3    0    0 -0.26150518490E+00  0.28853632783E+02 -0.97486867232E+02  0.10166754542E+03  0.00000000000E+00 0.  1.
        -13    1    4    4    0    0 -0.42787875793E+02  0.57530512445E+01 -0.80634718393E+02  0.91465062859E+02  0.00000000000E+00 0.  1.
         13    1    4    4    0    0  0.47634252578E+02 -0.28277768828E+01 -0.64589213033E+02  0.80304326041E+02  0.00000000000E+00 0. -1.
         21    1    1    2  502  501 -0.19546670512E+02 -0.60504056498E+01  0.20206242142E+02  0.28757120129E+02  0.00000000000E+00 0.  1.
<scales pt_clust_5="13000.00000" pt_clust_6="13000.00000" pt_clust_7="13000.00000" pt_clust_8="13000.00000" pt_clust_9="20.46167"></scales>
<clustering>
<clus scale="   20.462">  1  9  2 -1</clus>
<clus scale="   91.557">  7  8 -1 -1</clus>
<clus scale="   91.600">  2  7  1 -1</clus>
<clus scale="   95.425">  5  6 -1 -1</clus>
<clus scale="   91.600">  2  5  1 -1</clus>
</clustering>
</event>
<event>
 9    1  0.1266593E-005  0.1068514E+03  0.7546771E-02  0.1266580E+00
         -1   -1    0    0    0  501 -0.00000000000E+00  0.00000000000E+00  0.44879953543E+02  0.44879953543E+02  0.00000000000E+00 0.  1.
          1   -1    0    0  502    0  0.00000000000E+00 -0.00000000000E+00 -0.38665899730E+03  0.38665899730E+03  0.00000000000E+00 0. -1.
         23    2    1    2    0    0  0.30255933700E+01 -0.74500996716E+02 -0.13753481847E+03  0.18138762204E+03  0.91793738403E+02 0.  0.
         23    2    1    2    0    0 -0.22670950544E+02  0.36935261383E+02 -0.15222616555E+03  0.18304690966E+03  0.91952053411E+02 0.  0.
        -11    1    3    3    0    0 -0.18293072120E+02 -0.39124344949E+02 -0.13299867422E+03  0.13983561134E+03  0.00000000000E+00 0. -1.
         11    1    3    3    0    0  0.21318665490E+02 -0.35376651767E+02 -0.45361442557E+01  0.41552010700E+02  0.00000000000E+00 0.  1.
        -13    1    4    4    0    0  0.26714138446E+02 -0.11890933355E+02 -0.26732192377E+02  0.39618803595E+02  0.00000000000E+00 0. -1.
         13    1    4    4    0    0 -0.49385088991E+02  0.48826194737E+02 -0.12549397317E+03  0.14342810607E+03  0.00000000000E+00 0.  1.
         21    1    1    2  502  501  0.19645357174E+02  0.37565735334E+02 -0.52018059727E+02  0.67104419135E+02  0.00000000000E+00 0.  1.
<scales pt_clust_5="13000.00000" pt_clust_6="13000.00000" pt_clust_7="13000.00000" pt_clust_8="13000.00000" pt_clust_9="42.39251"></scales>
<clustering>
<clus scale="   42.393">  1  9  2 -1</clus>
<clus scale="   91.794">  5  6 -1 -1</clus>
<clus scale="   91.952">  7  8 -1 -1</clus>
<clus scale="  106.715">  1  5  2 -1</clus>
<clus scale="  106.851">  2  5  1 -1</clus>
</clustering>
</event>
<event>
 9    1  0.1266593E-005  0.9777932E+02  0.7546771E-02  0.1285367E+00
         -1   -1    0    0    0  501 -0.00000000000E+00  0.00000000000E+00  0.25786406889E+03  0.25786406889E+03  0.00000000000E+00 0.  1.
          1   -1    0    0  502    0  0.00000000000E+00 -0.00000000000E+00 -0.64062346884E+02  0.64062346884E+02  0.00000000000E+00 0. -1.
         23    2    1    2    0    0  0.17149062486E+02 -0.93201062664E+00  0.14400206526E+03  0.17163599530E+03  0.91800659558E+02 0.  0.
         23    2    1    2    0    0 -0.39006459049E+02  0.16840031301E+01  0.36597635819E+01  0.99229662368E+02  0.91152577090E+02 0.  0.
        -11    1    3    3    0    0  0.14115003978E+02 -0.45539468390E+02  0.61707184490E+02  0.77979825187E+02  0.00000000000E+00 0.  1.
         11    1    3    3    0    0  0.30340585084E+01  0.44607457764E+02  0.82294880768E+02  0.93656170111E+02  0.00000000000E+00 0. -1.
        -13    1    4    4    0    0 -0.27439237493E+02  0.39030985829E+02 -0.21922612269E+02  0.52506480911E+02  0.00000000000E+00 0. -1.
         13    1    4    4    0    0 -0.11567221556E+02 -0.37346982699E+02  0.25582375851E+02  0.46723181456E+02  0.00000000000E+00 0.  1.
         21    1    1    2  502  501  0.21857396563E+02 -0.75199250344E+00  0.46139893171E+02  0.51060758113E+02  0.00000000000E+00 0. -1.
<scales pt_clust_5="13000.00000" pt_clust_6="13000.00000" pt_clust_7="13000.00000" pt_clust_8="13000.00000" pt_clust_9="21.87033"></scales>
<clustering>
<clus scale="   21.870">  1  9  2 -1</clus>
<clus scale="   91.153">  7  8 -1 -1</clus>
<clus scale="   91.801">  5  6 -1 -1</clus>
<clus scale="   97.171">  2  7  1 -1</clus>
<clus scale="   97.171">  2  5  1 -1</clus>
</clustering>
</event>
<event>
 9    1  0.1266593E-005  0.1066518E+03  0.7546771E-02  0.1267445E+00
         -2   -1    0    0    0  501 -0.00000000000E+00  0.00000000000E+00  0.17864075096E+03  0.17864075096E+03  0.00000000000E+00 0.  1.
          2   -1    0    0  502    0  0.00000000000E+00 -0.00000000000E+00 -0.98307361537E+02  0.98307361537E+02  0.00000000000E+00 0. -1.
         23    2    1    2    0    0  0.12677523214E+02  0.69839083082E+02  0.78639138973E+02  0.14101311369E+03  0.93071837491E+02 0.  0.
         23    2    1    2    0    0 -0.12584631907E+02 -0.42890076705E+02 -0.16513525745E+02  0.10341145829E+03  0.91778546152E+02 0.  0.
        -11    1    4    4    0    0 -0.41361653006E+02 -0.46940241053E+01  0.17052252878E+02  0.44984436530E+02  0.00000000000E+00 0.  1.
         11    1    4    4    0    0  0.28777021099E+02 -0.38196052600E+02 -0.33565778624E+02  0.58427021763E+02  0.00000000000E+00 0. -1.
        -11    1    3    3    0    0 -0.32614487477E+02  0.25389555891E+02  0.63509881742E+02  0.75774926068E+02  0.00000000000E+00 0.  1.
         11    1    3    3    0    0  0.45292010692E+02  0.44449527191E+02  0.15129257231E+02  0.65238187623E+02  0.00000000000E+00 0. -1.
         21    1    1    2  502  501 -0.92891307310E-01 -0.26949006377E+02  0.18207776193E+02  0.32523540511E+02  0.00000000000E+00 0.  1.
<scales pt_clust_5="13000.00000" pt_clust_6="13000.00000" pt_clust_7="13000.00000" pt_clust_8="13000.00000" pt_clust_9="26.94917"></scales>
<clustering>
<clus scale="   26.949">  1  9  2 -1</clus>
<clus scale="   91.779">  5  6 -1 -1</clus>
<clus scale="   93.072">  7  8 -1 -1</clus>
<clus scale="  105.525">  2  5  1 -1</clus>
<clus scale="  105.525">  2  5  1 -1</clus>
</clustering>
</event>
<event>
 9    1  0.1266593E-005  0.1201670E+03  0.7546771E-02  0.1246715E+00
          3   -1    0    0  502    0  0.00000000000E+00  0.00000000000E+00  0.19143372477E+03  0.19143372477E+03  0.00000000000E+00 0. -1.
         -3   -1    0    0    0  501 -0.00000000000E+00 -0.00000000000E+00 -0.21138845300E+03  0.21138845300E+03  0.00000000000E+00 0.  1.
         23    2    1    2    0    0  0.51402348521E+02  0.64641710929E+02 -0.13895438426E+03  0.18031611979E+03  0.79905130777E+02 0.  0.
         23    2    1    2    0    0 -0.26269222321E+02 -0.72342823084E+02  0.14315128092E+03  0.18680896922E+03  0.92096393308E+02 0.  0.
        -11    1    3    3    0    0 -0.20983330201E+02  0.78419713537E+01 -0.34290375835E+02  0.40958839534E+02  0.00000000000E+00 0. -1.
         11    1    3    3    0    0  0.72385678722E+02  0.56799739576E+02 -0.10466400842E+03  0.13935728025E+03  0.00000000000E+00 0.  1.
        -11    1    4    4    0    0 -0.17088630502E+02 -0.44450992046E+02  0.77363201445E+01  0.48246892498E+02  0.00000000000E+00 0.  1.
         11    1    4    4    0    0 -0.91805918191E+01 -0.27891831038E+02  0.13541496077E+03  0.13856207672E+03  0.00000000000E+00 0. -1.
         21    1    1    2  502  501 -0.25133126200E+02  0.77011121548E+01 -0.24151624890E+02  0.35697088759E+02  0.00000000000E+00 0. -1.
<scales pt_clust_5="13000.00000" pt_clust_6="13000.00000" pt_clust_7="13000.00000" pt_clust_8="13000.00000" pt_clust_9="26.28652"></scales>
<clustering>
<clus scale="   26.287">  2  9  1 -1</clus>
<clus scale="   79.905">  5  6 -1 -1</clus>
<clus scale="   92.096">  7  8 -1 -1</clus>
<clus scale="  111.100">  2  5  1 -1</clus>
<clus scale="  120.167">  1  5  2 -1</clus>
</clustering>
</event>
<event>
 9    1  0.1266593E-005  0.1636095E+03  0.7546771E-02  0.1186457E+00
          1   -1    0    0  502    0  0.00000000000E+00  0.00000000000E+00  0.91580973447E+03  0.91580973447E+03  0.00000000000E+00 0. -1.
         -1   -1    0    0    0  501 -0.00000000000E+00 -0.00000000000E+00 -0.45329069635E+02  0.45329069635E+02  0.00000000000E+00 0.  1.
         23    2    1    2    0    0  0.55435210515E+02 -0.15621428303E+03  0.37692432290E+03  0.42156931643E+03  0.90403421235E+02 0.  0.
         23    2    1    2    0    0 -0.28974353994E+02  0.10395039280E+03  0.42169943045E+03  0.44685968842E+03  0.10103451956E+03 0.  0.
        -13    1    3    3    0    0  0.26989867196E+01 -0.55403994313E+02  0.22517913718E+03  0.23191060979E+03  0.00000000000E+00 0. -1.
         13    1    3    3    0    0  0.52736223796E+02 -0.10081028872E+03  0.15174518573E+03  0.18965870664E+03  0.00000000000E+00 0.  1.
        -13    1    4    4    0    0 -0.49716977146E+01  0.11013951294E+03  0.39637650038E+03  0.41142406364E+03  0.00000000000E+00 0.  1.
         13    1    4    4    0    0 -0.24002656279E+02 -0.61891201357E+01  0.25322930072E+02  0.35435624786E+02  0.00000000000E+00 0. -1.
         21    1    1    2  502  501 -0.26460856522E+02  0.52263890229E+02  0.71856911484E+02  0.92709799255E+02  0.00000000000E+00 0. -1.
<scales pt_clust_5="13000.00000" pt_clust_6="13000.00000" pt_clust_7="13000.00000" pt_clust_8="13000.00000" pt_clust_9="58.58064"></scales>
<clustering>
<clus scale="   58.581">  2  9  1 -1</clus>
<clus scale="   90.403">  5  6 -1 -1</clus>
<clus scale="  101.035">  7  8 -1 -1</clus>
<clus scale="  157.267">  2  5  1 -1</clus>
<clus scale="  163.609">  1  5  2 -1</clus>
</clustering>
</event>
<event>
 9    1  0.1266593E-005  0.9320607E+02  0.7546771E-02  0.1295917E+00
          1   -1    0    0  502    0  0.00000000000E+00  0.00000000000E+00  0.82133605908E+02  0.82133605908E+02  0.00000000000E+00 0. -1.
         -1   -1    0    0    0  501 -0.00000000000E+00 -0.00000000000E+00 -0.42554999310E+03  0.42554999310E+03  0.00000000000E+00 0.  1.
         23    2    1    2    0    0  0.56086550558E+02 -0.51733341309E+00 -0.24131776601E+03  0.26380028871E+03  0.90611033235E+02 0.  0.
         23    2    1    2    0    0  0.36772396060E+01  0.24403463632E+02  0.29508123078E+02  0.97382139770E+02  0.89462286413E+02 0.  0.
        -11    1    3    3    0    0  0.78541872942E+02  0.12535142921E+02 -0.19672366887E+03  0.21219367924E+03  0.00000000000E+00 0.  1.
         11    1    3    3    0    0 -0.22455322384E+02 -0.13052476334E+02 -0.44594097139E+02  0.51606609474E+02  0.00000000000E+00 0. -1.
        -13    1    4    4    0    0 -0.21048211050E+01 -0.30595073464E+02 -0.65558782859E+01  0.31360298663E+02  0.00000000000E+00 0.  1.
         13    1    4    4    0    0  0.57820607110E+01  0.54998537096E+02  0.36064001364E+02  0.66021841107E+02  0.00000000000E+00 0. -1.
         21    1    1    2  502  501 -0.59763790164E+02 -0.23886130219E+02 -0.13160674425E+03  0.14650117052E+03  0.00000000000E+00 0.  1.
<scales pt_clust_5="13000.00000" pt_clust_6="13000.00000" pt_clust_7="13000.00000" pt_clust_8="13000.00000" pt_clust_9="64.36037"></scales>
<clustering>
<clus scale="   64.360">  2  9  1 -1</clus>
<clus scale="   89.462">  7  8 -1 -1</clus>
<clus scale="   90.611">  5  6 -1 -1</clus>
<clus scale="   92.090">  1  7  2 -1</clus>
<clus scale="   92.090">  1  5  2 -1</clus>
</clustering>
</event>
<event>
 9    1  0.1266593E-005  0.1305897E+03  0.7546771E-02  0.1226951E+00
          1   -1    0    0  502    0  0.00000000000E+00  0.00000000000E+00  0.13724832821E+03  0.13724832821E+03  0.00000000000E+00 0. -1.
         -1   -1    0    0    0  501 -0.00000000000E+00 -0.00000000000E+00 -0.25104389465E+03  0.25104389465E+03  0.00000000000E+00 0.  1.
         23    2    1    2    0    0  0.68013801126E+02 -0.90500386043E+01 -0.66918949806E+02  0.13278428634E+03  0.91900710074E+02 0.  0.
         23    2    1    2    0    0 -0.10368929847E+03  0.10008630931E+02  0.54253238548E+02  0.14826565187E+03  0.90485613879E+02 0.  0.
        -11    1    4    4    0    0 -0.29440888562E+02 -0.33551336142E+02  0.42045734654E+02  0.61321300368E+02  0.00000000000E+00 0.  1.
         11    1    4    4    0    0 -0.74248409913E+02  0.43559967073E+02  0.12207503893E+02  0.86944351498E+02  0.00000000000E+00 0. -1.
        -13    1    3    3    0    0  0.14083735806E+02  0.21111588452E+02 -0.66298556401E+02  0.70989783504E+02  0.00000000000E+00 0.  1.
         13    1    3    3    0    0  0.53930065320E+02 -0.30161627056E+02 -0.62039340494E+00  0.61794502831E+02  0.00000000000E+00 0. -1.
         21    1    1    2  502  501  0.35675497349E+02 -0.95859232707E+00 -0.10112985518E+03  0.10724228466E+03  0.00000000000E+00 0.  1.
<scales pt_clust_5="13000.00000" pt_clust_6="13000.00000" pt_clust_7="13000.00000" pt_clust_8="13000.00000" pt_clust_9="35.68837"></scales>
<clustering>
<clus scale="   35.688">  2  9  1 -1</clus>
<clus scale="   90.486">  5  6 -1 -1</clus>
<clus scale="   91.901">  7  8 -1 -1</clus>
<clus scale="  129.598">  1  5  2 -1</clus>
<clus scale="  129.598">  1  5  2 -1</clus>
</clustering>
</event>
<event>
 9    1  0.1266593E-005  0.1080165E+03  0.7546771E-02  0.1264495E+00
          2   -1    0    0  502    0  0.00000000000E+00  0.00000000000E+00  0.28987582513E+03  0.28987582513E+03  0.00000000000E+00 0. -1.
         -2   -1    0    0    0  501 -0.00000000000E+00 -0.00000000000E+00 -0.82767344808E+02  0.82767344808E+02  0.00000000000E+00 0.  1.
         23    2    1    2    0    0 -0.39893840173E+02 -0.30590744895E+02  0.84695351516E+02  0.13494722767E+03  0.92250417509E+02 0.  0.
         23    2    1    2    0    0  0.71645649880E+02 -0.26016818948E+02  0.12495411448E+03  0.17274172523E+03  0.91739843545E+02 0.  0.
        -11    1    4    4    0    0  0.13596200125E+02  0.33280014052E+02  0.43921374383E+02  0.56758286803E+02  0.00000000000E+00 0.  1.
         11    1    4    4    0    0  0.58049449755E+02 -0.59296833000E+02  0.81032740098E+02  0.11598343842E+03  0.00000000000E+00 0. -1.
        -13    1    3    3    0    0  0.13378072062E+02  0.15145757558E+02 -0.52149361610E+01  0.20870130408E+02  0.00000000000E+00 0.  1.
         13    1    3    3    0    0 -0.53271912235E+02 -0.45736502452E+02  0.89910287677E+02  0.11407709726E+03  0.00000000000E+00 0. -1.
         21    1    1    2  502  501 -0.31751809707E+02  0.56607563843E+02 -0.25409856695E+01  0.64954217046E+02  0.00000000000E+00 0. -1.
<scales pt_clust_5="13000.00000" pt_clust_6="13000.00000" pt_clust_7="13000.00000" pt_clust_8="13000.00000" pt_clust_9="64.90450"></scales>
<clustering>
<clus scale="   64.904">  2  9  1 -1</clus>
<clus scale="   91.740">  5  6 -1 -1</clus>
<clus scale="   92.250">  7  8 -1 -1</clus>
<clus scale="  107.581">  1  5  2 -1</clus>
<clus scale="  107.581">  1  5  2 -1</clus>
</clustering>
</event>
<event>
 9    1  0.1266593E-005  0.9277911E+02  0.7546771E-02  0.1296493E+00
          2   -1    0    0  502    0  0.00000000000E+00  0.00000000000E+00  0.97676417814E+02  0.97676417814E+02  0.00000000000E+00 0. -1.
         -2   -1    0    0    0  501 -0.00000000000E+00 -0.00000000000E+00 -0.18745065428E+03  0.18745065428E+03  0.00000000000E+00 0.  1.
         23    2    1    2    0    0 -0.30614495625E+02  0.63464610116E+01 -0.47752031696E+02  0.10773769700E+03  0.91376309372E+02 0.  0.
         23    2    1    2    0    0  0.93045680415E+01  0.84157645037E+01  0.33339932734E+02  0.97693151312E+02  0.90967030401E+02 0.  0.
        -11    1    4    4    0    0  0.17372021531E+02 -0.33149258119E+02  0.40060417011E+02  0.54822417468E+02  0.00000000000E+00 0. -1.
         11    1    4    4    0    0 -0.80674534896E+01  0.41565022623E+02 -0.67204842776E+01  0.42870733844E+02  0.00000000000E+00 0.  1.
        -11    1    3    3    0    0 -0.39456654204E+02  0.43252986916E+02 -0.26820132213E+02  0.64396955907E+02  0.00000000000E+00 0.  1.
         11    1    3    3    0    0  0.88421585794E+01 -0.36906525905E+02 -0.20931899483E+02  0.43340741095E+02  0.00000000000E+00 0. -1.
         21    1    1    2  502  501  0.21309927583E+02 -0.14762225515E+02 -0.75362137507E+02  0.79696223783E+02  0.00000000000E+00 0. -1.
<scales pt_clust_5="13000.00000" pt_clust_6="13000.00000" pt_clust_7="13000.00000" pt_clust_8="13000.00000" pt_clust_9="25.92366"></scales>
<clustering>
<clus scale="   25.924">  2  9  1 -1</clus>
<clus scale="   90.967">  5  6 -1 -1</clus>
<clus scale="   91.376">  7  8 -1 -1</clus>
<clus scale="   92.376">  1  5  2 -1</clus>
<clus scale="   92.376">  1  5  2 -1</clus>
</clustering>
</event>
<event>
 9    1  0.1266593E-005  0.9966906E+02  0.7546771E-02  0.1282390E+00
         -1   -1    0    0    0  501 -0.00000000000E+00  0.00000000000E+00  0.16597812842E+02  0.16597812842E+02  0.00000000000E+00 0.  1.
          1   -1    0    0  502    0  0.00000000000E+00 -0.00000000000E+00 -0.78399534445E+03  0.78399534445E+03  0.00000000000E+00 0. -1.
         23    2    1    2    0    0  0.40435156211E+02 -0.25652459868E+02 -0.30270511127E+03  0.31872102074E+03  0.87519449946E+02 0.  0.
         23    2    1    2    0    0 -0.18986109976E+02  0.35354358108E+02 -0.41846936523E+03  0.42999960781E+03  0.90402710558E+02 0.  0.
        -11    1    3    3    0    0  0.61713811950E+02  0.51017726323E+01 -0.17388942211E+03  0.18458643989E+03  0.00000000000E+00 0. -1.
         11    1    3    3    0    0 -0.21278655739E+02 -0.30754232501E+02 -0.12881568915E+03  0.13413458085E+03  0.00000000000E+00 0.  1.
        -13    1    4    4    0    0 -0.14376760567E+02  0.65477772217E+02 -0.31895482431E+03  0.32592362579E+03  0.00000000000E+00 0. -1.
         13    1    4    4    0    0 -0.46093494091E+01 -0.30123414109E+02 -0.99514540920E+02  0.10407598202E+03  0.00000000000E+00 0.  1.
         21    1    1    2  502  501 -0.21449046235E+02 -0.97018982399E+01 -0.46223055112E+02  0.51872528739E+02  0.00000000000E+00 0.  1.
<scales pt_clust_5="13000.00000" pt_clust_6="13000.00000" pt_clust_7="13000.00000" pt_clust_8="13000.00000" pt_clust_9="23.54121"></scales>
<clustering>
<clus scale="   23.541">  1  9  2 -1</clus>
<clus scale="   87.519">  5  6 -1 -1</clus>
<clus scale="   90.403">  7  8 -1 -1</clus>
<clus scale="   97.061">  1  5  2 -1</clus>
<clus scale="   99.669">  2  5  1 -1</clus>
</clustering>
</event>
<event>
 9    1  0.1775333E-005  0.1641854E+03  0.7546771E-02  0.1184386E+00
         -1   -1    0    0    0  501 -0.00000000000E+00  0.00000000000E+00  0.24476646303E+03  0.24476646303E+03  0.00000000000E+00 0.  1.
          1   -1    0    0  502    0  0.00000000000E+00 -0.00000000000E+00 -0.35184643950E+03  0.35184643950E+03  0.00000000000E+00 0. -1.
         23    2    1    2    0    0  0.55765703289E+02  0.10697305734E+03  0.15877316352E+03  0.21912735570E+03  0.90856105466E+02 0.  0.
         23    2    1    2    0    0 -0.78112916714E+02 -0.11261632708E+03 -0.29620311665E+03  0.33937563311E+03  0.93034773863E+02 0.  0.
        -13    1    3    3    0    0 -0.24809947498E+02  0.34552379783E+02  0.49187595103E+02  0.65029377635E+02  0.00000000000E+00 0. -1.
         13    1    3    3    0    0  0.80575650787E+02  0.72420677554E+02  0.10958556842E+03  0.15409797806E+03  0.00000000000E+00 0.  1.
        -13    1    4    4    0    0 -0.89197427246E+02 -0.75439476978E+02 -0.26494012373E+03  0.28955235257E+03  0.00000000000E+00 0. -1.
         13    1    4    4    0    0  0.11084510532E+02 -0.37176850102E+02 -0.31262992924E+02  0.49823280540E+02  0.00000000000E+00 0.  1.
         21    1    1    2  502  501  0.22347213424E+02  0.56432697425E+01  0.30349976664E+02  0.38109913733E+02  0.00000000000E+00 0. -1.
<scales pt_clust_5="13000.00000" pt_clust_6="13000.00000" pt_clust_7="13000.00000" pt_clust_8="13000.00000" pt_clust_9="23.04874"></scales>
<clustering>
<clus scale="   23.049">  1  9  2 -1</clus>
<clus scale="   90.856">  5  6 -1 -1</clus>
<clus scale="   93.035">  7  8 -1 -1</clus>
<clus scale="  162.961">  1  5  2 -1</clus>
<clus scale="  164.185">  2  5  1 -1</clus>
</clustering>
</event>
<event>
 9    1  0.1266593E-005  0.1429429E+03  0.7546771E-02  0.1210670E+00
          1   -1    0    0  502    0  0.00000000000E+00  0.00000000000E+00  0.35032941610E+03  0.35032941610E+03  0.00000000000E+00 0. -1.
         -1   -1    0    0    0  501 -0.00000000000E+00 -0.00000000000E+00 -0.11181300126E+03  0.11181300126E+03  0.00000000000E+00 0.  1.
         23    2    1    2    0    0 -0.87766797027E+02  0.99732930075E+02  0.94647887979E+02  0.18677751404E+03  0.90983234993E+02 0.  0.
         23    2    1    2    0    0  0.63713790205E+02 -0.66450517986E+02  0.17764463986E+03  0.22219449895E+03  0.96631562601E+02 0.  0.
        -11    1    3    3    0    0 -0.33210614415E+02 -0.10057383676E+02  0.38815290573E+02  0.52064600819E+02  0.00000000000E+00 0. -1.
         11    1    3    3    0    0 -0.54556182612E+02  0.10979031375E+03  0.55832597406E+02  0.13471291322E+03  0.00000000000E+00 0.  1.
        -11    1    4    4    0    0  0.65439144263E+02 -0.60384046912E+01  0.55907844620E+02  0.86281116260E+02  0.00000000000E+00 0.  1.
         11    1    4    4    0    0 -0.17253540583E+01 -0.60412113294E+02  0.12173679524E+03  0.13591338269E+03  0.00000000000E+00 0. -1.
         21    1    1    2  502  501  0.24053006822E+02 -0.33282412089E+02 -0.33776112998E+02  0.53170404370E+02  0.00000000000E+00 0. -1.
<scales pt_clust_5="13000.00000" pt_clust_6="13000.00000" pt_clust_7="13000.00000" pt_clust_8="13000.00000" pt_clust_9="41.06417"></scales>
<clustering>
<clus scale="   41.064">  2  9  1 -1</clus>
<clus scale="   90.983">  5  6 -1 -1</clus>
<clus scale="   96.632">  7  8 -1 -1</clus>
<clus scale="  139.187">  2  5  1 -1</clus>
<clus scale="  142.943">  1  5  2 -1</clus>
</clustering>
</event>
<event>
 9    1  0.1266593E-005  0.1614521E+03  0.7546771E-02  0.1189560E+00
          1   -1    0    0  502    0  0.00000000000E+00  0.00000000000E+00  0.27104268910E+03  0.27104268910E+03  0.00000000000E+00 0. -1.
         -1   -1    0    0    0  501 -0.00000000000E+00 -0.00000000000E+00 -0.15506687981E+03  0.15506687981E+03  0.00000000000E+00 0.  1.
         23    2    1    2    0    0 -0.14278891965E+03  0.39863901077E+02  0.19524043542E+02  0.17575170743E+03  0.92356202844E+02 0.  0.
         23    2    1    2    0    0  0.10706321814E+03 -0.23912861104E+02  0.12871570972E+03  0.19964569820E+03  0.10609577409E+03 0.  0.
        -11    1    4    4    0    0  0.11646164712E+03 -0.48516138000E+02  0.10352628486E+03  0.16320178478E+03  0.00000000000E+00 0. -1.
         11    1    4    4    0    0 -0.93984289854E+01  0.24603276896E+02  0.25189424855E+02  0.36443913428E+02  0.00000000000E+00 0.  1.
        -13    1    3    3    0    0 -0.41438098797E+02 -0.64595111971E+01  0.44924884206E+02  0.61458006295E+02  0.00000000000E+00 0. -1.
         13    1    3    3    0    0 -0.10135082085E+03  0.46323412274E+02 -0.25400840664E+02  0.11429370113E+03  0.00000000000E+00 0.  1.
         21    1    1    2  502  501  0.35725701510E+02 -0.15951039972E+02 -0.32263943965E+02  0.50712163282E+02  0.00000000000E+00 0.  1.
<scales pt_clust_5="13000.00000" pt_clust_6="13000.00000" pt_clust_7="13000.00000" pt_clust_8="13000.00000" pt_clust_9="39.12495"></scales>
<clustering>
<clus scale="   39.125">  2  9  1 -1</clus>
<clus scale="   92.356">  7  8 -1 -1</clus>
<clus scale="  106.096">  5  6 -1 -1</clus>
<clus scale="  152.775">  2  7  1 -1</clus>
<clus scale="  161.452">  1  5  2 -1</clus>
</clustering>
</event>
<event>
 9    1  0.1266593E-005  0.2766964E+03  0.7546771E-02  0.1097591E+00
          2   -1    0    0  502    0  0.00000000000E+00  0.00000000000E+00  0.11629685510E+04  0.11629685510E+04  0.00000000000E+00 0. -1.
         -2   -1    0    0    0  501 -0.00000000000E+00 -0.00000000000E+00 -0.12436550571E+03  0.12436550571E+03  0.00000000000E+00 0.  1.
         23    2    1    2    0    0  0.12262028481E+03 -0.19872491832E+03  0.20435345586E+03  0.32379764523E+03  0.92505420004E+02 0.  0.
         23    2    1    2    0    0 -0.98070318062E+02  0.25446476533E+03  0.85275492226E+03  0.89988047102E+03  0.90685172982E+02 0.  0.
        -13    1    4    4    0    0 -0.44030017381E+02  0.10115056146E+03  0.21395817368E+03  0.24072427920E+03  0.00000000000E+00 0.  1.
         13    1    4    4    0    0 -0.54040300682E+02  0.15331420386E+03  0.63879674859E+03  0.65915619182E+03  0.00000000000E+00 0. -1.
        -13    1    3    3    0    0  0.10297443660E+03 -0.16250022749E+03  0.11185410395E+03  0.22253404031E+03  0.00000000000E+00 0.  1.
         13    1    3    3    0    0  0.19645848208E+02 -0.36224690823E+02  0.92499351912E+02  0.10126360492E+03  0.00000000000E+00 0. -1.
         21    1    1    2  502  501 -0.24549966743E+02 -0.55739847010E+02 -0.18505332841E+02  0.63655940456E+02  0.00000000000E+00 0.  1.
<scales pt_clust_5="13000.00000" pt_clust_6="13000.00000" pt_clust_7="13000.00000" pt_clust_8="13000.00000" pt_clust_9="60.90674"></scales>
<clustering>
<clus scale="   60.907">  2  9  1 -1</clus>
<clus scale="   90.685">  5  6 -1 -1</clus>
<clus scale="   92.505">  7  8 -1 -1</clus>
<clus scale="  276.093">  1  5  2 -1</clus>
<clus scale="  276.093">  1  5  2 -1</clus>
</clustering>
</event>
<event>
 9    1  0.1266593E-005  0.1033763E+03  0.7546771E-02  0.1274989E+00
          1   -1    0    0  502    0  0.00000000000E+00  0.00000000000E+00  0.11151236035E+03  0.11151236035E+03  0.00000000000E+00 0. -1.
         -1   -1    0    0    0  501 -0.00000000000E+00 -0.00000000000E+00 -0.19806338447E+03  0.19806338447E+03  0.00000000000E+00 0.  1.
         23    2    1    2    0    0  0.60305536861E+02  0.22577190255E+02 -0.11903156944E+03  0.16251474038E+03  0.89977991875E+02 0.  0.
         23    2    1    2    0    0 -0.39796502653E+02 -0.29121525103E+01  0.50378490826E+02  0.11348019672E+03  0.93528180004E+02 0.  0.
        -13    1    4    4    0    0  0.52014704613E+01  0.34961539086E+02  0.40645859338E+02  0.53865112935E+02  0.00000000000E+00 0.  1.
         13    1    4    4    0    0 -0.44997973114E+02 -0.37873691596E+02  0.97326314888E+01  0.59615083789E+02  0.00000000000E+00 0. -1.
        -13    1    3    3    0    0  0.60476972101E+02  0.48079350198E+02 -0.58748519764E+02  0.97059139933E+02  0.00000000000E+00 0.  1.
         13    1    3    3    0    0 -0.17143524053E+00 -0.25502159943E+02 -0.60283049674E+02  0.65455600446E+02  0.00000000000E+00 0. -1.
         21    1    1    2  502  501 -0.20509034208E+02 -0.19665037745E+02 -0.17897945506E+02  0.33580807718E+02  0.00000000000E+00 0. -1.
<scales pt_clust_5="13000.00000" pt_clust_6="13000.00000" pt_clust_7="13000.00000" pt_clust_8="13000.00000" pt_clust_9="28.41363"></scales>
<clustering>
<clus scale="   28.414">  2  9  1 -1</clus>
<clus scale="   89.978">  7  8 -1 -1</clus>
<clus scale="   93.528">  5  6 -1 -1</clus>
<clus scale="  100.176">  2  7  1 -1</clus>
<clus scale="  103.376">  1  5  2 -1</clus>
</clustering>
</event>
<event>
 9    1  0.1266593E-005  0.1490660E+03  0.7546771E-02  0.1221657E+00
         -2   -1    0    0    0  501 -0.00000000000E+00  0.00000000000E+00  0.55633736167E+02  0.55633736167E+02  0.00000000000E+00 0.  1.
          2   -1    0    0  502    0  0.00000000000E+00 -0.00000000000E+00 -0.68310374017E+03  0.68310374017E+03  0.00000000000E+00 0. -1.
         23    2    1    2    0    0 -0.53129994992E+01  0.29621512938E+02 -0.10716816193E+03  0.14474960963E+03  0.92529846872E+02 0.  0.
         23    2    1    2    0    0 -0.62321839797E+01 -0.12725842630E+03 -0.43876625925E+03  0.46626038580E+03  0.93001988865E+02 0.  0.
        -11    1    3    3    0    0  0.38589750819E+02  0.44864198983E+01 -0.19348623798E+02  0.43401222041E+02  0.00000000000E+00 0.  1.
         11    1    3    3    0    0 -0.43902750319E+02  0.25135093040E+02 -0.87819538135E+02  0.10134838758E+03  0.00000000000E+00 0. -1.
        -13    1    4    4    0    0 -0.37753869584E+02 -0.10326529465E+03 -0.24581263655E+03  0.26928224604E+03  0.00000000000E+00 0. -1.
         13    1    4    4    0    0  0.31521685605E+02 -0.23993131652E+02 -0.19295362270E+03  0.19697813976E+03  0.00000000000E+00 0.  1.
         21    1    1    2  502  501  0.11545183479E+02  0.97636913366E+02 -0.81535582828E+02  0.12772748091E+03  0.00000000000E+00 0.  1.
<scales pt_clust_5="13000.00000" pt_clust_6="13000.00000" pt_clust_7="13000.00000" pt_clust_8="13000.00000" pt_clust_9="116.49587"></scales>
<clustering>
<clus scale="   92.530">  5  6 -1 -1</clus>
<clus scale="   93.002">  7  8 -1 -1</clus>
<clus scale="   97.301">  1  5  2 -1</clus>
<clus scale="  116.496">  1  9  2 -1</clus>
<clus scale="  149.066">  2  5  1 -1</clus>
</clustering>
</event>
<event>
 9    1  0.1266593E-005  0.1136709E+03  0.7546771E-02  0.1255611E+00
         -2   -1    0    0    0  501 -0.00000000000E+00  0.00000000000E+00  0.19790178195E+02  0.19790178195E+02  0.00000000000E+00 0.  1.
          2   -1    0    0  502    0  0.00000000000E+00 -0.00000000000E+00 -0.81786828540E+03  0.81786828540E+03  0.00000000000E+00 0. -1.
         23    2    1    2    0    0 -0.69535638592E+02  0.13244017187E+02 -0.33816129253E+03  0.35605080121E+03  0.86072668466E+02 0.  0.
         23    2    1    2    0    0  0.57243949772E+02 -0.38218132117E+02 -0.39148616411E+03  0.40773245701E+03  0.90812137982E+02 0.  0.
        -11    1    3    3    0    0  0.19547222929E+02 -0.57054474832E+01 -0.60928416118E+02  0.64241092346E+02  0.00000000000E+00 0. -1.
         11    1    3    3    0    0 -0.89082861521E+02  0.18949464670E+02 -0.27723287641E+03  0.29180970887E+03  0.00000000000E+00 0.  1.
        -11    1    4    4    0    0  0.60699995964E+02  0.13217205033E+02 -0.22795735260E+03  0.23627047768E+03  0.00000000000E+00 0. -1.
         11    1    4    4    0    0 -0.34560461911E+01 -0.51435337151E+02 -0.16352881151E+03  0.17146197933E+03  0.00000000000E+00 0.  1.
         21    1    1    2  502  501  0.12291688820E+02  0.24974114930E+02 -0.68430650567E+02  0.73875205364E+02  0.00000000000E+00 0.  1.
<scales pt_clust_5="13000.00000" pt_clust_6="13000.00000" pt_clust_7="13000.00000" pt_clust_8="13000.00000" pt_clust_9="27.83509"></scales>
<clustering>
<clus scale="   27.835">  1  9  2 -1</clus>
<clus scale="   86.073">  5  6 -1 -1</clus>
<clus scale="   90.812">  7  8 -1 -1</clus>
<clus scale="  109.921">  1  5  2 -1</clus>
<clus scale="  113.671">  2  5  1 -1</clus>
</clustering>
</event>
<event>
 9    1  0.1266593E-005  0.1269701E+03  0.7546771E-02  0.1232114E+00
         -2   -1    0    0    0  501 -0.00000000000E+00  0.00000000000E+00  0.16166781486E+03  0.16166781486E+03  0.00000000000E+00 0.  1.
          2   -1    0    0  502    0  0.00000000000E+00 -0.00000000000E+00 -0.22302309542E+03  0.22302309542E+03  0.00000000000E+00 0. -1.
         23    2    1    2    0    0  0.38071258944E+02  0.10951836321E+03  0.35777386468E+02  0.15166011235E+03  0.90978435117E+02 0.  0.
         23    2    1    2    0    0 -0.42536697562E+02 -0.69643553625E+02 -0.13186559855E+03  0.17996181345E+03  0.91313323338E+02 0.  0.
        -13    1    4    4    0    0 -0.66692691187E+02 -0.63790743566E+02 -0.78758830939E+02  0.12132653244E+03  0.00000000000E+00 0. -1.
         13    1    4    4    0    0  0.24155993625E+02 -0.58528100588E+01 -0.53106767608E+02  0.58635281013E+02  0.00000000000E+00 0.  1.
        -13    1    3    3    0    0  0.63102707101E+02  0.49044334834E+02  0.72027524859E+01  0.80244489320E+02  0.00000000000E+00 0.  1.
         13    1    3    3    0    0 -0.25031448158E+02  0.60474028379E+02  0.28574633982E+02  0.71415623028E+02  0.00000000000E+00 0. -1.
         21    1    1    2  502  501  0.44654386182E+01 -0.39874809588E+02  0.34732931525E+02  0.53068984483E+02  0.00000000000E+00 0. -1.
<scales pt_clust_5="13000.00000" pt_clust_6="13000.00000" pt_clust_7="13000.00000" pt_clust_8="13000.00000" pt_clust_9="40.12406"></scales>
<clustering>
<clus scale="   40.124">  1  9  2 -1</clus>
<clus scale="   90.978">  7  8 -1 -1</clus>
<clus scale="   91.313">  5  6 -1 -1</clus>
<clus scale="  126.730">  1  7  2 -1</clus>
<clus scale="  126.970">  2  5  1 -1</clus>
</clustering>
</event>
<event>
 9    1  0.1266593E-005  0.9654838E+02  0.7546771E-02  0.1287733E+00
         -1   -1    0    0    0  501 -0.00000000000E+00  0.00000000000E+00  0.87441716283E+02  0.87441716283E+02  0.00000000000E+00 0.  1.
          1   -1    0    0  502    0  0.00000000000E+00 -0.00000000000E+00 -0.15777192304E+03  0.15777192304E+03  0.00000000000E+00 0. -1.
         23    2    1    2    0    0 -0.17804621162E+02  0.31665308544E+02 -0.31755587634E+02  0.10315440274E+03  0.91174103557E+02 0.  0.
         23    2    1    2    0    0 -0.57696076213E+01 -0.31270327940E+02 -0.57015581247E+02  0.11212648936E+03  0.91161676869E+02 0.  0.
        -13    1    3    3    0    0  0.32595831943E+02  0.97537816712E+01  0.84533617256E+01  0.35058292049E+02  0.00000000000E+00 0.  1.
         13    1    3    3    0    0 -0.50400453104E+02  0.21911526873E+02 -0.40208949360E+02  0.68096110694E+02  0.00000000000E+00 0. -1.
        -13    1    4    4    0    0  0.42275758855E+02 -0.20934081438E+02 -0.24071749608E+02  0.52961539646E+02  0.00000000000E+00 0.  1.
         13    1    4    4    0    0 -0.48045366476E+02 -0.10336246502E+02 -0.32943831638E+02  0.59164949714E+02  0.00000000000E+00 0. -1.
         21    1    1    2  502  501  0.23574228783E+02 -0.39498060436E+00  0.18440962121E+02  0.29932747224E+02  0.00000000000E+00 0.  1.
<scales pt_clust_5="13000.00000" pt_clust_6="13000.00000" pt_clust_7="13000.00000" pt_clust_8="13000.00000" pt_clust_9="23.57754"></scales>
<clustering>
<clus scale="   23.578">  1  9  2 -1</clus>
<clus scale="   91.162">  7  8 -1 -1</clus>
<clus scale="   91.174">  5  6 -1 -1</clus>
<clus scale="   96.537">  2  7  1 -1</clus>
<clus scale="   96.537">  2  5  1 -1</clus>
</clustering>
</event>
<event>
 9    1  0.1266593E-005  0.1028795E+03  0.7546771E-02  0.1274573E+00
         -3   -1    0    0    0  501 -0.00000000000E+00  0.00000000000E+00  0.18633864361E+03  0.18633864361E+03  0.00000000000E+00 0.  1.
          3   -1    0    0  502    0  0.00000000000E+00 -0.00000000000E+00 -0.21456628530E+03  0.21456628530E+03  0.00000000000E+00 0. -1.
         23    2    1    2    0    0 -0.59919838560E+02  0.19198612243E+02 -0.22598558444E+02  0.11297358528E+03  0.91067899740E+02 0.  0.
         23    2    1    2    0    0  0.41416879059E+02  0.22217146919E+02 -0.12433676478E+03  0.16085208383E+03  0.90580363818E+02 0.  0.
        -11    1    4    4    0    0  0.35101037668E+02  0.49128317594E+02 -0.40828900629E+02  0.72888089299E+02  0.00000000000E+00 0.  1.
         11    1    4    4    0    0  0.63158413909E+01 -0.26911170675E+02 -0.83507864147E+02  0.87963994531E+02  0.00000000000E+00 0. -1.
        -13    1    3    3    0    0 -0.31501183918E+02  0.51899058545E+02  0.60847061934E+01  0.61015248222E+02  0.00000000000E+00 0.  1.
         13    1    3    3    0    0 -0.28418654643E+02 -0.32700446302E+02 -0.28683264637E+02  0.51958337062E+02  0.00000000000E+00 0. -1.
         21    1    1    2  502  501  0.18502959501E+02 -0.41415759163E+02  0.11870768153E+03  0.12707925980E+03  0.00000000000E+00 0.  1.
<scales pt_clust_5="13000.00000" pt_clust_6="13000.00000" pt_clust_7="13000.00000" pt_clust_8="13000.00000" pt_clust_9="45.36105"></scales>
<clustering>
<clus scale="   45.361">  1  9  2 -1</clus>
<clus scale="   90.580">  5  6 -1 -1</clus>
<clus scale="   91.068">  7  8 -1 -1</clus>
<clus scale="  102.448">  2  5  1 -1</clus>
<clus scale="  102.448">  2  5  1 -1</clus>
</clustering>
</event>
<event>
 9    1  0.1266593E-005  0.9845915E+02  0.7546771E-02  0.1283810E+00
         -1   -1    0    0    0  501 -0.00000000000E+00  0.00000000000E+00  0.21211651886E+02  0.21211651886E+02  0.00000000000E+00 0.  1.
          1   -1    0    0  502    0  0.00000000000E+00 -0.00000000000E+00 -0.75514418352E+03  0.75514418352E+03  0.00000000000E+00 0. -1.
         23    2    1    2    0    0 -0.35029119046E+02  0.65076007156E+01 -0.21717413757E+03  0.23784129368E+03  0.90191390402E+02 0.  0.
         23    2    1    2    0    0  0.38565265016E+02  0.15543973095E+02 -0.50183600436E+03  0.51165464690E+03  0.90676389714E+02 0.  0.
        -13    1    3    3    0    0  0.28768249706E+02 -0.66437867436E+01 -0.45662954943E+02  0.54376994654E+02  0.00000000000E+00 0.  1.
         13    1    3    3    0    0 -0.63797368752E+02  0.13151387459E+02 -0.17151118263E+03  0.18346429903E+03  0.00000000000E+00 0. -1.
        -13    1    4    4    0    0  0.52574554850E+02 -0.23874926358E+02 -0.30599246521E+03  0.31139281413E+03  0.00000000000E+00 0.  1.
         13    1    4    4    0    0 -0.14009289833E+02  0.39418899452E+02 -0.19584353915E+03  0.20026183277E+03  0.00000000000E+00 0. -1.
         21    1    1    2  502  501 -0.35361459700E+01 -0.22051573810E+02 -0.14922389707E+02  0.26859894832E+02  0.00000000000E+00 0.  1.
<scales pt_clust_5="13000.00000" pt_clust_6="13000.00000" pt_clust_7="13000.00000" pt_clust_8="13000.00000" pt_clust_9="22.33330"></scales>
<clustering>
<clus scale="   22.333">  1  9  2 -1</clus>
<clus scale="   90.191">  5  6 -1 -1</clus>
<clus scale="   90.676">  7  8 -1 -1</clus>
<clus scale="   98.013">  1  5  2 -1</clus>
<clus scale="   98.459">  2  5  1 -1</clus>
</clustering>
</event>
<event>
 9    1  0.1266593E-005  0.9364947E+02  0.7546771E-02  0.1296646E+00
          1   -1    0    0  502    0  0.00000000000E+00  0.00000000000E+00  0.35733695645E+03  0.35733695645E+03  0.00000000000E+00 0. -1.
         -1   -1    0    0    0  501 -0.00000000000E+00 -0.00000000000E+00 -0.11925191531E+03  0.11925191531E+03  0.00000000000E+00 0.  1.
         23    2    1    2    0    0 -0.37961183280E+02 -0.29662278132E+02 -0.37611525993E+02  0.10946978407E+03  0.90819075955E+02 0.  0.
         23    2    1    2    0    0  0.95915921842E+01  0.18685486167E+02  0.30924716627E+03  0.32183149156E+03  0.86605733538E+02 0.  0.
        -11    1    4    4    0    0  0.39397544174E+02 -0.16626136533E+02  0.15781368896E+03  0.16350460338E+03  0.00000000000E+00 0.  1.
         11    1    4    4    0    0 -0.29805951990E+02  0.35311622700E+02  0.15143347730E+03  0.15832688818E+03  0.00000000000E+00 0. -1.
        -13    1    3    3    0    0 -0.53206451351E+02 -0.51394295434E+02 -0.37469505520E+02  0.82923241088E+02  0.00000000000E+00 0.  1.
         13    1    3    3    0    0  0.15245268072E+02  0.21732017302E+02 -0.14202047354E+00  0.26546542984E+02  0.00000000000E+00 0. -1.
         21    1    1    2  502  501  0.28369591096E+02  0.10976791964E+02 -0.33550599137E+02  0.45287596130E+02  0.00000000000E+00 0.  1.
<scales pt_clust_5="13000.00000" pt_clust_6="13000.00000" pt_clust_7="13000.00000" pt_clust_8="13000.00000" pt_clust_9="30.41913"></scales>
<clustering>
<clus scale="   30.419">  2  9  1 -1</clus>
<clus scale="   86.606">  5  6 -1 -1</clus>
<clus scale="   89.569">  1  5  2 -1</clus>
<clus scale="   90.819">  7  8 -1 -1</clus>
<clus scale="   89.569">  1  5  2 -1</clus>
</clustering>
</event>
<event>
 9    1  0.1266593E-005  0.9624484E+02  0.7546771E-02  0.1289278E+00
          2   -1    0    0  502    0  0.00000000000E+00  0.00000000000E+00  0.15444228719E+03  0.15444228719E+03  0.00000000000E+00 0. -1.
         -2   -1    0    0    0  501 -0.00000000000E+00 -0.00000000000E+00 -0.45381518295E+03  0.45381518295E+03  0.00000000000E+00 0.  1.
         23    2    1    2    0    0  0.28765456767E+02 -0.48855754701E+02 -0.21545487439E+03  0.24081780095E+03  0.91422503163E+02 0.  0.
         23    2    1    2    0    0 -0.22833010231E+02 -0.12186152779E+02  0.12026214396E+03  0.15424762359E+03  0.93056420729E+02 0.  0.
        -11    1    4    4    0    0 -0.58160906671E+02  0.18931345477E+01  0.66068374702E+02  0.88041496802E+02  0.00000000000E+00 0. -1.
         11    1    4    4    0    0  0.35327896440E+02 -0.14079287327E+02  0.54193769258E+02  0.66206126793E+02  0.00000000000E+00 0.  1.
        -11    1    3    3    0    0  0.19860711457E+02  0.13582977370E+02 -0.14189783665E+03  0.14392338649E+03  0.00000000000E+00 0.  1.
         11    1    3    3    0    0  0.89047453107E+01 -0.62438732071E+02 -0.73557037748E+02  0.96894414462E+02  0.00000000000E+00 0. -1.
         21    1    1    2  502  501 -0.59324465360E+01  0.61041907480E+02 -0.20418016533E+03  0.21319204559E+03  0.00000000000E+00 0. -1.
<scales pt_clust_5="13000.00000" pt_clust_6="13000.00000" pt_clust_7="13000.00000" pt_clust_8="13000.00000" pt_clust_9="61.32951"></scales>
<clustering>
<clus scale="   61.330">  2  9  1 -1</clus>
<clus scale="   91.423">  7  8 -1 -1</clus>
<clus scale="   93.056">  5  6 -1 -1</clus>
<clus scale="   94.666">  2  7  1 -1</clus>
<clus scale="   96.245">  1  5  2 -1</clus>
</clustering>
</event>
<event>
 9    1  0.1463201E-005  0.9527834E+02  0.7546771E-02  0.1292697E+00
          3   -1    0    0  502    0  0.00000000000E+00  0.00000000000E+00  0.38843416865E+03  0.38843416865E+03  0.00000000000E+00 0. -1.
         -3   -1    0    0    0  501 -0.00000000000E+00 -0.00000000000E+00 -0.93083860716E+02  0.93083860716E+02  0.00000000000E+00 0.  1.
         23    2    1    2    0    0  0.62344915927E+02  0.87458890893E+01 -0.21542602781E+02  0.11104035204E+03  0.88895989380E+02 0.  0.
         23    2    1    2    0    0 -0.48647550372E+01 -0.20151441713E+02  0.29151957370E+03  0.30661953957E+03  0.92747688652E+02 0.  0.
        -13    1    3    3    0    0  0.91676842229E+01  0.41140742564E+02  0.66792697024E+01  0.42675751622E+02  0.00000000000E+00 0. -1.
         13    1    3    3    0    0  0.53177231704E+02 -0.32394853475E+02 -0.28221872484E+02  0.68364600414E+02  0.00000000000E+00 0.  1.
        -13    1    4    4    0    0 -0.43178936250E+02 -0.41348994125E+00  0.81597331034E+02  0.92318556864E+02  0.00000000000E+00 0. -1.
         13    1    4    4    0    0  0.38314181213E+02 -0.19737951772E+02  0.20992224267E+03  0.21430098271E+03  0.00000000000E+00 0.  1.
         21    1    1    2  502  501 -0.57480160890E+02  0.11405552624E+02  0.25373337010E+02  0.63858137755E+02  0.00000000000E+00 0. -1.
<scales pt_clust_5="13000.00000" pt_clust_6="13000.00000" pt_clust_7="13000.00000" pt_clust_8="13000.00000" pt_clust_9="58.60082"></scales>
<clustering>
<clus scale="   58.601">  2  9  1 -1</clus>
<clus scale="   88.896">  5  6 -1 -1</clus>
<clus scale="   91.533">  2  5  1 -1</clus>
<clus scale="   92.748">  7  8 -1 -1</clus>
<clus scale="   95.278">  1  5  2 -1</clus>
</clustering>
</event>
<event>
 9    1  0.1266593E-005  0.1271308E+03  0.7546771E-02  0.1232962E+00
          1   -1    0    0  502    0  0.00000000000E+00  0.00000000000E+00  0.18904063740E+03  0.18904063740E+03  0.00000000000E+00 0. -1.
         -1   -1    0    0    0  501 -0.00000000000E+00 -0.00000000000E+00 -0.23040413875E+03  0.23040413875E+03  0.00000000000E+00 0.  1.
         23    2    1    2    0    0  0.60912408563E+02 -0.39132336587E+02 -0.11936320835E+03  0.16800712128E+03  0.93472755438E+02 0.  0.
         23    2    1    2    0    0 -0.90371910737E+02 -0.20448460452E+02  0.11739901034E+03  0.17417162903E+03  0.89263693323E+02 0.  0.
        -11    1    3    3    0    0  0.50762794145E+02  0.22639987347E+02 -0.53731277996E+02  0.77307700338E+02  0.00000000000E+00 0.  1.
         11    1    3    3    0    0  0.10149614418E+02 -0.61772323934E+02 -0.65631930359E+02  0.90699420945E+02  0.00000000000E+00 0. -1.
        -11    1    4    4    0    0 -0.57531276809E+02  0.16159798457E+02  0.16608793959E+02  0.62022890405E+02  0.00000000000E+00 0.  1.
         11    1    4    4    0    0 -0.32840633928E+02 -0.36608258909E+02  0.10079021638E+03  0.11214873863E+03  0.00000000000E+00 0. -1.
         21    1    1    2  502  501  0.29459502174E+02  0.59580797039E+02 -0.39399303334E+02  0.77266025828E+02  0.00000000000E+00 0.  1.
<scales pt_clust_5="13000.00000" pt_clust_6="13000.00000" pt_clust_7="13000.00000" pt_clust_8="13000.00000" pt_clust_9="66.46603"></scales>
<clustering>
<clus scale="   66.466">  2  9  1 -1</clus>
<clus scale="   89.264">  7  8 -1 -1</clus>
<clus scale="   93.473">  5  6 -1 -1</clus>
<clus scale="  124.069">  1  7  2 -1</clus>
<clus scale="  124.069">  1  5  2 -1</clus>
</clustering>
</event>
<event>
 9    1  0.1266593E-005  0.9425183E+02  0.7546771E-02  0.1293903E+00
         -1   -1    0    0    0  501 -0.00000000000E+00  0.00000000000E+00  0.40120862988E+03  0.40120862988E+03  0.00000000000E+00 0.  1.
          1   -1    0    0  502    0  0.00000000000E+00 -0.00000000000E+00 -0.38429400337E+02  0.38429400337E+02  0.00000000000E+00 0. -1.
         23    2    1    2    0    0 -0.13750272823E+01  0.93404737669E+01  0.12483438061E+03  0.15627340445E+03  0.93534053719E+02 0.  0.
         23    2    1    2    0    0  0.10914463535E+02  0.24208379765E+02  0.89496569402E+02  0.13087391093E+03  0.91723352870E+02 0.  0.
        -13    1    3    3    0    0 -0.30404453491E+02 -0.30874370629E+02  0.70086170875E+02  0.82399811296E+02  0.00000000000E+00 0.  1.
         13    1    3    3    0    0  0.29029426209E+02  0.40214844396E+02  0.54748209739E+02  0.73873593153E+02  0.00000000000E+00 0. -1.
        -13    1    4    4    0    0  0.38495157823E+02  0.30926650046E+02  0.15715041282E+02  0.51819855089E+02  0.00000000000E+00 0. -1.
         13    1    4    4    0    0 -0.27580694288E+02 -0.67182702810E+01  0.73781528120E+02  0.79054055839E+02  0.00000000000E+00 0.  1.
         21    1    1    2  502  501 -0.95394362527E+01 -0.33548853532E+02  0.14844827953E+03  0.15249071484E+03  0.00000000000E+00 0.  1.
<scales pt_clust_5="13000.00000" pt_clust_6="13000.00000" pt_clust_7="13000.00000" pt_clust_8="13000.00000" pt_clust_9="34.87874"></scales>
<clustering>
<clus scale="   34.879">  1  9  2 -1</clus>
<clus scale="   91.723">  7  8 -1 -1</clus>
<clus scale="   92.455">  2  7  1 -1</clus>
<clus scale="   93.534">  5  6 -1 -1</clus>
<clus scale="   92.455">  2  5  1 -1</clus>
</clustering>
</event>
<event>
 9    1  0.1266593E-005  0.1119887E+03  0.7546771E-02  0.1257541E+00
         -3   -1    0    0    0  501 -0.00000000000E+00  0.00000000000E+00  0.35356520734E+03  0.35356520734E+03  0.00000000000E+00 0.  1.
          3   -1    0    0  502    0  0.00000000000E+00 -0.00000000000E+00 -0.62955563128E+02  0.62955563128E+02  0.00000000000E+00 0. -1.
         23    2    1    2    0    0  0.38668910944E+02 -0.25235317731E+02  0.11933151079E+03  0.15731071896E+03  0.91512550491E+02 0.  0.
         23    2    1    2    0    0 -0.73350191914E+02  0.21773264799E+02  0.41938225702E+02  0.12525637000E+03  0.89866666440E+02 0.  0.
        -11    1    4    4    0    0 -0.60369701551E+02 -0.17003583538E+02  0.53850336712E+02  0.82664874539E+02  0.00000000000E+00 0. -1.
         11    1    4    4    0    0 -0.12980490362E+02  0.38776848337E+02 -0.11912111010E+02  0.42591495462E+02  0.00000000000E+00 0.  1.
        -13    1    3    3    0    0  0.54152160207E+02 -0.45540077529E+02  0.10859263192E+03  0.12960985620E+03  0.00000000000E+00 0.  1.
         13    1    3    3    0    0 -0.15483249263E+02  0.20304759798E+02  0.10738878867E+02  0.27700862758E+02  0.00000000000E+00 0. -1.
         21    1    1    2  502  501  0.34681280970E+02  0.34620529324E+01  0.12933990772E+03  0.13395368151E+03  0.00000000000E+00 0.  1.
<scales pt_clust_5="13000.00000" pt_clust_6="13000.00000" pt_clust_7="13000.00000" pt_clust_8="13000.00000" pt_clust_9="34.85365"></scales>
<clustering>
<clus scale="   34.854">  1  9  2 -1</clus>
<clus scale="   89.867">  5  6 -1 -1</clus>
<clus scale="   91.513">  7  8 -1 -1</clus>
<clus scale="  110.648">  2  5  1 -1</clus>
<clus scale="  110.648">  2  5  1 -1</clus>
</clustering>
</event>
<event>
 9    1  0.1266593E-005  0.1275216E+03  0.7546771E-02  0.1244976E+00
         -1   -1    0    0    0  501 -0.00000000000E+00  0.00000000000E+00  0.10044195780E+03  0.10044195780E+03  0.00000000000E+00 0.  1.
          1   -1    0    0  502    0  0.00000000000E+00 -0.00000000000E+00 -0.16336048433E+03  0.16336048433E+03  0.00000000000E+00 0. -1.
         23    2    1    2    0    0 -0.32290117872E+02  0.35859841554E+01 -0.19510229003E+02  0.96716010599E+02  0.88982170551E+02 0.  0.
         23    2    1    2    0    0  0.36067740676E+02 -0.24886970602E+02 -0.56820941881E+02  0.14163252248E+03  0.12211023203E+03 0.  0.
        -11    1    4    4    0    0  0.26217771306E+01 -0.21734331694E+02 -0.91066176496E+02  0.93660575437E+02  0.00000000000E+00 0.  1.
         11    1    4    4    0    0  0.33445963545E+02 -0.31526389078E+01  0.34245234615E+02  0.47971947046E+02  0.00000000000E+00 0. -1.
        -13    1    3    3    0    0 -0.43209758608E+02 -0.27388090534E+02 -0.33358162434E+02  0.61073379987E+02  0.00000000000E+00 0. -1.
         13    1    3    3    0    0  0.10919640736E+02  0.30974074689E+02  0.13847933431E+02  0.35642630612E+02  0.00000000000E+00 0.  1.
         21    1    1    2  502  501 -0.37776228043E+01  0.21300986447E+02  0.13412644351E+02  0.25453909054E+02  0.00000000000E+00 0. -1.
<scales pt_clust_5="13000.00000" pt_clust_6="13000.00000" pt_clust_7="13000.00000" pt_clust_8="13000.00000" pt_clust_9="21.63336"></scales>
<clustering>
<clus scale="   21.633">  1  9  2 -1</clus>
<clus scale="   88.982">  7  8 -1 -1</clus>
<clus scale="   96.274">  1  7  2 -1</clus>
<clus scale="  122.110">  5  6 -1 -1</clus>
<clus scale="  127.522">  2  5  1 -1</clus>
</clustering>
</event>
<event>
 9    1  0.1266593E-005  0.9216252E+02  0.7546771E-02  0.1298051E+00
          1   -1    0    0  502    0  0.00000000000E+00  0.00000000000E+00  0.59624881090E+03  0.59624881090E+03  0.00000000000E+00 0. -1.
         -1   -1    0    0    0  501 -0.00000000000E+00 -0.00000000000E+00 -0.28633117833E+02  0.28633117833E+02  0.00000000000E+00 0.  1.
         23    2    1    2    0    0  0.22301989921E+02  0.18629140892E+02  0.10765015455E+03  0.14333881928E+03  0.90072402494E+02 0.  0.
         23    2    1    2    0    0  0.20128422314E+01 -0.15492794275E+02  0.44113359651E+03  0.45062887694E+03  0.90683276033E+02 0.  0.
        -11    1    4    4    0    0 -0.13243773249E+02  0.34817946395E+02  0.13648805575E+03  0.14148030351E+03  0.00000000000E+00 0. -1.
         11    1    4    4    0    0  0.15256615481E+02 -0.50310740670E+02  0.30464554076E+03  0.30914857342E+03  0.00000000000E+00 0.  1.
        -11    1    3    3    0    0  0.50469144398E+02 -0.29169233832E+01  0.32111102902E+02  0.59889614357E+02  0.00000000000E+00 0.  1.
         11    1    3    3    0    0 -0.28167154477E+02  0.21546064275E+02  0.75539051652E+02  0.83449204918E+02  0.00000000000E+00 0. -1.
         21    1    1    2  502  501 -0.24314832152E+02 -0.31363466170E+01  0.18831942005E+02  0.30914232521E+02  0.00000000000E+00 0. -1.
<scales pt_clust_5="13000.00000" pt_clust_6="13000.00000" pt_clust_7="13000.00000" pt_clust_8="13000.00000" pt_clust_9="24.51627"></scales>
<clustering>
<clus scale="   24.516">  2  9  1 -1</clus>
<clus scale="   90.072">  7  8 -1 -1</clus>
<clus scale="   90.683">  5  6 -1 -1</clus>
<clus scale="   91.562">  2  7  1 -1</clus>
<clus scale="   92.163">  1  5  2 -1</clus>
</clustering>
</event>
<event>
 9    1  0.1266593E-005  0.1084408E+03  0.7546771E-02  0.1264510E+00
          2   -1    0    0  502    0  0.00000000000E+00  0.00000000000E+00  0.10207702575E+03  0.10207702575E+03  0.00000000000E+00 0. -1.
         -2   -1    0    0    0  501 -0.00000000000E+00 -0.00000000000E+00 -0.19608216755E+03  0.19608216755E+03  0.00000000000E+00 0.  1.
         23    2    1    2    0    0  0.39971198983E+02 -0.77834352802E+02 -0.70348803735E+02  0.14264300394E+03  0.87989710553E+02 0.  0.
         23    2    1    2    0    0 -0.27225212419E+02  0.39100395162E+02  0.97471533179E+01  0.10280401918E+03  0.90573761482E+02 0.  0.
        -13    1    4    4    0    0  0.49395353024E+01  0.40779307084E+02 -0.30567701162E+02  0.51202883216E+02  0.00000000000E+00 0.  1.
         13    1    4    4    0    0 -0.32164747721E+02 -0.16789119222E+01  0.40314854480E+02  0.51601135966E+02  0.00000000000E+00 0. -1.
        -13    1    3    3    0    0  0.12632112206E+02 -0.72247624761E+02 -0.84054500739E+02  0.11155468900E+03  0.00000000000E+00 0.  1.
         13    1    3    3    0    0  0.27339086777E+02 -0.55867280413E+01  0.13705697004E+02  0.31088314949E+02  0.00000000000E+00 0. -1.
         21    1    1    2  502  501 -0.12745986564E+02  0.38733957641E+02 -0.33403491386E+02  0.52712170177E+02  0.00000000000E+00 0.  1.
<scales pt_clust_5="13000.00000" pt_clust_6="13000.00000" pt_clust_7="13000.00000" pt_clust_8="13000.00000" pt_clust_9="40.77720"></scales>
<clustering>
<clus scale="   40.777">  2  9  1 -1</clus>
<clus scale="   87.990">  7  8 -1 -1</clus>
<clus scale="   90.574">  5  6 -1 -1</clus>
<clus scale="  106.292">  2  7  1 -1</clus>
<clus scale="  108.441">  1  5  2 -1</clus>
</clustering>
</event>
<event>
 9    1  0.1266593E-005  0.2157310E+03  0.7546771E-02  0.1137110E+00
          2   -1    0    0  502    0  0.00000000000E+00  0.00000000000E+00  0.35943837603E+03  0.35943837603E+03  0.00000000000E+00 0. -1.
         -2   -1    0    0    0  501 -0.00000000000E+00 -0.00000000000E+00 -0.29286222641E+03  0.29286222641E+03  0.00000000000E+00 0.  1.
         23    2    1    2    0    0 -0.18068282872E+03 -0.10977309873E+03 -0.13280474823E+03  0.26529832766E+03  0.89720029599E+02 0.  0.
         23    2    1    2    0    0  0.17194972993E+03  0.88234403678E+02  0.25167717033E+03  0.32977393813E+03  0.89763202873E+02 0.  0.
        -11    1    4    4    0    0  0.10184577536E+02  0.17597166518E+02 -0.23210333027E+01  0.20463945970E+02  0.00000000000E+00 0. -1.
         11    1    4    4    0    0  0.16176515239E+03  0.70637237160E+02  0.25399820363E+03  0.30930999216E+03  0.00000000000E+00 0.  1.
        -13    1    3    3    0    0 -0.85860563874E+02 -0.25986032660E+01 -0.40141192661E+02  0.94816161681E+02  0.00000000000E+00 0.  1.
         13    1    3    3    0    0 -0.94822264846E+02 -0.10717449546E+03 -0.92663555566E+02  0.17048216598E+03  0.00000000000E+00 0. -1.
         21    1    1    2  502  501  0.87330987920E+01  0.21538695052E+02 -0.52296272487E+02  0.57228336644E+02  0.00000000000E+00 0. -1.
<scales pt_clust_5="13000.00000" pt_clust_6="13000.00000" pt_clust_7="13000.00000" pt_clust_8="13000.00000" pt_clust_9="23.24182"></scales>
<clustering>
<clus scale="   23.242">  2  9  1 -1</clus>
<clus scale="   89.720">  7  8 -1 -1</clus>
<clus scale="   89.763">  5  6 -1 -1</clus>
<clus scale="  215.713">  2  7  1 -1</clus>
<clus scale="  215.731">  1  5  2 -1</clus>
</clustering>
</event>
<event>
 9    1  0.1266593E-005  0.9544596E+02  0.7546771E-02  0.1290307E+00
         -1   -1    0    0    0  501 -0.00000000000E+00  0.00000000000E+00  0.23518185574E+03  0.23518185574E+03  0.00000000000E+00 0.  1.
          1   -1    0    0  502    0  0.00000000000E+00 -0.00000000000E+00 -0.23431924274E+03  0.23431924274E+03  0.00000000000E+00 0. -1.
         23    2    1    2    0    0  0.28875804380E+02  0.39115265463E+02  0.18050420400E+03  0.20785909301E+03  0.90883545362E+02 0.  0.
         23    2    1    2    0    0 -0.66104593003E+01 -0.26653758663E+02 -0.20478330011E+03  0.22582105796E+03  0.91130835555E+02 0.  0.
        -11    1    3    3    0    0  0.19776189737E+02 -0.26134746637E+02  0.91003646976E+02  0.96725314294E+02  0.00000000000E+00 0. -1.
         11    1    3    3    0    0  0.90996146424E+01  0.65250012100E+02  0.89500557019E+02  0.11113377872E+03  0.00000000000E+00 0.  1.
        -11    1    4    4    0    0 -0.36217998773E+02 -0.11041438694E+02 -0.31263918435E+02  0.49102845126E+02  0.00000000000E+00 0.  1.
         11    1    4    4    0    0  0.29607539473E+02 -0.15612319969E+02 -0.17351938168E+03  0.17671821283E+03  0.00000000000E+00 0. -1.
         21    1    1    2  502  501 -0.22265345080E+02 -0.12461506800E+02  0.25141709121E+02  0.35820947514E+02  0.00000000000E+00 0.  1.
<scales pt_clust_5="13000.00000" pt_clust_6="13000.00000" pt_clust_7="13000.00000" pt_clust_8="13000.00000" pt_clust_9="25.51538"></scales>
<clustering>
<clus scale="   25.515">  1  9  2 -1</clus>
<clus scale="   90.884">  5  6 -1 -1</clus>
<clus scale="   91.131">  7  8 -1 -1</clus>
<clus scale="   95.210">  1  5  2 -1</clus>
<clus scale="   95.446">  2  5  1 -1</clus>
</clustering>
</event>
<event>
 9    1  0.1266593E-005  0.9239956E+02  0.7546771E-02  0.1298153E+00
         -1   -1    0    0    0  501 -0.00000000000E+00  0.00000000000E+00  0.28081809769E+03  0.28081809769E+03  0.00000000000E+00 0.  1.
          1   -1    0    0  502    0  0.00000000000E+00 -0.00000000000E+00 -0.20374763951E+03  0.20374763951E+03  0.00000000000E+00 0. -1.
         23    2    1    2    0    0 -0.12366195406E+02  0.28918160280E+02  0.91016490917E+02  0.13285677730E+03  0.91529988921E+02 0.  0.
         23    2    1    2    0    0  0.17236525051E+01 -0.10694709804E+02 -0.17089003292E+03  0.19335247264E+03  0.89802157709E+02 0.  0.
        -13    1    3    3    0    0  0.26124736645E+02 -0.67579331631E+01 -0.91441621611E+00  0.27000142267E+02  0.00000000000E+00 0.  1.
         13    1    3    3    0    0 -0.38490932051E+02  0.35676093443E+02  0.91930907133E+02  0.10585663503E+03  0.00000000000E+00 0. -1.
        -13    1    4    4    0    0 -0.29142331400E+02 -0.14141641521E+02 -0.17435686002E+02  0.36786745585E+02  0.00000000000E+00 0.  1.
         13    1    4    4    0    0  0.30865983905E+02  0.34469317172E+01 -0.15345434691E+03  0.15656572705E+03  0.00000000000E+00 0. -1.
         21    1    1    2  502  501  0.10642542901E+02 -0.18223450476E+02  0.15694400018E+03  0.15835648726E+03  0.00000000000E+00 0.  1.
<scales pt_clust_5="13000.00000" pt_clust_6="13000.00000" pt_clust_7="13000.00000" pt_clust_8="13000.00000" pt_clust_9="21.10350"></scales>
<clustering>
<clus scale="   21.104">  1  9  2 -1</clus>
<clus scale="   89.802">  7  8 -1 -1</clus>
<clus scale="   90.688">  2  7  1 -1</clus>
<clus scale="   91.530">  5  6 -1 -1</clus>
<clus scale="   90.688">  2  5  1 -1</clus>
</clustering>
</event>
<event>
 9    1  0.1266593E-005  0.1016869E+03  0.7546771E-02  0.1277829E+00
         -1   -1    0    0    0  501 -0.00000000000E+00  0.00000000000E+00  0.34317187557E+02  0.34317187557E+02  0.00000000000E+00 0.  1.
          1   -1    0    0  502    0  0.00000000000E+00 -0.00000000000E+00 -0.49840580299E+03  0.49840580299E+03  0.00000000000E+00 0. -1.
         23    2    1    2    0    0  0.98731132383E+01 -0.66093466835E+02 -0.15060003481E+03  0.18729971039E+03  0.89078540091E+02 0.  0.
         23    2    1    2    0    0  0.89196041859E+01  0.20709340191E+02 -0.17831679412E+03  0.20160291635E+03  0.91314953348E+02 0.  0.
        -13    1    3    3    0    0 -0.35429389830E+02 -0.71099642067E+01 -0.60488109836E+02  0.70459950938E+02  0.00000000000E+00 0.  1.
         13    1    3    3    0    0  0.45302503069E+02 -0.58983502628E+02 -0.90111924978E+02  0.11683975946E+03  0.00000000000E+00 0. -1.
        -13    1    4    4    0    0 -0.84607319249E+01  0.46971446043E+02 -0.48594254735E+02  0.68112424133E+02  0.00000000000E+00 0.  1.
         13    1    4    4    0    0  0.17380336111E+02 -0.26262105853E+02 -0.12972253939E+03  0.13349049222E+03  0.00000000000E+00 0. -1.
         21    1    1    2  502  501 -0.18792717424E+02  0.45384126644E+02 -0.13517178649E+03  0.14382036380E+03  0.00000000000E+00 0.  1.
<scales pt_clust_5="13000.00000" pt_clust_6="13000.00000" pt_clust_7="13000.00000" pt_clust_8="13000.00000" pt_clust_9="49.12113"></scales>
<clustering>
<clus scale="   49.121">  2  9  1 -1</clus>
<clus scale="   89.079">  5  6 -1 -1</clus>
<clus scale="   91.315">  7  8 -1 -1</clus>
<clus scale="   99.683">  1  5  2 -1</clus>
<clus scale="   49.121">  2  5  1 -1</clus>
</clustering>
</event>
<event>
 9    1  0.1266593E-005  0.2704705E+03  0.7546771E-02  0.1101945E+00
          2   -1    0    0  502    0  0.00000000000E+00  0.00000000000E+00  0.44763746206E+03  0.44763746206E+03  0.00000000000E+00 0. -1.
         -2   -1    0    0    0  501 -0.00000000000E+00 -0.00000000000E+00 -0.28190236680E+03  0.28190236680E+03  0.00000000000E+00 0.  1.
         23    2    1    2    0    0  0.22903374201E+03 -0.77848270787E+02 -0.81125084071E+02  0.27096650762E+03  0.91240126828E+02 0.  0.
         23    2    1    2    0    0 -0.22631277639E+03  0.10586773989E+03  0.29579724112E+03  0.40211687502E+03  0.10851968586E+03 0.  0.
        -11    1    3    3    0    0  0.50324808594E+02  0.10739858935E+02  0.87419662962E+01  0.52195334127E+02  0.00000000000E+00 0. -1.
         11    1    3    3    0    0  0.17870893342E+03 -0.88588129721E+02 -0.89867050368E+02  0.21877117349E+03  0.00000000000E+00 0.  1.
        -11    1    4    4    0    0 -0.20210886986E+03  0.68969176764E+02  0.18386412182E+03  0.28179914463E+03  0.00000000000E+00 0. -1.
         11    1    4    4    0    0 -0.24203906527E+02  0.36898563123E+02  0.11193311929E+03  0.12031773039E+03  0.00000000000E+00 0.  1.
         21    1    1    2  502  501 -0.27209656218E+01 -0.28019469101E+02 -0.48937061785E+02  0.56456446211E+02  0.00000000000E+00 0. -1.
<scales pt_clust_5="13000.00000" pt_clust_6="13000.00000" pt_clust_7="13000.00000" pt_clust_8="13000.00000" pt_clust_9="28.15128"></scales>
<clustering>
<clus scale="   28.151">  2  9  1 -1</clus>
<clus scale="   91.240">  5  6 -1 -1</clus>
<clus scale="  108.520">  7  8 -1 -1</clus>
<clus scale="  264.012">  2  5  1 -1</clus>
<clus scale="  270.470">  1  5  2 -1</clus>
</clustering>
</event>
<event>
 9    1  0.1266593E-005  0.2492970E+03  0.7546771E-02  0.1113778E+00
          1   -1    0    0  502    0  0.00000000000E+00  0.00000000000E+00  0.71748872535E+03  0.71748872535E+03  0.00000000000E+00 0. -1.
         -1   -1    0    0    0  501 -0.00000000000E+00 -0.00000000000E+00 -0.14206250792E+03  0.14206250792E+03  0.00000000000E+00 0.  1.
         23    2    1    2    0    0 -0.66274234474E+02  0.20390258952E+03  0.20656765273E+03  0.31149442232E+03  0.91597160506E+02 0.  0.
         23    2    1    2    0    0  0.10242665302E+03 -0.22271499893E+03  0.41245538919E+03  0.48837777593E+03  0.91105510015E+02 0.  0.
        -11    1    4    4    0    0  0.35123544840E+02 -0.93326826267E+01  0.41444830779E+02  0.55122013438E+02  0.00000000000E+00 0. -1.
         11    1    4    4    0    0  0.67303108175E+02 -0.21338231631E+03  0.37101055841E+03  0.43325576249E+03  0.00000000000E+00 0.  1.
        -13    1    3    3    0    0 -0.38049220258E+02  0.72293066422E+02  0.13816114465E+03  0.16050711045E+03  0.00000000000E+00 0.  1.
         13    1    3    3    0    0 -0.28225014216E+02  0.13160952309E+03  0.68406508086E+02  0.15098731187E+03  0.00000000000E+00 0. -1.
         21    1    1    2  502  501 -0.36152418542E+02  0.18812409418E+02 -0.43596824495E+02  0.59679035017E+02  0.00000000000E+00 0.  1.
<scales pt_clust_5="13000.00000" pt_clust_6="13000.00000" pt_clust_7="13000.00000" pt_clust_8="13000.00000" pt_clust_9="40.75419"></scales>
<clustering>
<clus scale="   40.754">  2  9  1 -1</clus>
<clus scale="   91.106">  5  6 -1 -1</clus>
<clus scale="   91.597">  7  8 -1 -1</clus>
<clus scale="  249.117">  1  5  2 -1</clus>
<clus scale="  249.117">  1  5  2 -1</clus>
</clustering>
</event>
<event>
 9    1  0.1266593E-005  0.1948402E+03  0.7546771E-02  0.1154171E+00
         -2   -1    0    0    0  501 -0.00000000000E+00  0.00000000000E+00  0.45395385375E+03  0.45395385375E+03  0.00000000000E+00 0.  1.
          2   -1    0    0  502    0  0.00000000000E+00 -0.00000000000E+00 -0.99386464911E+03  0.99386464911E+03  0.00000000000E+00 0. -1.
         23    2    1    2    0    0 -0.17113332238E+03 -0.23549862394E+02  0.41097269814E+03  0.45495981561E+03  0.90822162253E+02 0.  0.
         23    2    1    2    0    0  0.15061423094E+03  0.53353741458E+02 -0.93577036944E+03  0.95364503097E+03  0.90782115406E+02 0.  0.
        -11    1    4    4    0    0  0.63232155457E+01  0.37435437624E+02 -0.16357965435E+03  0.16792765812E+03  0.00000000000E+00 0.  1.
         11    1    4    4    0    0  0.14429101540E+03  0.15918303835E+02 -0.77219071509E+03  0.78571737285E+03  0.00000000000E+00 0. -1.
        -13    1    3    3    0    0 -0.10794260172E+03 -0.82906078830E+01  0.34800896825E+03  0.36445930010E+03  0.00000000000E+00 0.  1.
         13    1    3    3    0    0 -0.63190720666E+02 -0.15259254511E+02  0.62963729883E+02  0.90500515509E+02  0.00000000000E+00 0. -1.
         21    1    1    2  502  501  0.20519091440E+02 -0.29803879064E+02 -0.15113124053E+02  0.39213656288E+02  0.00000000000E+00 0. -1.
<scales pt_clust_5="13000.00000" pt_clust_6="13000.00000" pt_clust_7="13000.00000" pt_clust_8="13000.00000" pt_clust_9="36.18431"></scales>
<clustering>
<clus scale="   36.184">  2  9  1 -1</clus>
<clus scale="   90.782">  5  6 -1 -1</clus>
<clus scale="   90.822">  7  8 -1 -1</clus>
<clus scale="  194.822">  2  5  1 -1</clus>
<clus scale="   36.184">  2  5  1 -1</clus>
</clustering>
</event>
<event>
 9    1  0.1266593E-005  0.1609548E+03  0.7546771E-02  0.1188553E+00
         -1   -1    0    0    0  501 -0.00000000000E+00  0.00000000000E+00  0.86803657043E+02  0.86803657043E+02  0.00000000000E+00 0.  1.
          1   -1    0    0  502    0  0.00000000000E+00 -0.00000000000E+00 -0.76228585615E+03  0.76228585615E+03  0.00000000000E+00 0. -1.
         23    2    1    2    0    0 -0.94777431952E+02 -0.14149359873E+03 -0.18602904886E+03  0.26624798042E+03  0.85311077640E+02 0.  0.
         23    2    1    2    0    0  0.81039909059E+02  0.91626875218E+02 -0.50601907453E+03  0.52852910790E+03  0.91240139119E+02 0.  0.
        -11    1    4    4    0    0  0.79859733577E+02  0.54227835548E+02 -0.45576151639E+03  0.46587208010E+03  0.00000000000E+00 0. -1.
         11    1    4    4    0    0  0.11801754822E+01  0.37399039670E+02 -0.50257558139E+02  0.62657027798E+02  0.00000000000E+00 0.  1.
        -13    1    3    3    0    0 -0.70189109753E+02 -0.13728168310E+03 -0.11911880692E+03  0.19483855318E+03  0.00000000000E+00 0. -1.
         13    1    3    3    0    0 -0.24588322199E+02 -0.42119156247E+01 -0.66910241940E+02  0.71409427237E+02  0.00000000000E+00 0.  1.
         21    1    1    2  502  501  0.13737522893E+02  0.49866723509E+02  0.16565924283E+02  0.54312424877E+02  0.00000000000E+00 0.  1.
<scales pt_clust_5="13000.00000" pt_clust_6="13000.00000" pt_clust_7="13000.00000" pt_clust_8="13000.00000" pt_clust_9="51.72436"></scales>
<clustering>
<clus scale="   51.724">  1  9  2 -1</clus>
<clus scale="   85.311">  7  8 -1 -1</clus>
<clus scale="   91.240">  5  6 -1 -1</clus>
<clus scale="  157.669">  1  7  2 -1</clus>
<clus scale="  160.955">  2  5  1 -1</clus>
</clustering>
</event>
<event>
 9    1  0.1266593E-005  0.1992552E+03  0.7546771E-02  0.1150377E+00
         -1   -1    0    0    0  501 -0.00000000000E+00  0.00000000000E+00  0.58293241867E+03  0.58293241867E+03  0.00000000000E+00 0.  1.
          1   -1    0    0  502    0  0.00000000000E+00 -0.00000000000E+00 -0.18884287299E+03  0.18884287299E+03  0.00000000000E+00 0. -1.
         23    2    1    2    0    0  0.17160454390E+03  0.50468345670E+02  0.49738337680E+03  0.53648313973E+03  0.91808290989E+02 0.  0.
         23    2    1    2    0    0 -0.15067051397E+03 -0.55481056538E+02 -0.10671442738E+03  0.21349624962E+03  0.91722015761E+02 0.  0.
        -11    1    4    4    0    0 -0.13235376020E+03 -0.76630313991E+02 -0.10490706047E+03  0.18545946780E+03  0.00000000000E+00 0. -1.
         11    1    4    4    0    0 -0.18316753779E+02  0.21149257453E+02 -0.18073669128E+01  0.28036781823E+02  0.00000000000E+00 0.  1.
        -11    1    3    3    0    0  0.68514371242E+02  0.66578638873E+02  0.20886337634E+03  0.22967551937E+03  0.00000000000E+00 0. -1.
         11    1    3    3    0    0  0.10309017266E+03 -0.16110293203E+02  0.28852000046E+03  0.30680762036E+03  0.00000000000E+00 0.  1.
         21    1    1    2  502  501 -0.20934029924E+02  0.50127108676E+01  0.34205962638E+01  0.21795902319E+02  0.00000000000E+00 0. -1.
<scales pt_clust_5="13000.00000" pt_clust_6="13000.00000" pt_clust_7="13000.00000" pt_clust_8="13000.00000" pt_clust_9="21.52582"></scales>
<clustering>
<clus scale="   21.526">  2  9  1 -1</clus>
<clus scale="   91.722">  5  6 -1 -1</clus>
<clus scale="   91.808">  7  8 -1 -1</clus>
<clus scale="  199.215">  2  5  1 -1</clus>
<clus scale="   21.526">  2  5  1 -1</clus>
</clustering>
</event>
<event>
 9    1  0.1266593E-005  0.1723115E+03  0.7546771E-02  0.1176075E+00
         -1   -1    0    0    0  501 -0.00000000000E+00  0.00000000000E+00  0.35844660101E+02  0.35844660101E+02  0.00000000000E+00 0.  1.
          1   -1    0    0  502    0  0.00000000000E+00 -0.00000000000E+00 -0.13870448492E+04  0.13870448492E+04  0.00000000000E+00 0. -1.
         23    2    1    2    0    0 -0.15886940099E+03 -0.38461168015E+02 -0.70209204112E+03  0.72645776239E+03  0.89938302849E+02 0.  0.
         23    2    1    2    0    0  0.12987124710E+03  0.33010919344E+02 -0.64770179475E+03  0.66689235001E+03  0.85273266357E+02 0.  0.
        -13    1    4    4    0    0  0.11830444660E+03  0.56269095007E+02 -0.57359368044E+03  0.58836371692E+03  0.00000000000E+00 0.  1.
         13    1    4    4    0    0  0.11566800500E+02 -0.23258175663E+02 -0.74108114311E+02  0.78528633094E+02  0.00000000000E+00 0. -1.
        -13    1    3    3    0    0 -0.51332594717E+02 -0.34842161170E+02 -0.12649128554E+03  0.14088668068E+03  0.00000000000E+00 0.  1.
         13    1    3    3    0    0 -0.10753680627E+03 -0.36190068455E+01 -0.57560075558E+03  0.58557108171E+03  0.00000000000E+00 0. -1.
         21    1    1    2  502  501  0.28998153890E+02  0.54502486712E+01 -0.14063532225E+01  0.29539396896E+02  0.00000000000E+00 0.  1.
<scales pt_clust_5="13000.00000" pt_clust_6="13000.00000" pt_clust_7="13000.00000" pt_clust_8="13000.00000" pt_clust_9="29.50590"></scales>
<clustering>
<clus scale="   29.506">  1  9  2 -1</clus>
<clus scale="   85.273">  5  6 -1 -1</clus>
<clus scale="   89.938">  7  8 -1 -1</clus>
<clus scale="  169.923">  2  5  1 -1</clus>
<clus scale="  169.923">  2  5  1 -1</clus>
</clustering>
</event>
<event>
 9    1  0.1266593E-005  0.2333251E+03  0.7546771E-02  0.1124946E+00
         -1   -1    0    0    0  501 -0.00000000000E+00  0.00000000000E+00  0.14359340456E+03  0.14359340456E+03  0.00000000000E+00 0.  1.
          1   -1    0    0  502    0  0.00000000000E+00 -0.00000000000E+00 -0.14378584722E+04  0.14378584722E+04  0.00000000000E+00 0. -1.
         23    2    1    2    0    0 -0.30292067263E+03 -0.57191724632E+02 -0.34620855045E+03  0.47257092701E+03  0.91820985507E+02 0.  0.
         23    2    1    2    0    0  0.19790715335E+03 -0.35126323052E+01 -0.96309000793E+03  0.98665630403E+03  0.82272224782E+02 0.  0.
        -11    1    4    4    0    0  0.21145370474E+02 -0.92294746223E+01 -0.35370715861E+02  0.42230290489E+02  0.00000000000E+00 0.  1.
         11    1    4    4    0    0  0.17676178288E+03  0.57168423171E+01 -0.92771929207E+03  0.94442601354E+03  0.00000000000E+00 0. -1.
        -13    1    3    3    0    0 -0.18725042212E+03 -0.45822226020E+02 -0.14894309402E+03  0.24361125228E+03  0.00000000000E+00 0.  1.
         13    1    3    3    0    0 -0.11567025050E+03 -0.11369498613E+02 -0.19726545643E+03  0.22895967473E+03  0.00000000000E+00 0. -1.
         21    1    1    2  502  501  0.10501351928E+03  0.60704356937E+02  0.15033490733E+02  0.12222464574E+03  0.00000000000E+00 0. -1.
<scales pt_clust_5="13000.00000" pt_clust_6="13000.00000" pt_clust_7="13000.00000" pt_clust_8="13000.00000" pt_clust_9="121.29657"></scales>
<clustering>
<clus scale="   82.272">  5  6 -1 -1</clus>
<clus scale="   91.821">  7  8 -1 -1</clus>
<clus scale="  121.297">  1  9  2 -1</clus>
<clus scale="  229.735">  2  5  1 -1</clus>
<clus scale="  229.735">  2  5  1 -1</clus>
</clustering>
</event>
<event>
 9    1  0.1266593E-005  0.9241264E+02  0.7546771E-02  0.1298755E+00
         -2   -1    0    0    0  501 -0.00000000000E+00  0.00000000000E+00  0.59477730134E+02  0.59477730134E+02  0.00000000000E+00 0.  1.
          2   -1    0    0  502    0  0.00000000000E+00 -0.00000000000E+00 -0.48836022848E+03  0.48836022848E+03  0.00000000000E+00 0. -1.
         23    2    1    2    0    0  0.19197149396E+02  0.91624652142E+01 -0.22492896570E+03  0.24303375968E+03  0.89553824142E+02 0.  0.
         23    2    1    2    0    0  0.11841209269E+02  0.45034002481E+01 -0.23870333873E+03  0.25624820435E+03  0.92322063786E+02 0.  0.
        -13    1    3    3    0    0  0.46290802710E+02  0.31683603104E+02 -0.15251653822E+03  0.16250533392E+03  0.00000000000E+00 0. -1.
         13    1    3    3    0    0 -0.27093653315E+02 -0.22521137890E+02 -0.72412427481E+02  0.80528425760E+02  0.00000000000E+00 0.  1.
        -13    1    4    4    0    0 -0.14647948517E+02  0.36316024737E+02 -0.18126480786E+03  0.18544634431E+03  0.00000000000E+00 0. -1.
         13    1    4    4    0    0  0.26489157786E+02 -0.31812624489E+02 -0.57438530864E+02  0.70801860039E+02  0.00000000000E+00 0.  1.
         21    1    1    2  502  501 -0.31038358664E+02 -0.13665865462E+02  0.34749806083E+02  0.48555994586E+02  0.00000000000E+00 0.  1.
<scales pt_clust_5="13000.00000" pt_clust_6="13000.00000" pt_clust_7="13000.00000" pt_clust_8="13000.00000" pt_clust_9="33.91365"></scales>
<clustering>
<clus scale="   33.914">  1  9  2 -1</clus>
<clus scale="   89.554">  5  6 -1 -1</clus>
<clus scale="   89.647">  1  5  2 -1</clus>
<clus scale="   92.322">  7  8 -1 -1</clus>
<clus scale="   92.413">  2  5  1 -1</clus>
</clustering>
</event>
<event>
 9    1  0.1266593E-005  0.9414703E+02  0.7546771E-02  0.1293220E+00
          1   -1    0    0  502    0  0.00000000000E+00  0.00000000000E+00  0.59682214458E+02  0.59682214458E+02  0.00000000000E+00 0. -1.
         -1   -1    0    0    0  501 -0.00000000000E+00 -0.00000000000E+00 -0.25803753956E+03  0.25803753956E+03  0.00000000000E+00 0.  1.
         23    2    1    2    0    0 -0.38588058207E+02 -0.31443170252E+01 -0.13516785855E+03  0.16739287355E+03  0.90835561124E+02 0.  0.
         23    2    1    2    0    0  0.16935192472E+02 -0.11937126967E+02 -0.13863704123E+02  0.94388252600E+02  0.91036499233E+02 0.  0.
        -11    1    3    3    0    0 -0.32203019972E+01 -0.23486398816E+02  0.24705093308E+01  0.23834527280E+02  0.00000000000E+00 0.  1.
         11    1    3    3    0    0 -0.35367756210E+02  0.20342081791E+02 -0.13763836788E+03  0.14355834627E+03  0.00000000000E+00 0. -1.
        -11    1    4    4    0    0  0.51725152271E+02  0.89648316720E+01 -0.11449771290E+02  0.53730408960E+02  0.00000000000E+00 0.  1.
         11    1    4    4    0    0 -0.34789959799E+02 -0.20901958639E+02 -0.24139328334E+01  0.40657843641E+02  0.00000000000E+00 0. -1.
         21    1    1    2  502  501  0.21652865735E+02  0.15081443992E+02 -0.49323762422E+02  0.55938627860E+02  0.00000000000E+00 0.  1.
<scales pt_clust_5="13000.00000" pt_clust_6="13000.00000" pt_clust_7="13000.00000" pt_clust_8="13000.00000" pt_clust_9="26.38743"></scales>
<clustering>
<clus scale="   26.387">  2  9  1 -1</clus>
<clus scale="   90.836">  5  6 -1 -1</clus>
<clus scale="   91.036">  7  8 -1 -1</clus>
<clus scale="   93.953">  2  5  1 -1</clus>
<clus scale="   94.147">  1  5  2 -1</clus>
</clustering>
</event>
<event>
 9    1  0.1266593E-005  0.2076823E+03  0.7546771E-02  0.1143671E+00
          3   -1    0    0  502    0  0.00000000000E+00  0.00000000000E+00  0.13051603930E+03  0.13051603930E+03  0.00000000000E+00 0. -1.
         -3   -1    0    0    0  501 -0.00000000000E+00 -0.00000000000E+00 -0.67211257226E+03  0.67211257226E+03  0.00000000000E+00 0.  1.
         23    2    1    2    0    0  0.11496890151E+03  0.17777727235E+03 -0.33162684417E+03  0.40329882852E+03  0.88605724610E+02 0.  0.
         23    2    1    2    0    0 -0.12355550995E+03 -0.13034995518E+03 -0.19115892309E+02  0.20248402645E+03  0.91527530151E+02 0.  0.
        -11    1    3    3    0    0  0.61170886558E+02  0.13473726522E+03 -0.28175003716E+03  0.31824376104E+03  0.00000000000E+00 0. -1.
         11    1    3    3    0    0  0.53798014950E+02  0.43040007130E+02 -0.49876807004E+02  0.85055067475E+02  0.00000000000E+00 0.  1.
        -11    1    4    4    0    0 -0.25578931159E+02  0.11446733398E+02 -0.10464909725E+02  0.29913604936E+02  0.00000000000E+00 0. -1.
         11    1    4    4    0    0 -0.97976578792E+02 -0.14179668858E+03 -0.86509825838E+01  0.17257042152E+03  0.00000000000E+00 0.  1.
         21    1    1    2  502  501  0.85866084424E+01 -0.47427317171E+02 -0.19085379648E+03  0.19684575660E+03  0.00000000000E+00 0.  1.
<scales pt_clust_5="13000.00000" pt_clust_6="13000.00000" pt_clust_7="13000.00000" pt_clust_8="13000.00000" pt_clust_9="48.19834"></scales>
<clustering>
<clus scale="   48.198">  2  9  1 -1</clus>
<clus scale="   88.606">  5  6 -1 -1</clus>
<clus scale="   91.528">  7  8 -1 -1</clus>
<clus scale="  206.411">  2  5  1 -1</clus>
<clus scale="  207.682">  1  5  2 -1</clus>
</clustering>
</event>
<event>
 9    1  0.1266593E-005  0.9569854E+02  0.7546771E-02  0.1290126E+00
         -1   -1    0    0    0  501 -0.00000000000E+00  0.00000000000E+00  0.25327713164E+03  0.25327713164E+03  0.00000000000E+00 0.  1.
          1   -1    0    0  502    0  0.00000000000E+00 -0.00000000000E+00 -0.29854081541E+03  0.29854081541E+03  0.00000000000E+00 0. -1.
         23    2    1    2    0    0  0.41368372530E+02 -0.32162041499E+02  0.15768789939E+03  0.18898690605E+03  0.90026873123E+02 0.  0.
         23    2    1    2    0    0 -0.13057013962E+02  0.25650059139E+02 -0.27181917763E+03  0.28808691410E+03  0.90994470152E+02 0.  0.
        -13    1    4    4    0    0  0.37862020786E+02  0.13215171280E+01 -0.88219850819E+02  0.96010526007E+02  0.00000000000E+00 0.  1.
         13    1    4    4    0    0 -0.50919034747E+02  0.24328542011E+02 -0.18359932681E+03  0.19207638809E+03  0.00000000000E+00 0. -1.
        -13    1    3    3    0    0  0.66633922971E+02 -0.33093481000E+02  0.13860612493E+03  0.15731152546E+03  0.00000000000E+00 0.  1.
         13    1    3    3    0    0 -0.25265550441E+02  0.93143950152E+00  0.19081774457E+02  0.31675380583E+02  0.00000000000E+00 0. -1.
         21    1    1    2  502  501 -0.28311358568E+02  0.65119823594E+01  0.68867594475E+02  0.74744126906E+02  0.00000000000E+00 0. -1.
<scales pt_clust_5="13000.00000" pt_clust_6="13000.00000" pt_clust_7="13000.00000" pt_clust_8="13000.00000" pt_clust_9="29.05063"></scales>
<clustering>
<clus scale="   29.051">  1  9  2 -1</clus>
<clus scale="   90.027">  7  8 -1 -1</clus>
<clus scale="   90.994">  5  6 -1 -1</clus>
<clus scale="   94.779">  1  7  2 -1</clus>
<clus scale="   95.699">  2  5  1 -1</clus>
</clustering>
</event>
<event>
 9    1  0.1266593E-005  0.1043578E+03  0.7546771E-02  0.1272160E+00
         -2   -1    0    0    0  501 -0.00000000000E+00  0.00000000000E+00  0.44482256449E+02  0.44482256449E+02  0.00000000000E+00 0.  1.
          2   -1    0    0  502    0  0.00000000000E+00 -0.00000000000E+00 -0.48450920669E+03  0.48450920669E+03  0.00000000000E+00 0. -1.
         23    2    1    2    0    0  0.32595093633E+02  0.14127744038E+02 -0.14984468152E+03  0.17880471066E+03  0.90860677382E+02 0.  0.
         23    2    1    2    0    0 -0.56720103813E+02  0.45234495123E+02 -0.24501526392E+03  0.27179064366E+03  0.92597757555E+02 0.  0.
        -11    1    3    3    0    0  0.22338105577E+02 -0.37528181996E+02 -0.82143941070E+02  0.93032158199E+02  0.00000000000E+00 0. -1.
         11    1    3    3    0    0  0.10256988056E+02  0.51655926034E+02 -0.67700740451E+02  0.85772552464E+02  0.00000000000E+00 0.  1.
        -11    1    4    4    0    0 -0.27595318102E+02  0.69332568249E+02 -0.12117197232E+03  0.14230654756E+03  0.00000000000E+00 0.  1.
         11    1    4    4    0    0 -0.29124785711E+02 -0.24098073126E+02 -0.12384329160E+03  0.12948409611E+03  0.00000000000E+00 0. -1.
         21    1    1    2  502  501  0.24125010180E+02 -0.59362239162E+02 -0.45167004805E+02  0.78396108816E+02  0.00000000000E+00 0. -1.
<scales pt_clust_5="13000.00000" pt_clust_6="13000.00000" pt_clust_7="13000.00000" pt_clust_8="13000.00000" pt_clust_9="64.07723"></scales>
<clustering>
<clus scale="   64.077">  1  9  2 -1</clus>
<clus scale="   90.861">  5  6 -1 -1</clus>
<clus scale="   92.598">  7  8 -1 -1</clus>
<clus scale="  102.820">  1  5  2 -1</clus>
<clus scale="  104.358">  2  5  1 -1</clus>
</clustering>
</event>
<event>
 9    1  0.1266593E-005  0.1240222E+03  0.7546771E-02  0.1237395E+00
         -1   -1    0    0    0  501 -0.00000000000E+00  0.00000000000E+00  0.52169858687E+03  0.52169858687E+03  0.00000000000E+00 0.  1.
          1   -1    0    0  502    0  0.00000000000E+00 -0.00000000000E+00 -0.11449337573E+03  0.11449337573E+03  0.00000000000E+00 0. -1.
         23    2    1    2    0    0 -0.61329145609E+02  0.81969832601E+02  0.29819290079E+03  0.32853382944E+03  0.92385894193E+02 0.  0.
         23    2    1    2    0    0  0.36973343796E+02 -0.67649185656E+02 -0.60028771881E+02  0.13627209670E+03  0.94990475381E+02 0.  0.
        -13    1    4    4    0    0 -0.12030569530E+02 -0.32492881377E+02  0.16875563929E+02  0.38539675678E+02  0.00000000000E+00 0.  1.
         13    1    4    4    0    0  0.49003913326E+02 -0.35156304279E+02 -0.76904335810E+02  0.97732421019E+02  0.00000000000E+00 0. -1.
        -13    1    3    3    0    0 -0.26097983242E+02 -0.58800946535E+01  0.16659263230E+02  0.31515254938E+02  0.00000000000E+00 0. -1.
         13    1    3    3    0    0 -0.35231162367E+02  0.87849927255E+02  0.28153363756E+03  0.29701857450E+03  0.00000000000E+00 0.  1.
         21    1    1    2  502  501  0.24355801813E+02 -0.14320646945E+02  0.16904108224E+03  0.17138603646E+03  0.00000000000E+00 0.  1.
<scales pt_clust_5="13000.00000" pt_clust_6="13000.00000" pt_clust_7="13000.00000" pt_clust_8="13000.00000" pt_clust_9="28.25396"></scales>
<clustering>
<clus scale="   28.254">  1  9  2 -1</clus>
<clus scale="   92.386">  7  8 -1 -1</clus>
<clus scale="   94.990">  5  6 -1 -1</clus>
<clus scale="  122.039">  1  7  2 -1</clus>
<clus scale="  124.022">  2  5  1 -1</clus>
</clustering>
</event>
<event>
 9    1  0.1266593E-005  0.9998764E+02  0.7546771E-02  0.1280403E+00
          1   -1    0    0  502    0  0.00000000000E+00  0.00000000000E+00  0.12188816108E+03  0.12188816108E+03  0.00000000000E+00 0. -1.
         -1   -1    0    0    0  501 -0.00000000000E+00 -0.00000000000E+00 -0.14597730891E+03  0.14597730891E+03  0.00000000000E+00 0.  1.
         23    2    1    2    0    0 -0.23275517469E+02 -0.58550153562E+00 -0.43400225570E+01  0.94907104716E+02  0.91904462374E+02 0.  0.
         23    2    1    2    0    0  0.49991378435E+02  0.15632355072E+02  0.34088891156E+02  0.11100130723E+03  0.91737283931E+02 0.  0.
        -11    1    4    4    0    0  0.50648949465E+02  0.39375981161E+02 -0.59681427085E+01  0.64431379791E+02  0.00000000000E+00 0.  1.
         11    1    4    4    0    0 -0.65757102980E+00 -0.23743626089E+02  0.40057033864E+02  0.46569927437E+02  0.00000000000E+00 0. -1.
        -11    1    3    3    0    0  0.28098208093E+02 -0.19093818225E+02  0.14783775938E+02  0.37049200038E+02  0.00000000000E+00 0.  1.
         11    1    3    3    0    0 -0.51373725562E+02  0.18508316690E+02 -0.19123798496E+02  0.57857904678E+02  0.00000000000E+00 0. -1.
         21    1    1    2  502  501 -0.26715860967E+02 -0.15046853537E+02 -0.53838016431E+02  0.61957058046E+02  0.00000000000E+00 0. -1.
<scales pt_clust_5="13000.00000" pt_clust_6="13000.00000" pt_clust_7="13000.00000" pt_clust_8="13000.00000" pt_clust_9="30.66178"></scales>
<clustering>
<clus scale="   30.662">  2  9  1 -1</clus>
<clus scale="   91.737">  5  6 -1 -1</clus>
<clus scale="   91.904">  7  8 -1 -1</clus>
<clus scale="   99.834">  1  5  2 -1</clus>
<clus scale="   99.834">  1  5  2 -1</clus>
</clustering>
</event>
<event>
 9    1  0.1266593E-005  0.1158176E+03  0.7546771E-02  0.1250419E+00
         -1   -1    0    0    0  501 -0.00000000000E+00  0.00000000000E+00  0.40434977736E+02  0.40434977736E+02  0.00000000000E+00 0.  1.
          1   -1    0    0  502    0  0.00000000000E+00 -0.00000000000E+00 -0.68815834240E+03  0.68815834240E+03  0.00000000000E+00 0. -1.
         23    2    1    2    0    0 -0.18236200654E+02  0.51998827350E+02 -0.13506559000E+03  0.17140617842E+03  0.90005151732E+02 0.  0.
         23    2    1    2    0    0  0.81923462773E+02 -0.33409413135E+02 -0.44510613695E+03  0.46250421065E+03  0.89235806059E+02 0.  0.
        -13    1    3    3    0    0 -0.96322269766E+01 -0.25409528857E+02 -0.42348655276E+02  0.50317318658E+02  0.00000000000E+00 0.  1.
         13    1    3    3    0    0 -0.86039736777E+01  0.77408356207E+02 -0.92716934725E+02  0.12108885976E+03  0.00000000000E+00 0. -1.
        -13    1    4    4    0    0  0.37596544181E+02  0.26794231150E+02 -0.23502812963E+03  0.23951962900E+03  0.00000000000E+00 0. -1.
         13    1    4    4    0    0  0.44326918591E+02 -0.60203644285E+02 -0.21007800731E+03  0.22298458165E+03  0.00000000000E+00 0.  1.
         21    1    1    2  502  501 -0.63687262118E+02 -0.18589414215E+02 -0.67551637720E+02  0.94682931068E+02  0.00000000000E+00 0.  1.
<scales pt_clust_5="13000.00000" pt_clust_6="13000.00000" pt_clust_7="13000.00000" pt_clust_8="13000.00000" pt_clust_9="66.34481"></scales>
<clustering>
<clus scale="   66.345">  1  9  2 -1</clus>
<clus scale="   89.236">  7  8 -1 -1</clus>
<clus scale="   90.005">  5  6 -1 -1</clus>
<clus scale="  115.221">  2  7  1 -1</clus>
<clus scale="  115.221">  2  5  1 -1</clus>
</clustering>
</event>
<event>
 9    1  0.1266593E-005  0.1258831E+03  0.7546771E-02  0.1233786E+00
          1   -1    0    0  502    0  0.00000000000E+00  0.00000000000E+00  0.15966502485E+03  0.15966502485E+03  0.00000000000E+00 0. -1.
         -1   -1    0    0    0  501 -0.00000000000E+00 -0.00000000000E+00 -0.13595706177E+03  0.13595706177E+03  0.00000000000E+00 0.  1.
         23    2    1    2    0    0  0.47829922110E+02  0.59158427711E+02 -0.99939039751E+00  0.11925471619E+03  0.91832823835E+02 0.  0.
         23    2    1    2    0    0 -0.40022333081E+02 -0.86043005038E+02  0.47642290891E+02  0.14017689794E+03  0.91512780387E+02 0.  0.
        -11    1    3    3    0    0 -0.16966598924E+02  0.42796239435E+02 -0.19369332817E+02  0.49945516742E+02  0.00000000000E+00 0.  1.
         11    1    3    3    0    0  0.64796521034E+02  0.16362188277E+02  0.18369942420E+02  0.69309199446E+02  0.00000000000E+00 0. -1.
        -13    1    4    4    0    0  0.21117168155E+02 -0.35462625689E+02  0.44601619417E+02  0.60768717826E+02  0.00000000000E+00 0. -1.
         13    1    4    4    0    0 -0.61139501235E+02 -0.50580379349E+02  0.30406714748E+01  0.79408180116E+02  0.00000000000E+00 0.  1.
         21    1    1    2  502  501 -0.78075890296E+01  0.26884577327E+02 -0.22934937422E+02  0.36190472490E+02  0.00000000000E+00 0. -1.
<scales pt_clust_5="13000.00000" pt_clust_6="13000.00000" pt_clust_7="13000.00000" pt_clust_8="13000.00000" pt_clust_9="27.99534"></scales>
<clustering>
<clus scale="   27.995">  2  9  1 -1</clus>
<clus scale="   91.513">  7  8 -1 -1</clus>
<clus scale="   91.833">  5  6 -1 -1</clus>
<clus scale="  125.650">  1  7  2 -1</clus>
<clus scale="  125.650">  1  5  2 -1</clus>
</clustering>
</event>
<event>
 9    1  0.1266593E-005  0.9301305E+02  0.7546771E-02  0.1295858E+00
          4   -1    0    0  502    0  0.00000000000E+00  0.00000000000E+00  0.12938972064E+03  0.12938972064E+03  0.00000000000E+00 0. -1.
         -4   -1    0    0    0  501 -0.00000000000E+00 -0.00000000000E+00 -0.11074027383E+03  0.11074027383E+03  0.00000000000E+00 0.  1.
         23    2    1    2    0    0  0.11471516671E+02 -0.23073235058E+02  0.29472931362E+02  0.99343019919E+02  0.91303954202E+02 0.  0.
         23    2    1    2    0    0  0.29199506736E+01  0.88833208361E+01  0.28694229127E+02  0.96400966706E+02  0.91555164221E+02 0.  0.
        -11    1    3    3    0    0 -0.24771311382E+02 -0.39473824668E+02 -0.47804829055E+01  0.46847131378E+02  0.00000000000E+00 0. -1.
         11    1    3    3    0    0  0.36242828053E+02  0.16400589610E+02  0.34253414267E+02  0.52495888542E+02  0.00000000000E+00 0.  1.
        -11    1    4    4    0    0  0.36029002580E+02  0.34238711200E+02  0.99948556734E+01  0.50697884685E+02  0.00000000000E+00 0.  1.
         11    1    4    4    0    0 -0.33109051907E+02 -0.25355390364E+02  0.18699373454E+02  0.45703082021E+02  0.00000000000E+00 0. -1.
         21    1    1    2  502  501 -0.14391467345E+02  0.14189914222E+02 -0.39517713679E+02  0.44386007844E+02  0.00000000000E+00 0.  1.
<scales pt_clust_5="13000.00000" pt_clust_6="13000.00000" pt_clust_7="13000.00000" pt_clust_8="13000.00000" pt_clust_9="20.21059"></scales>
<clustering>
<clus scale="   20.211">  2  9  1 -1</clus>
<clus scale="   91.304">  5  6 -1 -1</clus>
<clus scale="   91.555">  7  8 -1 -1</clus>
<clus scale="   92.766">  2  5  1 -1</clus>
<clus scale="   93.013">  1  5  2 -1</clus>
</clustering>
</event>
<event>
 9    1  0.1266593E-005  0.1040986E+03  0.7546771E-02  0.1272328E+00
         -1   -1    0    0    0  501 -0.00000000000E+00  0.00000000000E+00  0.10090384001E+03  0.10090384001E+03  0.00000000000E+00 0.  1.
          1   -1    0    0  502    0  0.00000000000E+00 -0.00000000000E+00 -0.26047514924E+03  0.26047514924E+03  0.00000000000E+00 0. -1.
         23    2    1    2    0    0  0.52263796127E+01  0.85615181621E+01  0.83343255934E+01  0.92143948217E+02  0.91216399692E+02 0.  0.
         23    2    1    2    0    0 -0.36592911248E+01 -0.62576146457E+02 -0.18270895197E+03  0.21320670860E+03  0.90251730974E+02 0.  0.
        -11    1    3    3    0    0 -0.24380821838E+02  0.20240775370E+01  0.40893699701E+02  0.47653080053E+02  0.00000000000E+00 0.  1.
         11    1    3    3    0    0  0.29607201450E+02  0.65374406251E+01 -0.32559374107E+02  0.44490868163E+02  0.00000000000E+00 0. -1.
        -11    1    4    4    0    0  0.39438563174E+02 -0.44185752732E+02 -0.73666070750E+02  0.94522330640E+02  0.00000000000E+00 0. -1.
         11    1    4    4    0    0 -0.43097854298E+02 -0.18390393724E+02 -0.10904288122E+03  0.11868437796E+03  0.00000000000E+00 0.  1.
         21    1    1    2  502  501 -0.15670884879E+01  0.54014628295E+02  0.14803317148E+02  0.56028332429E+02  0.00000000000E+00 0.  1.
<scales pt_clust_5="13000.00000" pt_clust_6="13000.00000" pt_clust_7="13000.00000" pt_clust_8="13000.00000" pt_clust_9="54.03736"></scales>
<clustering>
<clus scale="   54.037">  1  9  2 -1</clus>
<clus scale="   90.252">  7  8 -1 -1</clus>
<clus scale="   91.216">  5  6 -1 -1</clus>
<clus scale="  103.254">  2  7  1 -1</clus>
<clus scale="  103.254">  2  5  1 -1</clus>
</clustering>
</event>
<event>
 9    1  0.1266593E-005  0.9172600E+02  0.7546771E-02  0.1299744E+00
         -2   -1    0    0    0  501 -0.00000000000E+00  0.00000000000E+00  0.19446603561E+03  0.19446603561E+03  0.00000000000E+00 0.  1.
          2   -1    0    0  502    0  0.00000000000E+00 -0.00000000000E+00 -0.64755199224E+02  0.64755199224E+02  0.00000000000E+00 0. -1.
         23    2    1    2    0    0 -0.12307433204E+01  0.47675663980E+01  0.82961395546E+02  0.12159006627E+03  0.88754192275E+02 0.  0.
         23    2    1    2    0    0  0.14662472390E+02  0.19767350928E+02  0.14413316452E+02  0.94876069985E+02  0.90487505797E+02 0.  0.
        -11    1    4    4    0    0  0.40996628169E+02 -0.18819282707E+02 -0.25336538801E+01  0.45180840240E+02  0.00000000000E+00 0. -1.
         11    1    4    4    0    0 -0.26334155779E+02  0.38586633636E+02  0.16946970333E+02  0.49695229745E+02  0.00000000000E+00 0.  1.
        -11    1    3    3    0    0  0.34466143188E+02  0.28642238444E+02  0.32673534034E+02  0.55460370316E+02  0.00000000000E+00 0. -1.
         11    1    3    3    0    0 -0.35696886508E+02 -0.23874672046E+02  0.50287861512E+02  0.66129695955E+02  0.00000000000E+00 0.  1.
         21    1    1    2  502  501 -0.13431729070E+02 -0.24534917326E+02  0.32336124392E+02  0.42755098581E+02  0.00000000000E+00 0.  1.
<scales pt_clust_5="13000.00000" pt_clust_6="13000.00000" pt_clust_7="13000.00000" pt_clust_8="13000.00000" pt_clust_9="27.97094"></scales>
<clustering>
<clus scale="   27.971">  1  9  2 -1</clus>
<clus scale="   88.754">  7  8 -1 -1</clus>
<clus scale="   90.017">  1  7  2 -1</clus>
<clus scale="   90.488">  5  6 -1 -1</clus>
<clus scale="   91.726">  2  5  1 -1</clus>
</clustering>
</event>
<event>
 9    1  0.1266593E-005  0.1083755E+03  0.7546771E-02  0.1274838E+00
          1   -1    0    0  502    0  0.00000000000E+00  0.00000000000E+00  0.79021354058E+03  0.79021354058E+03  0.00000000000E+00 0. -1.
         -1   -1    0    0    0  501 -0.00000000000E+00 -0.00000000000E+00 -0.23605735289E+02  0.23605735289E+02  0.00000000000E+00 0.  1.
         23    2    1    2    0    0 -0.25907035170E+01 -0.27321162562E+02  0.16007597393E+03  0.18404593363E+03  0.86576154851E+02 0.  0.
         23    2    1    2    0    0  0.10285333231E+02 -0.25622817819E+02  0.47281157180E+03  0.48574771881E+03  0.10787839001E+03 0.  0.
        -11    1    3    3    0    0 -0.73226169791E+01  0.31075647198E+02  0.49397141991E+02  0.58816615043E+02  0.00000000000E+00 0. -1.
         11    1    3    3    0    0  0.47319134620E+01 -0.58396809760E+02  0.11067883194E+03  0.12522931859E+03  0.00000000000E+00 0.  1.
        -11    1    4    4    0    0  0.11275063434E+02  0.41679988793E+02  0.21510926054E+03  0.21939996010E+03  0.00000000000E+00 0. -1.
         11    1    4    4    0    0 -0.98973020318E+00 -0.67302806612E+02  0.25770231125E+03  0.26634775871E+03  0.00000000000E+00 0.  1.
         21    1    1    2  502  501 -0.76946297140E+01  0.52943980382E+02  0.13372025957E+03  0.14402562343E+03  0.00000000000E+00 0. -1.
<scales pt_clust_5="13000.00000" pt_clust_6="13000.00000" pt_clust_7="13000.00000" pt_clust_8="13000.00000" pt_clust_9="53.50021"></scales>
<clustering>
<clus scale="   53.500">  2  9  1 -1</clus>
<clus scale="   86.576">  5  6 -1 -1</clus>
<clus scale="   87.195">  2  5  1 -1</clus>
<clus scale="  107.878">  7  8 -1 -1</clus>
<clus scale="  108.375">  1  5  2 -1</clus>
</clustering>
</event>
<event>
 9    1  0.1266593E-005  0.1481793E+03  0.7546771E-02  0.1202898E+00
          1   -1    0    0  502    0  0.00000000000E+00  0.00000000000E+00  0.87701814019E+03  0.87701814019E+03  0.00000000000E+00 0. -1.
         -1   -1    0    0    0  501 -0.00000000000E+00 -0.00000000000E+00 -0.36457639878E+02  0.36457639878E+02  0.00000000000E+00 0.  1.
         23    2    1    2    0    0 -0.96004395685E+02  0.68582167412E+02  0.34447131934E+03  0.37563781065E+03  0.92319647227E+02 0.  0.
         23    2    1    2    0    0  0.80737958107E+02 -0.82172898991E+02  0.49605184819E+03  0.51739846123E+03  0.91447954475E+02 0.  0.
        -11    1    3    3    0    0 -0.58594969998E+02 -0.81875405579E+01  0.19164152238E+03  0.20056639657E+03  0.00000000000E+00 0. -1.
         11    1    3    3    0    0 -0.37409425686E+02  0.76769707970E+02  0.15282979696E+03  0.17507141409E+03  0.00000000000E+00 0.  1.
        -13    1    4    4    0    0  0.64283020836E+02 -0.18146728902E+02  0.13824392592E+03  0.15353499142E+03  0.00000000000E+00 0.  1.
         13    1    4    4    0    0  0.16454937271E+02 -0.64026170089E+02  0.35780792227E+03  0.36386346980E+03  0.00000000000E+00 0. -1.
         21    1    1    2  502  501  0.15266437578E+02  0.13590731579E+02  0.37332774307E-01  0.20439508186E+02  0.00000000000E+00 0.  1.
<scales pt_clust_5="13000.00000" pt_clust_6="13000.00000" pt_clust_7="13000.00000" pt_clust_8="13000.00000" pt_clust_9="20.43947"></scales>
<clustering>
<clus scale="   20.439">  2  9  1 -1</clus>
<clus scale="   91.448">  7  8 -1 -1</clus>
<clus scale="   92.320">  5  6 -1 -1</clus>
<clus scale="  147.638">  1  7  2 -1</clus>
<clus scale="  147.638">  1  5  2 -1</clus>
</clustering>
</event>
<event>
 9    1  0.1266593E-005  0.1027490E+03  0.7546771E-02  0.1275249E+00
         -2   -1    0    0    0  501 -0.00000000000E+00  0.00000000000E+00  0.71606244543E+02  0.71606244543E+02  0.00000000000E+00 0.  1.
          2   -1    0    0  502    0  0.00000000000E+00 -0.00000000000E+00 -0.42284800373E+03  0.42284800373E+03  0.00000000000E+00 0. -1.
         23    2    1    2    0    0  0.41992861333E+02 -0.16242528955E+02  0.96706786520E+01  0.10037421677E+03  0.89186552888E+02 0.  0.
         23    2    1    2    0    0 -0.76159774049E+02 -0.29622081725E+01 -0.28598276434E+03  0.30951848100E+03  0.90589528770E+02 0.  0.
        -11    1    4    4    0    0 -0.66952437354E+02 -0.28552595735E+02 -0.26597692667E+03  0.27575642352E+03  0.00000000000E+00 0.  1.
         11    1    4    4    0    0 -0.92073366948E+01  0.25590387562E+02 -0.20005837664E+02  0.33762057479E+02  0.00000000000E+00 0. -1.
        -13    1    3    3    0    0  0.25098527133E+02  0.18163602496E+02  0.40635766785E+02  0.51099100404E+02  0.00000000000E+00 0.  1.
         13    1    3    3    0    0  0.16894334201E+02 -0.34406131452E+02 -0.30965088133E+02  0.49275116363E+02  0.00000000000E+00 0. -1.
         21    1    1    2  502  501  0.34166912715E+02  0.19204737128E+02 -0.74929673503E+02  0.84561550506E+02  0.00000000000E+00 0. -1.
<scales pt_clust_5="13000.00000" pt_clust_6="13000.00000" pt_clust_7="13000.00000" pt_clust_8="13000.00000" pt_clust_9="39.19439"></scales>
<clustering>
<clus scale="   39.194">  2  9  1 -1</clus>
<clus scale="   89.187">  7  8 -1 -1</clus>
<clus scale="   90.590">  5  6 -1 -1</clus>
<clus scale="  101.514">  1  7  2 -1</clus>
<clus scale="   39.194">  2  5  1 -1</clus>
</clustering>
</event>
<event>
 9    1  0.1266593E-005  0.9830104E+02  0.7546771E-02  0.1284337E+00
          1   -1    0    0  502    0  0.00000000000E+00  0.00000000000E+00  0.23465946985E+03  0.23465946985E+03  0.00000000000E+00 0. -1.
         -1   -1    0    0    0  501 -0.00000000000E+00 -0.00000000000E+00 -0.17559855223E+03  0.17559855223E+03  0.00000000000E+00 0.  1.
         23    2    1    2    0    0  0.18269838154E+02  0.22065782325E+02 -0.11324569763E+03  0.14848759122E+03  0.91669465909E+02 0.  0.
         23    2    1    2    0    0  0.12647377688E+02 -0.32521102910E+02  0.19728311550E+03  0.22067282109E+03  0.92511015618E+02 0.  0.
        -11    1    4    4    0    0  0.36254948440E+02  0.16183408988E+02  0.11941298587E+03  0.12584031630E+03  0.00000000000E+00 0.  1.
         11    1    4    4    0    0 -0.23607570752E+02 -0.48704511898E+02  0.77870129629E+02  0.94832504788E+02  0.00000000000E+00 0. -1.
        -11    1    3    3    0    0  0.22093053075E+02 -0.10181246841E+02 -0.11343511151E+03  0.11601415993E+03  0.00000000000E+00 0.  1.
         11    1    3    3    0    0 -0.38232149202E+01  0.32247029166E+02  0.18941387881E+00  0.32473431294E+02  0.00000000000E+00 0. -1.
         21    1    1    2  502  501 -0.30917215842E+02  0.10455320585E+02 -0.24976500252E+02  0.41097609770E+02  0.00000000000E+00 0. -1.
<scales pt_clust_5="13000.00000" pt_clust_6="13000.00000" pt_clust_7="13000.00000" pt_clust_8="13000.00000" pt_clust_9="32.63722"></scales>
<clustering>
<clus scale="   32.637">  2  9  1 -1</clus>
<clus scale="   91.669">  7  8 -1 -1</clus>
<clus scale="   92.511">  5  6 -1 -1</clus>
<clus scale="   97.509">  2  7  1 -1</clus>
<clus scale="   98.301">  1  5  2 -1</clus>
</clustering>
</event>
<event>
 9    1  0.1266593E-005  0.1125083E+03  0.7546771E-02  0.1258156E+00
         -2   -1    0    0    0  501 -0.00000000000E+00  0.00000000000E+00  0.53016635330E+02  0.53016635330E+02  0.00000000000E+00 0.  1.
          2   -1    0    0  502    0  0.00000000000E+00 -0.00000000000E+00 -0.32295188172E+03  0.32295188172E+03  0.00000000000E+00 0. -1.
         23    2    1    2    0    0 -0.57111034202E+02  0.45307119748E+01 -0.12462375143E+03  0.16672394253E+03  0.94781833769E+02 0.  0.
         23    2    1    2    0    0  0.38891705903E+02 -0.32292815664E+02 -0.13266974593E+03  0.17371300907E+03  0.10009773875E+03 0.  0.
        -11    1    3    3    0    0  0.17640155198E+02 -0.19400327482E+02 -0.58451043321E+02  0.64063033390E+02  0.00000000000E+00 0.  1.
         11    1    3    3    0    0 -0.74751189401E+02  0.23931039457E+02 -0.66172708110E+02  0.10266090914E+03  0.00000000000E+00 0. -1.
        -11    1    4    4    0    0  0.41788529706E+02  0.20381197967E+02 -0.10342645322E+03  0.11339623306E+03  0.00000000000E+00 0.  1.
         11    1    4    4    0    0 -0.28968238030E+01 -0.52674013631E+02 -0.29243292714E+02  0.60316776015E+02  0.00000000000E+00 0. -1.
         21    1    1    2  502  501  0.18219328299E+02  0.27762103689E+02 -0.12641749022E+02  0.35531565449E+02  0.00000000000E+00 0. -1.
<scales pt_clust_5="13000.00000" pt_clust_6="13000.00000" pt_clust_7="13000.00000" pt_clust_8="13000.00000" pt_clust_9="33.20660"></scales>
<clustering>
<clus scale="   33.207">  1  9  2 -1</clus>
<clus scale="   94.782">  5  6 -1 -1</clus>
<clus scale="  100.098">  7  8 -1 -1</clus>
<clus scale="  107.806">  1  5  2 -1</clus>
<clus scale="  112.508">  2  5  1 -1</clus>
</clustering>
</event>
<event>
 9    1  0.1266593E-005  0.1019743E+03  0.7546771E-02  0.1276222E+00
         -1   -1    0    0    0  501 -0.00000000000E+00  0.00000000000E+00  0.10080953427E+03  0.10080953427E+03  0.00000000000E+00 0.  1.
          1   -1    0    0  502    0  0.00000000000E+00 -0.00000000000E+00 -0.45421798359E+03  0.45421798359E+03  0.00000000000E+00 0. -1.
         23    2    1    2    0    0  0.48533643292E+02 -0.17115999329E+02  0.31984580621E+02  0.10917262471E+03  0.90813967116E+02 0.  0.
         23    2    1    2    0    0  0.25798887412E+02  0.67647444799E+02 -0.30066950174E+03  0.32233635878E+03  0.90867043177E+02 0.  0.
        -11    1    3    3    0    0 -0.16499157626E+02  0.16206721645E+02 -0.96623569575E+01  0.25064739593E+02  0.00000000000E+00 0. -1.
         11    1    3    3    0    0  0.65032800919E+02 -0.33322720974E+02  0.41646937578E+02  0.84107885113E+02  0.00000000000E+00 0.  1.
        -11    1    4    4    0    0 -0.94273440614E+01 -0.19723512601E+02 -0.62495488947E+02  0.66208593884E+02  0.00000000000E+00 0. -1.
         11    1    4    4    0    0  0.35226231473E+02  0.87370957400E+02 -0.23817401279E+03  0.25612776489E+03  0.00000000000E+00 0.  1.
         21    1    1    2  502  501 -0.74332530704E+02 -0.50531445470E+02 -0.84723528213E+02  0.12351853438E+03  0.00000000000E+00 0. -1.
<scales pt_clust_5="13000.00000" pt_clust_6="13000.00000" pt_clust_7="13000.00000" pt_clust_8="13000.00000" pt_clust_9="89.88188"></scales>
<clustering>
<clus scale="   89.882">  2  9  1 -1</clus>
<clus scale="   90.814">  5  6 -1 -1</clus>
<clus scale="   90.867">  7  8 -1 -1</clus>
<clus scale="  101.927">  1  5  2 -1</clus>
<clus scale="   89.882">  2  5  1 -1</clus>
</clustering>
</event>
<event>
 9    1  0.1266593E-005  0.9923008E+02  0.7546771E-02  0.1281945E+00
         -3   -1    0    0    0  501 -0.00000000000E+00  0.00000000000E+00  0.33491436896E+03  0.33491436896E+03  0.00000000000E+00 0.  1.
          3   -1    0    0  502    0  0.00000000000E+00 -0.00000000000E+00 -0.61278124550E+02  0.61278124550E+02  0.00000000000E+00 0. -1.
         23    2    1    2    0    0  0.38059205037E+01 -0.25161224634E+00  0.17422963177E+03  0.19671696500E+03  0.91252678827E+02 0.  0.
         23    2    1    2    0    0  0.27312613695E+02  0.47059278977E+02  0.30391144123E+02  0.11046735063E+03  0.91207780965E+02 0.  0.
        -13    1    4    4    0    0 -0.16668986707E+02  0.30121428354E+02  0.48925480936E+02  0.59823559312E+02  0.00000000000E+00 0.  1.
         13    1    4    4    0    0  0.43981600402E+02  0.16937850624E+02 -0.18534336813E+02  0.50643791315E+02  0.00000000000E+00 0. -1.
        -13    1    3    3    0    0  0.40553997202E+02  0.15468704801E+02  0.49975978815E+02  0.66192945061E+02  0.00000000000E+00 0. -1.
         13    1    3    3    0    0 -0.36748076698E+02 -0.15720317047E+02  0.12425365295E+03  0.13052401994E+03  0.00000000000E+00 0.  1.
         21    1    1    2  502  501 -0.31118534198E+02 -0.46807666731E+02  0.69015468521E+02  0.89008177886E+02  0.00000000000E+00 0.  1.
<scales pt_clust_5="13000.00000" pt_clust_6="13000.00000" pt_clust_7="13000.00000" pt_clust_8="13000.00000" pt_clust_9="56.20784"></scales>
<clustering>
<clus scale="   56.208">  1  9  2 -1</clus>
<clus scale="   91.208">  5  6 -1 -1</clus>
<clus scale="   91.253">  7  8 -1 -1</clus>
<clus scale="   99.189">  2  5  1 -1</clus>
<clus scale="   99.189">  2  5  1 -1</clus>
</clustering>
</event>
<event>
 9    1  0.1266593E-005  0.1572771E+03  0.7546771E-02  0.1215677E+00
          2   -1    0    0  502    0  0.00000000000E+00  0.00000000000E+00  0.48417418694E+03  0.48417418694E+03  0.00000000000E+00 0. -1.
         -2   -1    0    0    0  501 -0.00000000000E+00 -0.00000000000E+00 -0.19322932345E+03  0.19322932345E+03  0.00000000000E+00 0.  1.
         23    2    1    2    0    0  0.16198774930E+02 -0.11485563162E+02  0.32360931002E+02  0.99368601743E+02  0.91829029651E+02 0.  0.
         23    2    1    2    0    0 -0.11454432457E+03  0.61781855328E+02  0.38120988797E+03  0.41299343174E+03  0.91132848276E+02 0.  0.
        -13    1    4    4    0    0 -0.74373375810E+02  0.16852837477E+02  0.31216437656E+03  0.32134407595E+03  0.00000000000E+00 0. -1.
         13    1    4    4    0    0 -0.40170948763E+02  0.44929017851E+02  0.69045511416E+02  0.91649355787E+02  0.00000000000E+00 0.  1.
        -13    1    3    3    0    0 -0.23393584769E+02 -0.29294814674E+02  0.40511983377E+02  0.55196619211E+02  0.00000000000E+00 0. -1.
         13    1    3    3    0    0  0.39592359699E+02  0.17809251512E+02 -0.81510523757E+01  0.44171982532E+02  0.00000000000E+00 0.  1.
         21    1    1    2  502  501  0.98345549642E+02 -0.50296292166E+02 -0.12262595549E+03  0.16504147691E+03  0.00000000000E+00 0.  1.
<scales pt_clust_5="13000.00000" pt_clust_6="13000.00000" pt_clust_7="13000.00000" pt_clust_8="13000.00000" pt_clust_9="128.18300"></scales>
<clustering>
<clus scale="   91.133">  5  6 -1 -1</clus>
<clus scale="   91.829">  7  8 -1 -1</clus>
<clus scale="   93.952">  2  7  1 -1</clus>
<clus scale="  128.183">  2  9  1 -1</clus>
<clus scale="  157.277">  1  5  2 -1</clus>
</clustering>
</event>
<event>
 9    1  0.1266593E-005  0.1121845E+03  0.7546771E-02  0.1257350E+00
         -2   -1    0    0    0  501 -0.00000000000E+00  0.00000000000E+00  0.55914056044E+02  0.55914056044E+02  0.00000000000E+00 0.  1.
          2   -1    0    0  502    0  0.00000000000E+00 -0.00000000000E+00 -0.36299236874E+03  0.36299236874E+03  0.00000000000E+00 0. -1.
         23    2    1    2    0    0  0.61276371307E+02  0.31180846891E+02 -0.59421097488E+02  0.13058311710E+03  0.93776568245E+02 0.  0.
         23    2    1    2    0    0 -0.40375310030E+02 -0.44728218459E+02 -0.23709830664E+03  0.26127009735E+03  0.91737002209E+02 0.  0.
        -11    1    3    3    0    0  0.78687097658E+02 -0.17399123902E+01 -0.44885469125E+02  0.90605695028E+02  0.00000000000E+00 0.  1.
         11    1    3    3    0    0 -0.17410726351E+02  0.32920759281E+02 -0.14535628362E+02  0.39977422073E+02  0.00000000000E+00 0. -1.
        -13    1    4    4    0    0 -0.65179574395E+02 -0.51373326594E+02 -0.19547340899E+03  0.21236160016E+03  0.00000000000E+00 0. -1.
         13    1    4    4    0    0  0.24804264365E+02  0.66451081352E+01 -0.41624897650E+02  0.48908497188E+02  0.00000000000E+00 0.  1.
         21    1    1    2  502  501 -0.20901061277E+02  0.13547371568E+02 -0.10558908570E+02  0.27053210329E+02  0.00000000000E+00 0.  1.
<scales pt_clust_5="13000.00000" pt_clust_6="13000.00000" pt_clust_7="13000.00000" pt_clust_8="13000.00000" pt_clust_9="24.90754"></scales>
<clustering>
<clus scale="   24.908">  1  9  2 -1</clus>
<clus scale="   91.737">  7  8 -1 -1</clus>
<clus scale="   93.777">  5  6 -1 -1</clus>
<clus scale="  110.485">  2  7  1 -1</clus>
<clus scale="  110.485">  2  5  1 -1</clus>
</clustering>
</event>
<event>
 9    1  0.1266593E-005  0.1196268E+03  0.7546771E-02  0.1243911E+00
          1   -1    0    0  502    0  0.00000000000E+00  0.00000000000E+00  0.19303938377E+03  0.19303938377E+03  0.00000000000E+00 0. -1.
         -1   -1    0    0    0  501 -0.00000000000E+00 -0.00000000000E+00 -0.10072375432E+03  0.10072375432E+03  0.00000000000E+00 0.  1.
         23    2    1    2    0    0 -0.30958598037E+01 -0.85667256263E+02 -0.56363723994E+01  0.12547993008E+03  0.91460270151E+02 0.  0.
         23    2    1    2    0    0 -0.67088883961E+01  0.61083655876E+02  0.85356944228E+02  0.13897242549E+03  0.90836693693E+02 0.  0.
        -11    1    3    3    0    0 -0.32330446201E+02 -0.12855442758E+02 -0.27138897824E+02  0.44125275468E+02  0.00000000000E+00 0.  1.
         11    1    3    3    0    0  0.29234586397E+02 -0.72811813505E+02  0.21502525425E+02  0.81354654614E+02  0.00000000000E+00 0. -1.
        -11    1    4    4    0    0  0.37889135547E+02  0.42265142300E+02  0.26148904906E+02  0.62495552433E+02  0.00000000000E+00 0. -1.
         11    1    4    4    0    0 -0.44598023943E+02  0.18818513575E+02  0.59208039323E+02  0.76476873061E+02  0.00000000000E+00 0.  1.
         21    1    1    2  502  501  0.98047481998E+01  0.24583600387E+02  0.12595057625E+02  0.29310782518E+02  0.00000000000E+00 0. -1.
<scales pt_clust_5="13000.00000" pt_clust_6="13000.00000" pt_clust_7="13000.00000" pt_clust_8="13000.00000" pt_clust_9="26.46671"></scales>
<clustering>
<clus scale="   26.467">  1  9  2 -1</clus>
<clus scale="   90.837">  7  8 -1 -1</clus>
<clus scale="   91.460">  5  6 -1 -1</clus>
<clus scale="  119.151">  1  7  2 -1</clus>
<clus scale="   26.467">  1  5  2 -1</clus>
</clustering>
</event>
<event>
 9    1  0.1266593E-005  0.9835784E+02  0.7546771E-02  0.1284380E+00
         -1   -1    0    0    0  501 -0.00000000000E+00  0.00000000000E+00  0.14517098894E+03  0.14517098894E+03  0.00000000000E+00 0.  1.
          1   -1    0    0  502    0  0.00000000000E+00 -0.00000000000E+00 -0.10314712888E+03  0.10314712888E+03  0.00000000000E+00 0. -1.
         23    2    1    2    0    0 -0.83397364650E+01 -0.19623376294E+02  0.40473018015E+02  0.10270185604E+03  0.91950954015E+02 0.  0.
         23    2    1    2    0    0  0.34458570641E+02  0.26182818989E+02 -0.29220813600E+02  0.10472476415E+03  0.90777129163E+02 0.  0.
        -11    1    3    3    0    0 -0.85657461491E+01 -0.56565140832E+02  0.28131710599E+02  0.63752492545E+02  0.00000000000E+00 0.  1.
         11    1    3    3    0    0  0.22600968409E+00  0.36941764538E+02  0.12341307416E+02  0.38949363490E+02  0.00000000000E+00 0. -1.
        -11    1    4    4    0    0  0.64735832795E+02  0.26584730352E+02 -0.24096460558E+02  0.74014291505E+02  0.00000000000E+00 0. -1.
         11    1    4    4    0    0 -0.30277262154E+02 -0.40191136260E+00 -0.51243530415E+01  0.30710472650E+02  0.00000000000E+00 0.  1.
         21    1    1    2  502  501 -0.26118834176E+02 -0.65594426953E+01  0.30771655646E+02  0.40891497630E+02  0.00000000000E+00 0. -1.
<scales pt_clust_5="13000.00000" pt_clust_6="13000.00000" pt_clust_7="13000.00000" pt_clust_8="13000.00000" pt_clust_9="26.92991"></scales>
<clustering>
<clus scale="   26.930">  1  9  2 -1</clus>
<clus scale="   90.777">  7  8 -1 -1</clus>
<clus scale="   91.951">  5  6 -1 -1</clus>
<clus scale="   97.261">  2  7  1 -1</clus>
<clus scale="   97.261">  2  5  1 -1</clus>
</clustering>
</event>
<event>
 9    1  0.1266593E-005  0.1011273E+03  0.7546771E-02  0.1278144E+00
          1   -1    0    0  502    0  0.00000000000E+00  0.00000000000E+00  0.22211046688E+03  0.22211046688E+03  0.00000000000E+00 0. -1.
         -1   -1    0    0    0  501 -0.00000000000E+00 -0.00000000000E+00 -0.14452790426E+03  0.14452790426E+03  0.00000000000E+00 0.  1.
         23    2    1    2    0    0  0.21233049465E+02  0.43595968287E+02  0.28597131664E+02  0.10886960821E+03  0.93184466578E+02 0.  0.
         23    2    1    2    0    0 -0.34675843559E+02 -0.16524423414E+02  0.13405677813E+03  0.16748747270E+03  0.92765096094E+02 0.  0.
        -13    1    4    4    0    0  0.81968989055E+01 -0.46962933342E+02  0.59168926761E+02  0.75984657358E+02  0.00000000000E+00 0.  1.
         13    1    4    4    0    0 -0.42872742464E+02  0.30438509928E+02  0.74887851370E+02  0.91502815344E+02  0.00000000000E+00 0. -1.
        -13    1    3    3    0    0  0.18992085845E+02 -0.27378090100E+02  0.15128537442E+02  0.36594149633E+02  0.00000000000E+00 0.  1.
         13    1    3    3    0    0  0.22409636204E+01  0.70974058387E+02  0.13468594223E+02  0.72275458575E+02  0.00000000000E+00 0. -1.
         21    1    1    2  502  501  0.13442794093E+02 -0.27071544874E+02 -0.85071347178E+02  0.90281290230E+02  0.00000000000E+00 0.  1.
<scales pt_clust_5="13000.00000" pt_clust_6="13000.00000" pt_clust_7="13000.00000" pt_clust_8="13000.00000" pt_clust_9="30.22544"></scales>
<clustering>
<clus scale="   30.225">  2  9  1 -1</clus>
<clus scale="   92.765">  5  6 -1 -1</clus>
<clus scale="   93.184">  7  8 -1 -1</clus>
<clus scale="  100.741">  1  5  2 -1</clus>
<clus scale="  100.741">  1  5  2 -1</clus>
</clustering>
</event>
<event>
 9    1  0.1266593E-005  0.9760620E+02  0.7546771E-02  0.1286495E+00
         -1   -1    0    0    0  501 -0.00000000000E+00  0.00000000000E+00  0.50857481473E+02  0.50857481473E+02  0.00000000000E+00 0.  1.
          1   -1    0    0  502    0  0.00000000000E+00 -0.00000000000E+00 -0.27004479826E+03  0.27004479826E+03  0.00000000000E+00 0. -1.
         23    2    1    2    0    0 -0.96109260106E+01  0.36649555779E+02 -0.48285015525E+02  0.11171317347E+03  0.93342544240E+02 0.  0.
         23    2    1    2    0    0  0.19557984082E+02 -0.17568553776E+02 -0.15722802519E+03  0.18369372574E+03  0.91277402182E+02 0.  0.
        -11    1    4    4    0    0  0.36291313417E+02  0.16645637838E+02 -0.27475847673E+02  0.48467090834E+02  0.00000000000E+00 0. -1.
         11    1    4    4    0    0 -0.16733329335E+02 -0.34214191614E+02 -0.12975217752E+03  0.13522663491E+03  0.00000000000E+00 0.  1.
        -13    1    3    3    0    0 -0.41765107476E+02  0.43587246110E+02 -0.50556226141E+02  0.78740740584E+02  0.00000000000E+00 0.  1.
         13    1    3    3    0    0  0.32154181466E+02 -0.69376903318E+01  0.22712106163E+01  0.32972432888E+02  0.00000000000E+00 0. -1.
         21    1    1    2  502  501 -0.99470580713E+01 -0.19081002003E+02 -0.13674276074E+02  0.25495380520E+02  0.00000000000E+00 0.  1.
<scales pt_clust_5="13000.00000" pt_clust_6="13000.00000" pt_clust_7="13000.00000" pt_clust_8="13000.00000" pt_clust_9="21.51810"></scales>
<clustering>
<clus scale="   21.518">  1  9  2 -1</clus>
<clus scale="   91.277">  5  6 -1 -1</clus>
<clus scale="   93.343">  7  8 -1 -1</clus>
<clus scale="   95.633">  2  5  1 -1</clus>
<clus scale="   95.633">  2  5  1 -1</clus>
</clustering>
</event>
<event>
 9    1  0.1266593E-005  0.1359658E+03  0.7546771E-02  0.1220578E+00
         -2   -1    0    0    0  501 -0.00000000000E+00  0.00000000000E+00  0.18928613178E+03  0.18928613178E+03  0.00000000000E+00 0.  1.
          2   -1    0    0  502    0  0.00000000000E+00 -0.00000000000E+00 -0.61819581592E+03  0.61819581592E+03  0.00000000000E+00 0. -1.
         23    2    1    2    0    0 -0.53618309984E+02 -0.39274637029E+02  0.13464661342E+03  0.17529119002E+03  0.90442636590E+02 0.  0.
         23    2    1    2    0    0  0.43938744131E+02  0.86312244563E+02 -0.56763077180E+03  0.58399499171E+03  0.97288439436E+02 0.  0.
        -13    1    4    4    0    0  0.72664281031E+02  0.48287858183E+02 -0.31243479876E+03  0.32438760528E+03  0.00000000000E+00 0. -1.
         13    1    4    4    0    0 -0.28725536900E+02  0.38024386380E+02 -0.25519597305E+03  0.25960738643E+03  0.00000000000E+00 0.  1.
        -13    1    3    3    0    0  0.16332396080E+02  0.13499468472E+02  0.11375172323E+02  0.24049477253E+02  0.00000000000E+00 0. -1.
         13    1    3    3    0    0 -0.69950706064E+02 -0.52774105501E+02  0.12327144110E+03  0.15124171277E+03  0.00000000000E+00 0.  1.
         21    1    1    2  502  501  0.96795658527E+01 -0.47037607534E+02  0.40744742403E+01  0.48195765976E+02  0.00000000000E+00 0.  1.
<scales pt_clust_5="13000.00000" pt_clust_6="13000.00000" pt_clust_7="13000.00000" pt_clust_8="13000.00000" pt_clust_9="48.02323"></scales>
<clustering>
<clus scale="   48.023">  1  9  2 -1</clus>
<clus scale="   90.443">  7  8 -1 -1</clus>
<clus scale="   97.288">  5  6 -1 -1</clus>
<clus scale="  131.155">  1  7  2 -1</clus>
<clus scale="  135.966">  2  5  1 -1</clus>
</clustering>
</event>
<event>
 9    1  0.1266593E-005  0.1528573E+03  0.7546771E-02  0.1197085E+00
         -1   -1    0    0    0  501 -0.00000000000E+00  0.00000000000E+00  0.11645901348E+03  0.11645901348E+03  0.00000000000E+00 0.  1.
          1   -1    0    0  502    0  0.00000000000E+00 -0.00000000000E+00 -0.30000199930E+03  0.30000199930E+03  0.00000000000E+00 0. -1.
         23    2    1    2    0    0 -0.57375227230E+02  0.82582945712E+02 -0.20461228199E+02  0.13797777775E+03  0.92235273459E+02 0.  0.
         23    2    1    2    0    0  0.83853434328E+02 -0.10300253808E+03 -0.17904921734E+03  0.24142901837E+03  0.92673768575E+02 0.  0.
        -11    1    4    4    0    0  0.54879144359E+02 -0.19966097635E+01 -0.44328905124E+02  0.70574490899E+02  0.00000000000E+00 0.  1.
         11    1    4    4    0    0  0.28974289969E+02 -0.10100592832E+03 -0.13472031221E+03  0.17085452747E+03  0.00000000000E+00 0. -1.
        -13    1    3    3    0    0 -0.26728014765E+02 -0.11275682828E+02  0.15508510126E+02  0.32894401999E+02  0.00000000000E+00 0. -1.
         13    1    3    3    0    0 -0.30647212465E+02  0.93858628540E+02 -0.35969738325E+02  0.10508337575E+03  0.00000000000E+00 0.  1.
         21    1    1    2  502  501 -0.26478207098E+02  0.20419592366E+02  0.15967459711E+02  0.37054216671E+02  0.00000000000E+00 0.  1.
<scales pt_clust_5="13000.00000" pt_clust_6="13000.00000" pt_clust_7="13000.00000" pt_clust_8="13000.00000" pt_clust_9="33.43733"></scales>
<clustering>
<clus scale="   33.437">  1  9  2 -1</clus>
<clus scale="   92.235">  7  8 -1 -1</clus>
<clus scale="   92.674">  5  6 -1 -1</clus>
<clus scale="  152.592">  1  7  2 -1</clus>
<clus scale="  152.857">  2  5  1 -1</clus>
</clustering>
</event>
<event>
 9    1  0.1266593E-005  0.1070527E+03  0.7546771E-02  0.1266695E+00
         -2   -1    0    0    0  501 -0.00000000000E+00  0.00000000000E+00  0.67713260892E+03  0.67713260892E+03  0.00000000000E+00 0.  1.
          2   -1    0    0  502    0  0.00000000000E+00 -0.00000000000E+00 -0.25892453935E+02  0.25892453935E+02  0.00000000000E+00 0. -1.
         23    2    1    2    0    0  0.51850471783E+02 -0.48143404775E+02  0.36990444912E+03  0.38730539000E+03  0.90387525683E+02 0.  0.
         23    2    1    2    0    0 -0.37916317743E+02  0.29999050125E+02  0.14976095318E+03  0.18217082861E+03  0.91762070264E+02 0.  0.
        -13    1    4    4    0    0 -0.52952352799E+02  0.49042762018E+02  0.77305515542E+02  0.10576051677E+03  0.00000000000E+00 0.  1.
         13    1    4    4    0    0  0.15036035056E+02 -0.19043711893E+02  0.72455437633E+02  0.76410311840E+02  0.00000000000E+00 0. -1.
        -13    1    3    3    0    0 -0.21755173975E+02 -0.24511225356E+02  0.16673281765E+03  0.16992327752E+03  0.00000000000E+00 0.  1.
         13    1    3    3    0    0  0.73605645758E+02 -0.23632179419E+02  0.20317163147E+03  0.21738211248E+03  0.00000000000E+00 0. -1.
         21    1    1    2  502  501 -0.13934154040E+02  0.18144354650E+02  0.13157475269E+03  0.13354884424E+03  0.00000000000E+00 0.  1.
<scales pt_clust_5="13000.00000" pt_clust_6="13000.00000" pt_clust_7="13000.00000" pt_clust_8="13000.00000" pt_clust_9="22.87746"></scales>
<clustering>
<clus scale="   22.877">  1  9  2 -1</clus>
<clus scale="   90.388">  7  8 -1 -1</clus>
<clus scale="   91.762">  5  6 -1 -1</clus>
<clus scale="  105.877">  1  7  2 -1</clus>
<clus scale="  107.053">  2  5  1 -1</clus>
</clustering>
</event>
<event>
 9    1  0.1266593E-005  0.1030811E+03  0.7546771E-02  0.1278242E+00
         -1   -1    0    0    0  501 -0.00000000000E+00  0.00000000000E+00  0.18441364962E+03  0.18441364962E+03  0.00000000000E+00 0.  1.
          1   -1    0    0  502    0  0.00000000000E+00 -0.00000000000E+00 -0.96141975743E+02  0.96141975743E+02  0.00000000000E+00 0. -1.
         23    2    1    2    0    0 -0.40642941019E+02  0.16126208655E+02  0.85096505720E+02  0.12460272950E+03  0.79828075596E+02 0.  0.
         23    2    1    2    0    0  0.38744617264E+02 -0.39317724179E+02 -0.35457842192E+02  0.11085345558E+03  0.89354357693E+02 0.  0.
        -13    1    3    3    0    0 -0.53188242821E+02  0.36574027341E+02  0.73922151908E+02  0.98138337020E+02  0.00000000000E+00 0.  1.
         13    1    3    3    0    0  0.12545301802E+02 -0.20447818686E+02  0.11174353812E+02  0.26464392482E+02  0.00000000000E+00 0. -1.
        -13    1    4    4    0    0  0.10541189532E+02  0.20702774763E+02  0.14886449816E+02  0.27592171856E+02  0.00000000000E+00 0.  1.
         13    1    4    4    0    0  0.28203427732E+02 -0.60020498942E+02 -0.50344292008E+02  0.83261283720E+02  0.00000000000E+00 0. -1.
         21    1    1    2  502  501  0.18983237546E+01  0.23191515524E+02  0.38633010353E+02  0.45099440288E+02  0.00000000000E+00 0.  1.
<scales pt_clust_5="13000.00000" pt_clust_6="13000.00000" pt_clust_7="13000.00000" pt_clust_8="13000.00000" pt_clust_9="23.26908"></scales>
<clustering>
<clus scale="   23.269">  1  9  2 -1</clus>
<clus scale="   79.828">  5  6 -1 -1</clus>
<clus scale="   89.354">  7  8 -1 -1</clus>
<clus scale="   94.942">  1  5  2 -1</clus>
<clus scale="  103.081">  2  5  1 -1</clus>
</clustering>
</event>
<event>
 9    1  0.1266593E-005  0.9532697E+02  0.7546771E-02  0.1290754E+00
         -1   -1    0    0    0  501 -0.00000000000E+00  0.00000000000E+00  0.24033756509E+03  0.24033756509E+03  0.00000000000E+00 0.  1.
          1   -1    0    0  502    0  0.00000000000E+00 -0.00000000000E+00 -0.74029040555E+02  0.74029040555E+02  0.00000000000E+00 0. -1.
         23    2    1    2    0    0 -0.21845230103E+01  0.20262346062E+02  0.93682257839E+02  0.13277738740E+03  0.91859318325E+02 0.  0.
         23    2    1    2    0    0  0.36020286179E+02  0.13607838430E+02  0.56102314065E+01  0.99229050365E+02  0.91281408056E+02 0.  0.
        -13    1    3    3    0    0  0.35082025919E+02  0.38905393250E+02  0.50339255150E+02  0.72652727241E+02  0.00000000000E+00 0.  1.
         13    1    3    3    0    0 -0.37266548929E+02 -0.18643047188E+02  0.43343002688E+02  0.60124660162E+02  0.00000000000E+00 0. -1.
        -13    1    4    4    0    0  0.43536954736E+01  0.47142236633E+02  0.19287368403E+02  0.51120912736E+02  0.00000000000E+00 0.  1.
         13    1    4    4    0    0  0.31666590705E+02 -0.33534398203E+02 -0.13677136997E+02  0.48108137629E+02  0.00000000000E+00 0. -1.
         21    1    1    2  502  501 -0.33835763169E+02 -0.33870184492E+02  0.67016035292E+02  0.82360167879E+02  0.00000000000E+00 0. -1.
<scales pt_clust_5="13000.00000" pt_clust_6="13000.00000" pt_clust_7="13000.00000" pt_clust_8="13000.00000" pt_clust_9="47.87534"></scales>
<clustering>
<clus scale="   47.875">  1  9  2 -1</clus>
<clus scale="   91.281">  7  8 -1 -1</clus>
<clus scale="   91.859">  5  6 -1 -1</clus>
<clus scale="   94.770">  2  7  1 -1</clus>
<clus scale="   94.770">  2  5  1 -1</clus>
</clustering>
</event>
<event>
 9    1  0.1266593E-005  0.1198831E+03  0.7546771E-02  0.1244773E+00
         -1   -1    0    0    0  501 -0.00000000000E+00  0.00000000000E+00  0.95301681222E+02  0.95301681222E+02  0.00000000000E+00 0.  1.
          1   -1    0    0  502    0  0.00000000000E+00 -0.00000000000E+00 -0.63262995732E+03  0.63262995732E+03  0.00000000000E+00 0. -1.
         23    2    1    2    0    0 -0.24588127621E+02  0.63646986430E+02  0.44176139339E+02  0.12727346096E+03  0.97936140806E+02 0.  0.
         23    2    1    2    0    0  0.48004227905E+02 -0.67653149124E+02 -0.51726830730E+03  0.53216992545E+03  0.93578701268E+02 0.  0.
        -11    1    3    3    0    0 -0.14283307504E+02  0.89081068176E+02  0.24438498766E+02  0.93470261594E+02  0.00000000000E+00 0.  1.
         11    1    3    3    0    0 -0.10304820117E+02 -0.25434081745E+02  0.19737640573E+02  0.33803199364E+02  0.00000000000E+00 0. -1.
        -13    1    4    4    0    0 -0.39516080398E+01 -0.68659454304E+02 -0.36085897504E+03  0.36735396519E+03  0.00000000000E+00 0. -1.
         13    1    4    4    0    0  0.51955835945E+02  0.10063051800E+01 -0.15640933227E+03  0.16481596027E+03  0.00000000000E+00 0.  1.
         21    1    1    2  502  501 -0.23416100284E+02  0.40061626937E+01 -0.64236108130E+02  0.68488252129E+02  0.00000000000E+00 0.  1.
<scales pt_clust_5="13000.00000" pt_clust_6="13000.00000" pt_clust_7="13000.00000" pt_clust_8="13000.00000" pt_clust_9="23.75633"></scales>
<clustering>
<clus scale="   23.756">  2  9  1 -1</clus>
<clus scale="   93.579">  7  8 -1 -1</clus>
<clus scale="   97.936">  5  6 -1 -1</clus>
<clus scale="  116.350">  2  7  1 -1</clus>
<clus scale="   23.756">  2  5  1 -1</clus>
</clustering>
</event>
<event>
 9    1  0.1266593E-005  0.1052660E+03  0.7546771E-02  0.1270971E+00
          2   -1    0    0  502    0  0.00000000000E+00  0.00000000000E+00  0.59159976408E+03  0.59159976408E+03  0.00000000000E+00 0. -1.
         -2   -1    0    0    0  501 -0.00000000000E+00 -0.00000000000E+00 -0.25194261109E+02  0.25194261109E+02  0.00000000000E+00 0.  1.
         23    2    1    2    0    0 -0.46737113228E+02 -0.40753713785E+02  0.28327099843E+03  0.30354687896E+03  0.89738655195E+02 0.  0.
         23    2    1    2    0    0  0.33063797797E+02  0.19597022521E+02  0.26109695643E+03  0.27977747836E+03  0.92879269636E+02 0.  0.
        -11    1    4    4    0    0  0.23555042201E+02  0.48398620643E+02  0.23047501726E+03  0.23667699524E+03  0.00000000000E+00 0.  1.
         11    1    4    4    0    0  0.95087555959E+01 -0.28801598123E+02  0.30621939162E+02  0.43100483123E+02  0.00000000000E+00 0. -1.
        -11    1    3    3    0    0  0.16888765005E+02  0.12936822409E+02  0.10022399085E+03  0.10245701586E+03  0.00000000000E+00 0.  1.
         11    1    3    3    0    0 -0.63625878233E+02 -0.53690536195E+02  0.18304700758E+03  0.20108986310E+03  0.00000000000E+00 0. -1.
         21    1    1    2  502  501  0.13673315431E+02  0.21156691264E+02  0.22037548122E+02  0.33469667870E+02  0.00000000000E+00 0.  1.
<scales pt_clust_5="13000.00000" pt_clust_6="13000.00000" pt_clust_7="13000.00000" pt_clust_8="13000.00000" pt_clust_9="25.19058"></scales>
<clustering>
<clus scale="   25.191">  2  9  1 -1</clus>
<clus scale="   89.739">  7  8 -1 -1</clus>
<clus scale="   92.879">  5  6 -1 -1</clus>
<clus scale="  102.506">  2  7  1 -1</clus>
<clus scale="  105.266">  1  5  2 -1</clus>
</clustering>
</event>
<event>
 9    1  0.1266593E-005  0.1629944E+03  0.7546771E-02  0.1186285E+00
         -1   -1    0    0    0  501 -0.00000000000E+00  0.00000000000E+00  0.26982456970E+03  0.26982456970E+03  0.00000000000E+00 0.  1.
          1   -1    0    0  502    0  0.00000000000E+00 -0.00000000000E+00 -0.35752881795E+03  0.35752881795E+03  0.00000000000E+00 0. -1.
         23    2    1    2    0    0 -0.44106966058E+01  0.15163098644E+03  0.89893094252E+02  0.19848994738E+03  0.91137700894E+02 0.  0.
         23    2    1    2    0    0  0.39352226295E+02 -0.12748156476E+03 -0.27798841535E+03  0.31985668557E+03  0.85032894636E+02 0.  0.
        -11    1    3    3    0    0 -0.44294875328E+02  0.70886381097E+02  0.62459965218E+02  0.10434635720E+03  0.00000000000E+00 0.  1.
         11    1    3    3    0    0  0.39884178722E+02  0.80744605340E+02  0.27433129034E+02  0.94143590182E+02  0.00000000000E+00 0. -1.
        -11    1    4    4    0    0 -0.14687423579E+02 -0.43040580291E+02 -0.15307802053E+03  0.15969061442E+03  0.00000000000E+00 0.  1.
         11    1    4    4    0    0  0.54039649874E+02 -0.84440984464E+02 -0.12491039482E+03  0.16016607115E+03  0.00000000000E+00 0. -1.
         21    1    1    2  502  501 -0.34941529689E+02 -0.24149421681E+02  0.10039107284E+03  0.10900675471E+03  0.00000000000E+00 0.  1.
<scales pt_clust_5="13000.00000" pt_clust_6="13000.00000" pt_clust_7="13000.00000" pt_clust_8="13000.00000" pt_clust_9="42.47476"></scales>
<clustering>
<clus scale="   42.475">  1  9  2 -1</clus>
<clus scale="   85.033">  7  8 -1 -1</clus>
<clus scale="   91.138">  5  6 -1 -1</clus>
<clus scale="  159.661">  2  7  1 -1</clus>
<clus scale="  159.661">  2  5  1 -1</clus>
</clustering>
</event>
<event>
 9    1  0.1266593E-005  0.9717239E+02  0.7546771E-02  0.1287012E+00
          2   -1    0    0  502    0  0.00000000000E+00  0.00000000000E+00  0.43863247734E+03  0.43863247734E+03  0.00000000000E+00 0. -1.
         -2   -1    0    0    0  501 -0.00000000000E+00 -0.00000000000E+00 -0.47700665145E+02  0.47700665145E+02  0.00000000000E+00 0.  1.
         23    2    1    2    0    0  0.43897044357E+01 -0.38147899602E+02  0.14756736551E+03  0.17779364438E+03  0.91432602880E+02 0.  0.
         23    2    1    2    0    0 -0.16214353704E+02  0.20141841383E+02  0.26259125869E+03  0.27966544812E+03  0.92682224255E+02 0.  0.
        -11    1    4    4    0    0 -0.19825472726E+02 -0.34335649009E+02  0.13916921506E+03  0.14470679522E+03  0.00000000000E+00 0.  1.
         11    1    4    4    0    0  0.36111190219E+01  0.54477490392E+02  0.12342204362E+03  0.13495865290E+03  0.00000000000E+00 0. -1.
        -13    1    3    3    0    0  0.14565970962E+02 -0.65181972318E+02  0.79380454732E+02  0.10374060738E+03  0.00000000000E+00 0.  1.
         13    1    3    3    0    0 -0.10176266526E+02  0.27034072716E+02  0.68186910781E+02  0.74053037007E+02  0.00000000000E+00 0. -1.
         21    1    1    2  502  501  0.11824649269E+02  0.18006058219E+02 -0.19226812001E+02  0.28874049986E+02  0.00000000000E+00 0.  1.
<scales pt_clust_5="13000.00000" pt_clust_6="13000.00000" pt_clust_7="13000.00000" pt_clust_8="13000.00000" pt_clust_9="21.54160"></scales>
<clustering>
<clus scale="   21.542">  2  9  1 -1</clus>
<clus scale="   91.433">  7  8 -1 -1</clus>
<clus scale="   92.682">  5  6 -1 -1</clus>
<clus scale="   95.981">  2  7  1 -1</clus>
<clus scale="   97.172">  1  5  2 -1</clus>
</clustering>
</event>
<event>
 9    1  0.1266593E-005  0.9026750E+02  0.7546771E-02  0.1305351E+00
         -1   -1    0    0    0  501 -0.00000000000E+00  0.00000000000E+00  0.21527366783E+03  0.21527366783E+03  0.00000000000E+00 0.  1.
          1   -1    0    0  502    0  0.00000000000E+00 -0.00000000000E+00 -0.13329577114E+03  0.13329577114E+03  0.00000000000E+00 0. -1.
         23    2    1    2    0    0  0.18088267300E+02  0.13305177327E+02  0.17616265407E+02  0.94314061486E+02  0.89892136638E+02 0.  0.
         23    2    1    2    0    0  0.22115090914E+01 -0.57308491468E+01 -0.74900377945E+02  0.11331794959E+03  0.84812485392E+02 0.  0.
        -11    1    4    4    0    0 -0.38313859640E+02  0.12870528688E+02 -0.37019180034E+02  0.54808959483E+02  0.00000000000E+00 0.  1.
         11    1    4    4    0    0  0.40525368731E+02 -0.18601377835E+02 -0.37881197910E+02  0.58508990106E+02  0.00000000000E+00 0. -1.
        -11    1    3    3    0    0  0.10255807995E+02 -0.37445894248E+02  0.18381511863E+02  0.42956449714E+02  0.00000000000E+00 0.  1.
         11    1    3    3    0    0  0.78324593052E+01  0.50751071575E+02 -0.76524645633E+00  0.51357611772E+02  0.00000000000E+00 0. -1.
         21    1    1    2  502  501 -0.20299776391E+02 -0.75743281803E+01  0.13926200923E+03  0.14093742790E+03  0.00000000000E+00 0. -1.
<scales pt_clust_5="13000.00000" pt_clust_6="13000.00000" pt_clust_7="13000.00000" pt_clust_8="13000.00000" pt_clust_9="21.66683"></scales>
<clustering>
<clus scale="   21.667">  1  9  2 -1</clus>
<clus scale="   84.812">  5  6 -1 -1</clus>
<clus scale="   85.210">  2  5  1 -1</clus>
<clus scale="   89.892">  7  8 -1 -1</clus>
<clus scale="   85.210">  2  5  1 -1</clus>
</clustering>
</event>
<event>
 9    1  0.1266593E-005  0.9189268E+02  0.7546771E-02  0.1299261E+00
          1   -1    0    0  502    0  0.00000000000E+00  0.00000000000E+00  0.53659437681E+02  0.53659437681E+02  0.00000000000E+00 0. -1.
         -1   -1    0    0    0  501 -0.00000000000E+00 -0.00000000000E+00 -0.23925758236E+03  0.23925758236E+03  0.00000000000E+00 0.  1.
         23    2    1    2    0    0  0.19457253169E+02  0.21377241016E+02 -0.10165831843E+03  0.13951545891E+03  0.91074576230E+02 0.  0.
         23    2    1    2    0    0  0.12831506121E+02 -0.65744228515E+01 -0.46830171858E+02  0.10203217480E+03  0.89496531296E+02 0.  0.
        -11    1    4    4    0    0 -0.15767258461E+02 -0.32858470847E+02 -0.51305368542E+02  0.62932713171E+02  0.00000000000E+00 0. -1.
         11    1    4    4    0    0  0.28598764582E+02  0.26284047996E+02  0.44751966840E+01  0.39099461634E+02  0.00000000000E+00 0.  1.
        -13    1    3    3    0    0 -0.35009529166E+02  0.18975089415E+01 -0.54875243230E+02  0.65119582248E+02  0.00000000000E+00 0. -1.
         13    1    3    3    0    0  0.54466782335E+02  0.19479732075E+02 -0.46783075200E+02  0.74395876665E+02  0.00000000000E+00 0.  1.
         21    1    1    2  502  501 -0.32288759290E+02 -0.14802818165E+02 -0.37109654387E+02  0.51369386319E+02  0.00000000000E+00 0. -1.
<scales pt_clust_5="13000.00000" pt_clust_6="13000.00000" pt_clust_7="13000.00000" pt_clust_8="13000.00000" pt_clust_9="35.52024"></scales>
<clustering>
<clus scale="   35.520">  2  9  1 -1</clus>
<clus scale="   89.497">  5  6 -1 -1</clus>
<clus scale="   90.329">  1  5  2 -1</clus>
<clus scale="   91.075">  7  8 -1 -1</clus>
<clus scale="   90.329">  1  5  2 -1</clus>
</clustering>
</event>
<event>
 9    1  0.1266593E-005  0.1078246E+03  0.7546771E-02  0.1266267E+00
         -2   -1    0    0    0  501 -0.00000000000E+00  0.00000000000E+00  0.25016436005E+03  0.25016436005E+03  0.00000000000E+00 0.  1.
          2   -1    0    0  502    0  0.00000000000E+00 -0.00000000000E+00 -0.67064851476E+03  0.67064851476E+03  0.00000000000E+00 0. -1.
         23    2    1    2    0    0  0.21806406037E+02 -0.24918902425E+02 -0.79242344191E+02  0.12573032550E+03  0.91827526346E+02 0.  0.
         23    2    1    2    0    0 -0.48051977399E+02  0.38749939692E+02 -0.56208624452E+03  0.57225438315E+03  0.87883914317E+02 0.  0.
        -13    1    3    3    0    0 -0.18806930423E+01  0.33924506316E+02 -0.31589535916E+02  0.46392972684E+02  0.00000000000E+00 0. -1.
         13    1    3    3    0    0  0.23687099079E+02 -0.58843408741E+02 -0.47652808275E+02  0.79337352814E+02  0.00000000000E+00 0.  1.
        -13    1    4    4    0    0  0.25739334519E+02  0.56244366152E+01 -0.15219772882E+03  0.15446131000E+03  0.00000000000E+00 0.  1.
         13    1    4    4    0    0 -0.73791311918E+02  0.33125503077E+02 -0.40988851571E+03  0.41779307315E+03  0.00000000000E+00 0. -1.
         21    1    1    2  502  501  0.26245571362E+02 -0.13831037267E+02  0.22084443400E+03  0.22282816616E+03  0.00000000000E+00 0.  1.
<scales pt_clust_5="13000.00000" pt_clust_6="13000.00000" pt_clust_7="13000.00000" pt_clust_8="13000.00000" pt_clust_9="29.66694"></scales>
<clustering>
<clus scale="   29.667">  1  9  2 -1</clus>
<clus scale="   87.884">  7  8 -1 -1</clus>
<clus scale="   91.828">  5  6 -1 -1</clus>
<clus scale="  104.486">  2  7  1 -1</clus>
<clus scale="  104.486">  2  5  1 -1</clus>
</clustering>
</event>
<event>
 9    1  0.1266593E-005  0.1155092E+03  0.7546771E-02  0.1250710E+00
         -2   -1    0    0    0  501 -0.00000000000E+00  0.00000000000E+00  0.66587911232E+02  0.66587911232E+02  0.00000000000E+00 0.  1.
          2   -1    0    0  502    0  0.00000000000E+00 -0.00000000000E+00 -0.65882038438E+03  0.65882038438E+03  0.00000000000E+00 0. -1.
         23    2    1    2    0    0  0.36452709208E+02 -0.42575261539E+02 -0.16905468759E+03  0.20015726504E+03  0.91334497584E+02 0.  0.
         23    2    1    2    0    0 -0.61900894483E+02  0.47968254465E+02 -0.46261236397E+03  0.47800930663E+03  0.91378464396E+02 0.  0.
        -11    1    3    3    0    0 -0.59497462841E+01 -0.44020381054E+02 -0.27184064952E+02  0.52078467876E+02  0.00000000000E+00 0.  1.
         11    1    3    3    0    0  0.42402455492E+02  0.14451195149E+01 -0.14187062264E+03  0.14807879717E+03  0.00000000000E+00 0. -1.
        -13    1    4    4    0    0  0.12464993973E+02  0.15723899055E+02 -0.21096862501E+02  0.29115196782E+02  0.00000000000E+00 0.  1.
         13    1    4    4    0    0 -0.74365888456E+02  0.32244355411E+02 -0.44151550147E+03  0.44889410985E+03  0.00000000000E+00 0. -1.
         21    1    1    2  502  501  0.25448185275E+02 -0.53929929263E+01  0.39434578409E+02  0.47241723940E+02  0.00000000000E+00 0.  1.
<scales pt_clust_5="13000.00000" pt_clust_6="13000.00000" pt_clust_7="13000.00000" pt_clust_8="13000.00000" pt_clust_9="26.01335"></scales>
<clustering>
<clus scale="   26.013">  1  9  2 -1</clus>
<clus scale="   91.334">  5  6 -1 -1</clus>
<clus scale="   91.378">  7  8 -1 -1</clus>
<clus scale="  115.474">  1  5  2 -1</clus>
<clus scale="  115.509">  2  5  1 -1</clus>
</clustering>
</event>
<event>
 9    1  0.1266593E-005  0.1065725E+03  0.7546771E-02  0.1272356E+00
         -3   -1    0    0    0  501 -0.00000000000E+00  0.00000000000E+00  0.16855621262E+03  0.16855621262E+03  0.00000000000E+00 0.  1.
          3   -1    0    0  502    0  0.00000000000E+00 -0.00000000000E+00 -0.18813681440E+03  0.18813681440E+03  0.00000000000E+00 0. -1.
         23    2    1    2    0    0 -0.30486557500E+02 -0.36380156148E+02  0.65831146680E+02  0.12301282566E+03  0.92441708407E+02 0.  0.
         23    2    1    2    0    0  0.25322786480E+02 -0.17765112507E+01 -0.13441347964E+03  0.17136033731E+03  0.10321328492E+03 0.  0.
        -11    1    4    4    0    0 -0.23934669525E+02  0.19713378112E+02 -0.52319217914E+01  0.31446123568E+02  0.00000000000E+00 0.  1.
         11    1    4    4    0    0  0.49257456005E+02 -0.21489889363E+02 -0.12918155785E+03  0.13991421374E+03  0.00000000000E+00 0. -1.
        -13    1    3    3    0    0 -0.45471501819E+02 -0.14291542628E+02 -0.44129651791E+01  0.47868360428E+02  0.00000000000E+00 0.  1.
         13    1    3    3    0    0  0.14984944320E+02 -0.22088613520E+02  0.70244111859E+02  0.75144465228E+02  0.00000000000E+00 0. -1.
         21    1    1    2  502  501  0.51637710192E+01  0.38156667399E+02  0.49001731179E+02  0.62319864062E+02  0.00000000000E+00 0.  1.
<scales pt_clust_5="13000.00000" pt_clust_6="13000.00000" pt_clust_7="13000.00000" pt_clust_8="13000.00000" pt_clust_9="38.50449"></scales>
<clustering>
<clus scale="   38.504">  1  9  2 -1</clus>
<clus scale="   92.442">  7  8 -1 -1</clus>
<clus scale="   96.178">  1  7  2 -1</clus>
<clus scale="  103.213">  5  6 -1 -1</clus>
<clus scale="  106.572">  2  5  1 -1</clus>
</clustering>
</event>
<event>
 9    1  0.1266593E-005  0.1267106E+03  0.7546771E-02  0.1232714E+00
         -2   -1    0    0    0  501 -0.00000000000E+00  0.00000000000E+00  0.46310100288E+02  0.46310100288E+02  0.00000000000E+00 0.  1.
          2   -1    0    0  502    0  0.00000000000E+00 -0.00000000000E+00 -0.67037896768E+03  0.67037896768E+03  0.00000000000E+00 0. -1.
         23    2    1    2    0    0 -0.89700370206E+02 -0.15793334369E+01 -0.88058806284E+02  0.15565131868E+03  0.91784143141E+02 0.  0.
         23    2    1    2    0    0  0.84673825792E+02  0.21030811520E+02 -0.52092070983E+03  0.53591177328E+03  0.90725360340E+02 0.  0.
        -13    1    3    3    0    0 -0.57164235323E+02 -0.35639430826E+02 -0.15467529339E+02  0.69117026076E+02  0.00000000000E+00 0.  1.
         13    1    3    3    0    0 -0.32536134883E+02  0.34060097389E+02 -0.72591276945E+02  0.86534292600E+02  0.00000000000E+00 0. -1.
        -13    1    4    4    0    0  0.26277499297E+02 -0.34464641108E+02 -0.22975431401E+03  0.23380625155E+03  0.00000000000E+00 0.  1.
         13    1    4    4    0    0  0.58396326495E+02  0.55495452628E+02 -0.29116639582E+03  0.30210552174E+03  0.00000000000E+00 0. -1.
         21    1    1    2  502  501  0.50265444141E+01 -0.19451478083E+02 -0.15089351283E+02  0.25125976011E+02  0.00000000000E+00 0. -1.
<scales pt_clust_5="13000.00000" pt_clust_6="13000.00000" pt_clust_7="13000.00000" pt_clust_8="13000.00000" pt_clust_9="20.09045"></scales>
<clustering>
<clus scale="   20.090">  1  9  2 -1</clus>
<clus scale="   90.725">  7  8 -1 -1</clus>
<clus scale="   91.784">  5  6 -1 -1</clus>
<clus scale="  125.946">  2  7  1 -1</clus>
<clus scale="  125.946">  2  5  1 -1</clus>
</clustering>
</event>
<event>
 9    1  0.1266593E-005  0.1029414E+03  0.7546771E-02  0.1275315E+00
         -2   -1    0    0    0  501 -0.00000000000E+00  0.00000000000E+00  0.42927224958E+02  0.42927224958E+02  0.00000000000E+00 0.  1.
          2   -1    0    0  502    0  0.00000000000E+00 -0.00000000000E+00 -0.43394508124E+03  0.43394508124E+03  0.00000000000E+00 0. -1.
         23    2    1    2    0    0  0.31870485407E+02 -0.26399716979E+02 -0.10983960797E+03  0.14829419559E+03  0.90629774754E+02 0.  0.
         23    2    1    2    0    0  0.52565277245E+01  0.53022206200E+02 -0.25335001780E+03  0.27508434975E+03  0.92984851046E+02 0.  0.
        -13    1    3    3    0    0  0.10556043755E+02  0.25895153154E+02 -0.79315789027E+02  0.84101030943E+02  0.00000000000E+00 0. -1.
         13    1    3    3    0    0  0.21314441652E+02 -0.52294870134E+02 -0.30523818938E+02  0.64193164650E+02  0.00000000000E+00 0.  1.
        -13    1    4    4    0    0  0.48290550375E+02  0.34615713248E+02 -0.15957600683E+03  0.17027838035E+03  0.00000000000E+00 0.  1.
         13    1    4    4    0    0 -0.43034022650E+02  0.18406492952E+02 -0.93774010972E+02  0.10480596940E+03  0.00000000000E+00 0. -1.
         21    1    1    2  502  501 -0.37127013131E+02 -0.26622489221E+02 -0.27828230509E+02  0.53493760848E+02  0.00000000000E+00 0.  1.
<scales pt_clust_5="13000.00000" pt_clust_6="13000.00000" pt_clust_7="13000.00000" pt_clust_8="13000.00000" pt_clust_9="45.68558"></scales>
<clustering>
<clus scale="   45.686">  1  9  2 -1</clus>
<clus scale="   90.630">  5  6 -1 -1</clus>
<clus scale="   92.985">  7  8 -1 -1</clus>
<clus scale="  100.819">  1  5  2 -1</clus>
<clus scale="  102.941">  2  5  1 -1</clus>
</clustering>
</event>
<event>
 9    1  0.1266593E-005  0.1232451E+03  0.7546771E-02  0.1242766E+00
          2   -1    0    0  502    0  0.00000000000E+00  0.00000000000E+00  0.49886742180E+03  0.49886742180E+03  0.00000000000E+00 0. -1.
         -2   -1    0    0    0  501 -0.00000000000E+00 -0.00000000000E+00 -0.52576449075E+02  0.52576449075E+02  0.00000000000E+00 0.  1.
         23    2    1    2    0    0 -0.20883189123E+02  0.76405294963E+02  0.25671187722E+03  0.28850269245E+03  0.10516148989E+03 0.  0.
         23    2    1    2    0    0  0.80001435683E+01 -0.51931668900E+02  0.20562255326E+03  0.23096738021E+03  0.91128457582E+02 0.  0.
        -11    1    4    4    0    0  0.46283625768E+02 -0.38819661832E+02  0.89351410174E+02  0.10785552679E+03  0.00000000000E+00 0.  1.
         11    1    4    4    0    0 -0.38283482200E+02 -0.13112007068E+02  0.11627114308E+03  0.12311185342E+03  0.00000000000E+00 0. -1.
        -11    1    3    3    0    0 -0.44417782128E+02  0.24627302884E+02  0.20643525451E+03  0.21259105748E+03  0.00000000000E+00 0. -1.
         11    1    3    3    0    0  0.23534593005E+02  0.51777992080E+02  0.50276622712E+02  0.75911634965E+02  0.00000000000E+00 0.  1.
         21    1    1    2  502  501  0.12883045555E+02 -0.24473626064E+02 -0.16043457758E+02  0.31973798215E+02  0.00000000000E+00 0. -1.
<scales pt_clust_5="13000.00000" pt_clust_6="13000.00000" pt_clust_7="13000.00000" pt_clust_8="13000.00000" pt_clust_9="27.65739"></scales>
<clustering>
<clus scale="   27.657">  2  9  1 -1</clus>
<clus scale="   91.128">  5  6 -1 -1</clus>
<clus scale="  105.161">  7  8 -1 -1</clus>
<clus scale="  111.512">  1  5  2 -1</clus>
<clus scale="  111.512">  1  5  2 -1</clus>
</clustering>
</event>
<event>
 9    1  0.1266593E-005  0.1352732E+03  0.7546771E-02  0.1220772E+00
         -1   -1    0    0    0  501 -0.00000000000E+00  0.00000000000E+00  0.17320299518E+03  0.17320299518E+03  0.00000000000E+00 0.  1.
          1   -1    0    0  502    0  0.00000000000E+00 -0.00000000000E+00 -0.32210591232E+03  0.32210591232E+03  0.00000000000E+00 0. -1.
         23    2    1    2    0    0  0.50834037062E+02  0.10083801846E+03  0.38844275018E+02  0.15514251339E+03  0.99034925500E+02 0.  0.
         23    2    1    2    0    0 -0.35878275664E+02 -0.81108195867E+02 -0.24517448020E+03  0.27762973198E+03  0.95404152100E+02 0.  0.
        -11    1    4    4    0    0 -0.85707229323E+00 -0.60856857665E+02 -0.51358145885E+02  0.79636366356E+02  0.00000000000E+00 0.  1.
         11    1    4    4    0    0 -0.35021203370E+02 -0.20251338202E+02 -0.19381633432E+03  0.19799336563E+03  0.00000000000E+00 0. -1.
        -13    1    3    3    0    0  0.71638133995E+01  0.68222829291E+02 -0.23332677152E+02  0.72457494312E+02  0.00000000000E+00 0.  1.
         13    1    3    3    0    0  0.43670223663E+02  0.32615189173E+02  0.62176952170E+02  0.82685019082E+02  0.00000000000E+00 0. -1.
         21    1    1    2  502  501 -0.14955761399E+02 -0.19729822598E+02  0.57427288035E+02  0.62536662126E+02  0.00000000000E+00 0. -1.
<scales pt_clust_5="13000.00000" pt_clust_6="13000.00000" pt_clust_7="13000.00000" pt_clust_8="13000.00000" pt_clust_9="24.75764"></scales>
<clustering>
<clus scale="   24.758">  1  9  2 -1</clus>
<clus scale="   95.404">  5  6 -1 -1</clus>
<clus scale="   99.035">  7  8 -1 -1</clus>
<clus scale="  132.638">  2  5  1 -1</clus>
<clus scale="  132.638">  2  5  1 -1</clus>
</clustering>
</event>
<event>
 9    1  0.1266593E-005  0.9679697E+02  0.7546771E-02  0.1287952E+00
         -1   -1    0    0    0  501 -0.00000000000E+00  0.00000000000E+00  0.22850535376E+03  0.22850535376E+03  0.00000000000E+00 0.  1.
          1   -1    0    0  502    0  0.00000000000E+00 -0.00000000000E+00 -0.63239797051E+02  0.63239797051E+02  0.00000000000E+00 0. -1.
         23    2    1    2    0    0  0.74213162503E+01 -0.86547565892E+01  0.11741407253E+03  0.14925054724E+03  0.91431289368E+02 0.  0.
         23    2    1    2    0    0 -0.12626918999E+02  0.39525949991E+02  0.21030439799E+02  0.10126964386E+03  0.89952885239E+02 0.  0.
        -11    1    4    4    0    0  0.21691662491E+02 -0.86645849456E+01  0.33469664133E+02  0.40814478694E+02  0.00000000000E+00 0. -1.
         11    1    4    4    0    0 -0.34318581490E+02  0.48190534937E+02 -0.12439224334E+02  0.60455165164E+02  0.00000000000E+00 0.  1.
        -13    1    3    3    0    0  0.46875777438E+02  0.73960042056E+01  0.77513908800E+02  0.90886992722E+02  0.00000000000E+00 0.  1.
         13    1    3    3    0    0 -0.39454461188E+02 -0.16050760795E+02  0.39900163731E+02  0.58363554514E+02  0.00000000000E+00 0. -1.
         21    1    1    2  502  501  0.52056027485E+01 -0.30871193402E+02  0.26821044377E+02  0.41224959715E+02  0.00000000000E+00 0. -1.
<scales pt_clust_5="13000.00000" pt_clust_6="13000.00000" pt_clust_7="13000.00000" pt_clust_8="13000.00000" pt_clust_9="31.30701"></scales>
<clustering>
<clus scale="   31.307">  1  9  2 -1</clus>
<clus scale="   89.953">  5  6 -1 -1</clus>
<clus scale="   91.431">  7  8 -1 -1</clus>
<clus scale="   95.402">  2  5  1 -1</clus>
<clus scale="   95.402">  2  5  1 -1</clus>
</clustering>
</event>
<event>
 9    1  0.1266593E-005  0.1372771E+03  0.7546771E-02  0.1217375E+00
         -1   -1    0    0    0  501 -0.00000000000E+00  0.00000000000E+00  0.20514064814E+03  0.20514064814E+03  0.00000000000E+00 0.  1.
          1   -1    0    0  502    0  0.00000000000E+00 -0.00000000000E+00 -0.18491269812E+03  0.18491269812E+03  0.00000000000E+00 0. -1.
         23    2    1    2    0    0 -0.32676037679E+02  0.10800056575E+03  0.12357399746E+03  0.18984752776E+03  0.89664403785E+02 0.  0.
         23    2    1    2    0    0  0.34207589052E+01 -0.78043846076E+02 -0.44559310562E+02  0.12803132977E+03  0.91125988303E+02 0.  0.
        -11    1    4    4    0    0 -0.43714263172E+02 -0.34042073604E+02 -0.17517620076E+02  0.58109092172E+02  0.00000000000E+00 0.  1.
         11    1    4    4    0    0  0.47135022078E+02 -0.44001772472E+02 -0.27041690486E+02  0.69922237602E+02  0.00000000000E+00 0. -1.
        -13    1    3    3    0    0  0.32673407037E+01  0.95782778962E+02  0.11712864108E+03  0.15134112072E+03  0.00000000000E+00 0.  1.
         13    1    3    3    0    0 -0.35943378383E+02  0.12217786791E+02  0.64453563774E+01  0.38506407031E+02  0.00000000000E+00 0. -1.
         21    1    1    2  502  501  0.29255278774E+02 -0.29956719677E+02 -0.58786736884E+02  0.72174488730E+02  0.00000000000E+00 0. -1.
<scales pt_clust_5="13000.00000" pt_clust_6="13000.00000" pt_clust_7="13000.00000" pt_clust_8="13000.00000" pt_clust_9="41.87214"></scales>
<clustering>
<clus scale="   41.872">  2  9  1 -1</clus>
<clus scale="   89.664">  7  8 -1 -1</clus>
<clus scale="   91.126">  5  6 -1 -1</clus>
<clus scale="  136.311">  1  7  2 -1</clus>
<clus scale="   41.872">  2  5  1 -1</clus>
</clustering>
</event>
<event>
 9    1  0.1266593E-005  0.9341283E+02  0.7546771E-02  0.1294968E+00
         -2   -1    0    0    0  501 -0.00000000000E+00  0.00000000000E+00  0.38936957004E+02  0.38936957004E+02  0.00000000000E+00 0.  1.
          2   -1    0    0  502    0  0.00000000000E+00 -0.00000000000E+00 -0.63466056393E+03  0.63466056393E+03  0.00000000000E+00 0. -1.
         23    2    1    2    0    0  0.10134448044E+02  0.43832634616E+02 -0.19315013443E+03  0.21845534762E+03  0.91606536780E+02 0.  0.
         23    2    1    2    0    0 -0.21534048810E+02  0.32795494116E+02 -0.34387657046E+03  0.35794573655E+03  0.91295097965E+02 0.  0.
        -11    1    3    3    0    0 -0.30490394092E+02 -0.11965427249E+02 -0.69952983124E+02  0.77241539531E+02  0.00000000000E+00 0. -1.
         11    1    3    3    0    0  0.40624842136E+02  0.55798061865E+02 -0.12319715130E+03  0.14121380809E+03  0.00000000000E+00 0.  1.
        -11    1    4    4    0    0  0.33931383825E+02 -0.18277209146E+01 -0.11631812045E+03  0.12117996747E+03  0.00000000000E+00 0.  1.
         11    1    4    4    0    0 -0.55465432635E+02  0.34623215030E+02 -0.22755845001E+03  0.23676576908E+03  0.00000000000E+00 0. -1.
         21    1    1    2  502  501  0.11399600765E+02 -0.76628128731E+02 -0.58696902047E+02  0.97196436768E+02  0.00000000000E+00 0.  1.
<scales pt_clust_5="13000.00000" pt_clust_6="13000.00000" pt_clust_7="13000.00000" pt_clust_8="13000.00000" pt_clust_9="77.47142"></scales>
<clustering>
<clus scale="   77.471">  1  9  2 -1</clus>
<clus scale="   91.295">  7  8 -1 -1</clus>
<clus scale="   91.607">  5  6 -1 -1</clus>
<clus scale="   93.107">  2  7  1 -1</clus>
<clus scale="   93.107">  2  5  1 -1</clus>
</clustering>
</event>
<event>
 9    1  0.1266593E-005  0.1167366E+03  0.7546771E-02  0.1249405E+00
          2   -1    0    0  502    0  0.00000000000E+00  0.00000000000E+00  0.23667513535E+03  0.23667513535E+03  0.00000000000E+00 0. -1.
         -2   -1    0    0    0  501 -0.00000000000E+00 -0.00000000000E+00 -0.15716080368E+03  0.15716080368E+03  0.00000000000E+00 0.  1.
         23    2    1    2    0    0 -0.19335917798E+02  0.50138564229E+02 -0.10082153679E+03  0.14443578956E+03  0.88368329656E+02 0.  0.
         23    2    1    2    0    0  0.55727463547E+02 -0.53032810684E+02  0.17622765287E+03  0.21266326474E+03  0.90837488581E+02 0.  0.
        -11    1    4    4    0    0  0.73999549136E+02 -0.63769231135E+02  0.14884740763E+03  0.17803931832E+03  0.00000000000E+00 0. -1.
         11    1    4    4    0    0 -0.18272085590E+02  0.10736420451E+02  0.27380245239E+02  0.34623946414E+02  0.00000000000E+00 0.  1.
        -13    1    3    3    0    0 -0.18560872009E+02  0.75653568237E+02 -0.76208604280E+02  0.10897577585E+03  0.00000000000E+00 0.  1.
         13    1    3    3    0    0 -0.77504578889E+00 -0.25515004008E+02 -0.24612932508E+02  0.35460013708E+02  0.00000000000E+00 0. -1.
         21    1    1    2  502  501 -0.36391545748E+02  0.28942464544E+01  0.41082155901E+01  0.36736884732E+02  0.00000000000E+00 0.  1.
<scales pt_clust_5="13000.00000" pt_clust_6="13000.00000" pt_clust_7="13000.00000" pt_clust_8="13000.00000" pt_clust_9="36.50646"></scales>
<clustering>
<clus scale="   36.506">  2  9  1 -1</clus>
<clus scale="   88.368">  7  8 -1 -1</clus>
<clus scale="   90.837">  5  6 -1 -1</clus>
<clus scale="  114.826">  2  7  1 -1</clus>
<clus scale="  116.737">  1  5  2 -1</clus>
</clustering>
</event>
<event>
 9    1  0.1266593E-005  0.2473121E+03  0.7546771E-02  0.1115091E+00
         -2   -1    0    0    0  501 -0.00000000000E+00  0.00000000000E+00  0.16657868600E+03  0.16657868600E+03  0.00000000000E+00 0.  1.
          2   -1    0    0  502    0  0.00000000000E+00 -0.00000000000E+00 -0.10976808795E+04  0.10976808795E+04  0.00000000000E+00 0. -1.
         23    2    1    2    0    0 -0.18955598487E+03  0.17998449173E+03 -0.53744129850E+03  0.60473812645E+03  0.92407594845E+02 0.  0.
         23    2    1    2    0    0  0.21223463608E+03 -0.46200461081E+02 -0.45329733174E+03  0.51130203190E+03  0.93665754191E+02 0.  0.
        -11    1    4    4    0    0  0.10885727407E+03 -0.48061031323E+02 -0.32761221650E+03  0.34855348693E+03  0.00000000000E+00 0.  1.
         11    1    4    4    0    0  0.10337736201E+03  0.18605702421E+01 -0.12568511524E+03  0.16274854497E+03  0.00000000000E+00 0. -1.
        -13    1    3    3    0    0 -0.18928914537E+03  0.14055085290E+03 -0.48350072513E+03  0.53791995130E+03  0.00000000000E+00 0. -1.
         13    1    3    3    0    0 -0.26683949875E+00  0.39433638829E+02 -0.53940573365E+02  0.66818175144E+02  0.00000000000E+00 0.  1.
         21    1    1    2  502  501 -0.22678651209E+02 -0.13378403064E+03  0.59636436714E+02  0.14821940716E+03  0.00000000000E+00 0.  1.
<scales pt_clust_5="13000.00000" pt_clust_6="13000.00000" pt_clust_7="13000.00000" pt_clust_8="13000.00000" pt_clust_9="135.69262"></scales>
<clustering>
<clus scale="   92.408">  7  8 -1 -1</clus>
<clus scale="   93.666">  5  6 -1 -1</clus>
<clus scale="  135.693">  1  9  2 -1</clus>
<clus scale="  246.838">  1  7  2 -1</clus>
<clus scale="  247.312">  2  5  1 -1</clus>
</clustering>
</event>
<event>
 9    1  0.1266593E-005  0.1371264E+03  0.7546771E-02  0.1218025E+00
         -1   -1    0    0    0  501 -0.00000000000E+00  0.00000000000E+00  0.22633710854E+03  0.22633710854E+03  0.00000000000E+00 0.  1.
          1   -1    0    0  502    0  0.00000000000E+00 -0.00000000000E+00 -0.20915791905E+03  0.20915791905E+03  0.00000000000E+00 0. -1.
         23    2    1    2    0    0 -0.45605935694E+02 -0.10452338315E+03  0.11232275429E+02  0.14841193306E+03  0.94312771502E+02 0.  0.
         23    2    1    2    0    0 -0.42954472359E+02  0.95675104572E+02 -0.82558298702E+02  0.16156651954E+03  0.91044248707E+02 0.  0.
        -13    1    3    3    0    0  0.28507993721E+02 -0.37501854874E+02  0.11488054582E+02  0.48487835826E+02  0.00000000000E+00 0.  1.
         13    1    3    3    0    0 -0.74113929414E+02 -0.67021528276E+02 -0.25577915264E+00  0.99924097237E+02  0.00000000000E+00 0. -1.
        -13    1    4    4    0    0  0.19442053067E+02  0.65361299082E+02 -0.29826266420E+02  0.74429154326E+02  0.00000000000E+00 0.  1.
         13    1    4    4    0    0 -0.62396525426E+02  0.30313805490E+02 -0.52732032282E+02  0.87137365218E+02  0.00000000000E+00 0. -1.
         21    1    1    2  502  501  0.88560408052E+02  0.88482785789E+01  0.88505212767E+02  0.12551657498E+03  0.00000000000E+00 0.  1.
<scales pt_clust_5="13000.00000" pt_clust_6="13000.00000" pt_clust_7="13000.00000" pt_clust_8="13000.00000" pt_clust_9="89.00134"></scales>
<clustering>
<clus scale="   89.001">  1  9  2 -1</clus>
<clus scale="   91.044">  7  8 -1 -1</clus>
<clus scale="   94.313">  5  6 -1 -1</clus>
<clus scale="  134.899">  2  7  1 -1</clus>
<clus scale="  134.899">  2  5  1 -1</clus>
</clustering>
</event>
<event>
 9    1  0.1266593E-005  0.1095600E+03  0.7546771E-02  0.1266872E+00
         -1   -1    0    0    0  501 -0.00000000000E+00  0.00000000000E+00  0.32861749719E+03  0.32861749719E+03  0.00000000000E+00 0.  1.
          1   -1    0    0  502    0  0.00000000000E+00 -0.00000000000E+00 -0.74251011655E+02  0.74251011655E+02  0.00000000000E+00 0. -1.
         23    2    1    2    0    0  0.19504434687E+02 -0.55506407217E+02  0.20764419839E+03  0.22908612208E+03  0.76830683931E+02 0.  0.
         23    2    1    2    0    0  0.97975216832E+01  0.62769489661E+02 -0.83181824775E+01  0.11100651313E+03  0.90649068023E+02 0.  0.
        -11    1    3    3    0    0 -0.16412026252E+02 -0.57152109366E+02  0.11017188036E+03  0.12519409504E+03  0.00000000000E+00 0.  1.
         11    1    3    3    0    0  0.35916460939E+02  0.16457021491E+01  0.97472318026E+02  0.10389202704E+03  0.00000000000E+00 0. -1.
        -11    1    4    4    0    0 -0.36499801874E+02  0.16468362051E+02  0.13074417501E+02  0.42123424344E+02  0.00000000000E+00 0.  1.
         11    1    4    4    0    0  0.46297323557E+02  0.46301127610E+02 -0.21392599978E+02  0.68883088783E+02  0.00000000000E+00 0. -1.
         21    1    1    2  502  501 -0.29301956370E+02 -0.72630824440E+01  0.55040469624E+02  0.62775873631E+02  0.00000000000E+00 0.  1.
<scales pt_clust_5="13000.00000" pt_clust_6="13000.00000" pt_clust_7="13000.00000" pt_clust_8="13000.00000" pt_clust_9="30.18869"></scales>
<clustering>
<clus scale="   30.189">  1  9  2 -1</clus>
<clus scale="   76.831">  5  6 -1 -1</clus>
<clus scale="   90.649">  7  8 -1 -1</clus>
<clus scale="   98.433">  1  5  2 -1</clus>
<clus scale="  109.560">  2  5  1 -1</clus>
</clustering>
</event>
<event>
 9    1  0.1266593E-005  0.4329639E+03  0.7546771E-02  0.1032995E+00
         -2   -1    0    0    0  501 -0.00000000000E+00  0.00000000000E+00  0.48767230465E+03  0.48767230465E+03  0.00000000000E+00 0.  1.
          2   -1    0    0  502    0  0.00000000000E+00 -0.00000000000E+00 -0.12024191615E+04  0.12024191615E+04  0.00000000000E+00 0. -1.
         23    2    1    2    0    0 -0.30066293616E+03  0.20461651843E+02  0.97297621628E+02  0.32849256077E+03  0.87313543797E+02 0.  0.
         23    2    1    2    0    0  0.45129134150E+03 -0.22513627900E+02 -0.10115254361E+04  0.11116273479E+04  0.91438035637E+02 0.  0.
        -11    1    4    4    0    0  0.37544882553E+02  0.22587208963E+01 -0.16293273738E+03  0.16721781286E+03  0.00000000000E+00 0.  1.
         11    1    4    4    0    0  0.41374645895E+03 -0.24772348796E+02 -0.84859269870E+03  0.94440953503E+03  0.00000000000E+00 0. -1.
        -13    1    3    3    0    0 -0.27810760544E+03  0.20892292920E+02  0.60574670740E+02  0.28539379609E+03  0.00000000000E+00 0.  1.
         13    1    3    3    0    0 -0.22555330719E+02 -0.43064107708E+00  0.36722950889E+02  0.43098764687E+02  0.00000000000E+00 0. -1.
         21    1    1    2  502  501 -0.15062840534E+03  0.20519760573E+01  0.19948095761E+03  0.24997155748E+03  0.00000000000E+00 0.  1.
<scales pt_clust_5="13000.00000" pt_clust_6="13000.00000" pt_clust_7="13000.00000" pt_clust_8="13000.00000" pt_clust_9="150.64238"></scales>
<clustering>
<clus scale="   87.314">  7  8 -1 -1</clus>
<clus scale="   91.438">  5  6 -1 -1</clus>
<clus scale="  150.642">  1  9  2 -1</clus>
<clus scale="  432.112">  1  7  2 -1</clus>
<clus scale="  432.964">  2  5  1 -1</clus>
</clustering>
</event>
<event>
 9    1  0.1266593E-005  0.9712783E+02  0.7546771E-02  0.1287113E+00
          1   -1    0    0  502    0  0.00000000000E+00  0.00000000000E+00  0.66111559984E+03  0.66111559984E+03  0.00000000000E+00 0. -1.
         -1   -1    0    0    0  501 -0.00000000000E+00 -0.00000000000E+00 -0.20253001995E+02  0.20253001995E+02  0.00000000000E+00 0.  1.
         23    2    1    2    0    0  0.36121030220E+01 -0.43177116523E+02  0.27334690546E+03  0.29166900887E+03  0.92059596616E+02 0.  0.
         23    2    1    2    0    0  0.16313988333E+01  0.22757135191E+02  0.34995679664E+03  0.36226266950E+03  0.90796109710E+02 0.  0.
        -11    1    3    3    0    0 -0.27945398767E+02 -0.36579506423E+02  0.24323989897E+03  0.24755737528E+03  0.00000000000E+00 0. -1.
         11    1    3    3    0    0  0.31557501789E+02 -0.65976101005E+01  0.30107006488E+02  0.44111633589E+02  0.00000000000E+00 0.  1.
        -13    1    4    4    0    0 -0.25503038603E+02  0.49303969538E+02  0.19769782330E+03  0.20534292227E+03  0.00000000000E+00 0. -1.
         13    1    4    4    0    0  0.27134437437E+02 -0.26546834348E+02  0.15225897334E+03  0.15691974723E+03  0.00000000000E+00 0.  1.
         21    1    1    2  502  501 -0.52435018553E+01  0.20419981333E+02  0.17558895744E+02  0.27436923462E+02  0.00000000000E+00 0. -1.
<scales pt_clust_5="13000.00000" pt_clust_6="13000.00000" pt_clust_7="13000.00000" pt_clust_8="13000.00000" pt_clust_9="21.08246"></scales>
<clustering>
<clus scale="   21.082">  2  9  1 -1</clus>
<clus scale="   90.796">  7  8 -1 -1</clus>
<clus scale="   92.060">  5  6 -1 -1</clus>
<clus scale="   95.931">  1  7  2 -1</clus>
<clus scale="   95.931">  1  5  2 -1</clus>
</clustering>
</event>
<event>
 9    1  0.1266593E-005  0.1225925E+03  0.7546771E-02  0.1240253E+00
         -1   -1    0    0    0  501 -0.00000000000E+00  0.00000000000E+00  0.54025419151E+02  0.54025419151E+02  0.00000000000E+00 0.  1.
          1   -1    0    0  502    0  0.00000000000E+00 -0.00000000000E+00 -0.49584013703E+03  0.49584013703E+03  0.00000000000E+00 0. -1.
         23    2    1    2    0    0 -0.75890827943E+02 -0.76351907364E+02 -0.19672340102E+03  0.24093718844E+03  0.88099947448E+02 0.  0.
         23    2    1    2    0    0  0.65299373310E+02  0.16181299570E+02 -0.20810426791E+03  0.23750902342E+03  0.92613753148E+02 0.  0.
        -13    1    3    3    0    0 -0.42401016938E+02 -0.63949771336E+02 -0.18957775287E+03  0.20451685474E+03  0.00000000000E+00 0. -1.
         13    1    3    3    0    0 -0.33489811005E+02 -0.12402136029E+02 -0.71456481545E+01  0.36420333700E+02  0.00000000000E+00 0.  1.
        -13    1    4    4    0    0  0.76723224168E+02 -0.88640186275E+01 -0.10229062140E+03  0.12817330135E+03  0.00000000000E+00 0.  1.
         13    1    4    4    0    0 -0.11423850858E+02  0.25045318197E+02 -0.10581364651E+03  0.10933572207E+03  0.00000000000E+00 0. -1.
         21    1    1    2  502  501  0.10591454633E+02  0.60170607795E+02 -0.36987048950E+02  0.71419344324E+02  0.00000000000E+00 0.  1.
<scales pt_clust_5="13000.00000" pt_clust_6="13000.00000" pt_clust_7="13000.00000" pt_clust_8="13000.00000" pt_clust_9="61.09567"></scales>
<clustering>
<clus scale="   61.096">  1  9  2 -1</clus>
<clus scale="   88.100">  5  6 -1 -1</clus>
<clus scale="   92.614">  7  8 -1 -1</clus>
<clus scale="  119.219">  1  5  2 -1</clus>
<clus scale="  122.593">  2  5  1 -1</clus>
</clustering>
</event>
<event>
 9    1  0.1266593E-005  0.1118711E+03  0.7546771E-02  0.1258173E+00
         -1   -1    0    0    0  501 -0.00000000000E+00  0.00000000000E+00  0.20823920912E+03  0.20823920912E+03  0.00000000000E+00 0.  1.
          1   -1    0    0  502    0  0.00000000000E+00 -0.00000000000E+00 -0.26975681362E+03  0.26975681362E+03  0.00000000000E+00 0. -1.
         23    2    1    2    0    0 -0.61360209953E+02  0.61056873157E+02  0.12690591320E+03  0.17837615530E+03  0.90663801206E+02 0.  0.
         23    2    1    2    0    0  0.42803429568E+02 -0.47392453457E+02 -0.22871698143E+03  0.25320183557E+03  0.87872257953E+02 0.  0.
        -11    1    3    3    0    0 -0.87576216501E+01  0.33742665236E+02 -0.35953055170E+01  0.35045536320E+02  0.00000000000E+00 0. -1.
         11    1    3    3    0    0 -0.52602588303E+02  0.27314207922E+02  0.13050121872E+03  0.14333061898E+03  0.00000000000E+00 0.  1.
        -13    1    4    4    0    0 -0.90135189536E+01  0.19326381148E+02 -0.26266081923E+02  0.33832818265E+02  0.00000000000E+00 0.  1.
         13    1    4    4    0    0  0.51816948522E+02 -0.66718834605E+02 -0.20245089950E+03  0.21936901731E+03  0.00000000000E+00 0. -1.
         21    1    1    2  502  501  0.18556780385E+02 -0.13664419700E+02  0.40293463720E+02  0.46418031869E+02  0.00000000000E+00 0.  1.
<scales pt_clust_5="13000.00000" pt_clust_6="13000.00000" pt_clust_7="13000.00000" pt_clust_8="13000.00000" pt_clust_9="23.04497"></scales>
<clustering>
<clus scale="   23.045">  1  9  2 -1</clus>
<clus scale="   87.872">  7  8 -1 -1</clus>
<clus scale="   90.664">  5  6 -1 -1</clus>
<clus scale="  109.621">  2  7  1 -1</clus>
<clus scale="  109.621">  2  5  1 -1</clus>
</clustering>
</event>
<event>
 9    1  0.1266593E-005  0.1039273E+03  0.7546771E-02  0.1273940E+00
          1   -1    0    0  502    0  0.00000000000E+00  0.00000000000E+00  0.27593676117E+02  0.27593676117E+02  0.00000000000E+00 0. -1.
         -1   -1    0    0    0  501 -0.00000000000E+00 -0.00000000000E+00 -0.81467122032E+03  0.81467122032E+03  0.00000000000E+00 0.  1.
         23    2    1    2    0    0  0.50140478578E+02 -0.48304831503E+02 -0.42958267838E+03  0.44440026521E+03  0.90016075342E+02 0.  0.
         23    2    1    2    0    0 -0.41906528843E+02 -0.57470753837E+01 -0.14061954320E+03  0.17420347651E+03  0.93721978542E+02 0.  0.
        -11    1    4    4    0    0  0.25685809574E+02 -0.15928572345E+02 -0.22307022546E+02  0.37564391188E+02  0.00000000000E+00 0.  1.
         11    1    4    4    0    0 -0.67592338417E+02  0.10181496961E+02 -0.11831252066E+03  0.13663908532E+03  0.00000000000E+00 0. -1.
        -13    1    3    3    0    0  0.59169343486E+02 -0.68679461658E+02 -0.36466851246E+03  0.37576722002E+03  0.00000000000E+00 0.  1.
         13    1    3    3    0    0 -0.90288649084E+01  0.20374630155E+02 -0.64914165921E+02  0.68633045195E+02  0.00000000000E+00 0. -1.
         21    1    1    2  502  501 -0.82339497349E+01  0.54051906887E+02 -0.21687532262E+03  0.22366115471E+03  0.00000000000E+00 0. -1.
<scales pt_clust_5="13000.00000" pt_clust_6="13000.00000" pt_clust_7="13000.00000" pt_clust_8="13000.00000" pt_clust_9="54.67547"></scales>
<clustering>
<clus scale="   54.675">  2  9  1 -1</clus>
<clus scale="   90.016">  7  8 -1 -1</clus>
<clus scale="   93.722">  5  6 -1 -1</clus>
<clus scale="  100.598">  2  7  1 -1</clus>
<clus scale="  103.927">  1  5  2 -1</clus>
</clustering>
</event>
<event>
 9    1  0.1266593E-005  0.1278472E+03  0.7546771E-02  0.1231625E+00
          1   -1    0    0  502    0  0.00000000000E+00  0.00000000000E+00  0.31046148964E+03  0.31046148964E+03  0.00000000000E+00 0. -1.
         -1   -1    0    0    0  501 -0.00000000000E+00 -0.00000000000E+00 -0.17160434785E+03  0.17160434785E+03  0.00000000000E+00 0.  1.
         23    2    1    2    0    0  0.49421894975E+02 -0.89343882351E+02 -0.75948364951E+02  0.15741902369E+03  0.92670069940E+02 0.  0.
         23    2    1    2    0    0 -0.62882666381E+01  0.82948922918E+02  0.24196965311E+03  0.27327273233E+03  0.95961487595E+02 0.  0.
        -11    1    3    3    0    0  0.47543027780E+02 -0.31933766560E+02  0.57375963308E+01  0.57558882449E+02  0.00000000000E+00 0. -1.
         11    1    3    3    0    0  0.18788671957E+01 -0.57410115791E+02 -0.81685961282E+02  0.99860141236E+02  0.00000000000E+00 0.  1.
        -11    1    4    4    0    0 -0.21060267879E+02  0.28728768249E+02  0.13663276785E+02  0.38151830109E+02  0.00000000000E+00 0.  1.
         11    1    4    4    0    0  0.14772001241E+02  0.54220154669E+02  0.22830637632E+03  0.23512090222E+03  0.00000000000E+00 0. -1.
         21    1    1    2  502  501 -0.43133628337E+02  0.63949594331E+01 -0.27164146357E+02  0.51374081471E+02  0.00000000000E+00 0.  1.
<scales pt_clust_5="13000.00000" pt_clust_6="13000.00000" pt_clust_7="13000.00000" pt_clust_8="13000.00000" pt_clust_9="43.60511"></scales>
<clustering>
<clus scale="   43.605">  2  9  1 -1</clus>
<clus scale="   92.670">  5  6 -1 -1</clus>
<clus scale="   95.961">  7  8 -1 -1</clus>
<clus scale="  125.396">  2  5  1 -1</clus>
<clus scale="  127.847">  1  5  2 -1</clus>
</clustering>
</event>
<event>
 9    1  0.1266593E-005  0.2112348E+03  0.7546771E-02  0.1140866E+00
         -2   -1    0    0    0  501 -0.00000000000E+00  0.00000000000E+00  0.56816371602E+02  0.56816371602E+02  0.00000000000E+00 0.  1.
          2   -1    0    0  502    0  0.00000000000E+00 -0.00000000000E+00 -0.11747868945E+04  0.11747868945E+04  0.00000000000E+00 0. -1.
         23    2    1    2    0    0  0.24496551185E+02 -0.15326086783E+03 -0.34202295860E+03  0.38695713043E+03  0.93097486304E+02 0.  0.
         23    2    1    2    0    0 -0.42915123233E+02  0.21076023600E+03 -0.73461868185E+03  0.77147853588E+03  0.96192196799E+02 0.  0.
        -11    1    4    4    0    0  0.16025852678E+02  0.24111273370E+02 -0.37343384793E+02  0.47251559185E+02  0.00000000000E+00 0.  1.
         11    1    4    4    0    0 -0.58940975911E+02  0.18664896263E+03 -0.69727529705E+03  0.72422697670E+03  0.00000000000E+00 0. -1.
        -13    1    3    3    0    0  0.35735681860E+02 -0.24561635964E+02 -0.14509075968E+03  0.15143196976E+03  0.00000000000E+00 0. -1.
         13    1    3    3    0    0 -0.11239130675E+02 -0.12869923187E+03 -0.19693219892E+03  0.23552516068E+03  0.00000000000E+00 0.  1.
         21    1    1    2  502  501  0.18418572048E+02 -0.57499368166E+02 -0.41328882477E+02  0.73167599814E+02  0.00000000000E+00 0.  1.
<scales pt_clust_5="13000.00000" pt_clust_6="13000.00000" pt_clust_7="13000.00000" pt_clust_8="13000.00000" pt_clust_9="60.37732"></scales>
<clustering>
<clus scale="   60.377">  1  9  2 -1</clus>
<clus scale="   93.097">  7  8 -1 -1</clus>
<clus scale="   96.192">  5  6 -1 -1</clus>
<clus scale="  209.844">  1  7  2 -1</clus>
<clus scale="  211.235">  2  5  1 -1</clus>
</clustering>
</event>
<event>
 9    1  0.1266593E-005  0.1220279E+03  0.7546771E-02  0.1240086E+00
         -1   -1    0    0    0  501 -0.00000000000E+00  0.00000000000E+00  0.82617315590E+02  0.82617315590E+02  0.00000000000E+00 0.  1.
          1   -1    0    0  502    0  0.00000000000E+00 -0.00000000000E+00 -0.34290947892E+03  0.34290947892E+03  0.00000000000E+00 0. -1.
         23    2    1    2    0    0  0.50729201652E+02 -0.33534950684E+02 -0.50705820773E+02  0.11979736218E+03  0.89901517828E+02 0.  0.
         23    2    1    2    0    0 -0.71941317346E+02  0.56398945725E+02 -0.23330303443E+03  0.26654783467E+03  0.90890307910E+02 0.  0.
        -13    1    3    3    0    0  0.18713968265E+02 -0.24270422242E+02 -0.73355832340E+02  0.79500592088E+02  0.00000000000E+00 0. -1.
         13    1    3    3    0    0  0.32015233387E+02 -0.92645284417E+01  0.22650011566E+02  0.40296770094E+02  0.00000000000E+00 0.  1.
        -13    1    4    4    0    0 -0.55096336875E+02  0.70266272238E+02 -0.11170033834E+03  0.14300322002E+03  0.00000000000E+00 0. -1.
         13    1    4    4    0    0 -0.16844980471E+02 -0.13867326513E+02 -0.12160269610E+03  0.12354461465E+03  0.00000000000E+00 0.  1.
         21    1    1    2  502  501  0.21212115694E+02 -0.22863995041E+02  0.23716691876E+02  0.39181597657E+02  0.00000000000E+00 0. -1.
<scales pt_clust_5="13000.00000" pt_clust_6="13000.00000" pt_clust_7="13000.00000" pt_clust_8="13000.00000" pt_clust_9="31.18840"></scales>
<clustering>
<clus scale="   31.188">  1  9  2 -1</clus>
<clus scale="   89.902">  5  6 -1 -1</clus>
<clus scale="   90.890">  7  8 -1 -1</clus>
<clus scale="  121.293">  1  5  2 -1</clus>
<clus scale="  122.028">  2  5  1 -1</clus>
</clustering>
</event>
<event>
 9    1  0.1266593E-005  0.1719409E+03  0.7546771E-02  0.1176411E+00
         -2   -1    0    0    0  501 -0.00000000000E+00  0.00000000000E+00  0.23450381298E+03  0.23450381298E+03  0.00000000000E+00 0.  1.
          2   -1    0    0  502    0  0.00000000000E+00 -0.00000000000E+00 -0.18131546568E+03  0.18131546568E+03  0.00000000000E+00 0. -1.
         23    2    1    2    0    0 -0.16426045233E+03  0.24040898236E+02  0.43196611148E+02  0.19638124577E+03  0.95604317315E+02 0.  0.
         23    2    1    2    0    0  0.12848185392E+03 -0.22728354730E+02 -0.33726001928E+02  0.16293076348E+03  0.91568693256E+02 0.  0.
        -11    1    4    4    0    0  0.40476602232E+02  0.68988971615E+01 -0.54046682587E+02  0.67874840765E+02  0.00000000000E+00 0. -1.
         11    1    4    4    0    0  0.88005251693E+02 -0.29627251892E+02  0.20320680659E+02  0.95055922713E+02  0.00000000000E+00 0.  1.
        -11    1    3    3    0    0 -0.14064854249E+03 -0.18595328081E+02  0.23460801525E+02  0.14379919311E+03  0.00000000000E+00 0. -1.
         11    1    3    3    0    0 -0.23611909839E+02  0.42636226317E+02  0.19735809624E+02  0.52582052663E+02  0.00000000000E+00 0.  1.
         21    1    1    2  502  501  0.35778598401E+02 -0.13125435053E+01  0.43717738077E+02  0.56507269413E+02  0.00000000000E+00 0.  1.
<scales pt_clust_5="13000.00000" pt_clust_6="13000.00000" pt_clust_7="13000.00000" pt_clust_8="13000.00000" pt_clust_9="35.80267"></scales>
<clustering>
<clus scale="   35.803">  1  9  2 -1</clus>
<clus scale="   91.569">  5  6 -1 -1</clus>
<clus scale="   95.604">  7  8 -1 -1</clus>
<clus scale="  169.730">  2  5  1 -1</clus>
<clus scale="  169.730">  2  5  1 -1</clus>
</clustering>
</event>
<event>
 9    1  0.1266593E-005  0.1271457E+03  0.7546771E-02  0.1231991E+00
          3   -1    0    0  502    0  0.00000000000E+00  0.00000000000E+00  0.16443003914E+03  0.16443003914E+03  0.00000000000E+00 0. -1.
         -3   -1    0    0    0  501 -0.00000000000E+00 -0.00000000000E+00 -0.25320539722E+03  0.25320539722E+03  0.00000000000E+00 0.  1.
         23    2    1    2    0    0  0.99450920984E+02 -0.12589537870E+02 -0.17359136581E+03  0.21988280711E+03  0.90363180726E+02 0.  0.
         23    2    1    2    0    0 -0.81746252470E+02  0.30203884855E+02  0.10617011614E+03  0.16489355969E+03  0.91230850108E+02 0.  0.
        -11    1    3    3    0    0  0.33065579569E+02 -0.37936727849E+02 -0.27314207867E+02  0.57259006484E+02  0.00000000000E+00 0. -1.
         11    1    3    3    0    0  0.66385341415E+02  0.25347189979E+02 -0.14627715794E+03  0.16262380062E+03  0.00000000000E+00 0.  1.
        -11    1    4    4    0    0 -0.94602871387E+01  0.19621622951E+02 -0.12812816286E+02  0.25271988073E+02  0.00000000000E+00 0.  1.
         11    1    4    4    0    0 -0.72285965332E+02  0.10582261905E+02  0.11898293243E+03  0.13962157162E+03  0.00000000000E+00 0. -1.
         21    1    1    2  502  501 -0.17704668513E+02 -0.17614346986E+02 -0.21354108416E+02  0.32859069572E+02  0.00000000000E+00 0. -1.
<scales pt_clust_5="13000.00000" pt_clust_6="13000.00000" pt_clust_7="13000.00000" pt_clust_8="13000.00000" pt_clust_9="24.97440"></scales>
<clustering>
<clus scale="   24.974">  2  9  1 -1</clus>
<clus scale="   90.363">  5  6 -1 -1</clus>
<clus scale="   91.231">  7  8 -1 -1</clus>
<clus scale="  126.525">  2  5  1 -1</clus>
<clus scale="  127.146">  1  5  2 -1</clus>
</clustering>
</event>
<event>
 9    1  0.1266593E-005  0.1233916E+03  0.7546771E-02  0.1238281E+00
         -2   -1    0    0    0  501 -0.00000000000E+00  0.00000000000E+00  0.60635245240E+02  0.60635245240E+02  0.00000000000E+00 0.  1.
          2   -1    0    0  502    0  0.00000000000E+00 -0.00000000000E+00 -0.37907320636E+03  0.37907320636E+03  0.00000000000E+00 0. -1.
         23    2    1    2    0    0  0.12188421490E+02  0.78596211269E+02 -0.62316466947E+02  0.13389380950E+03  0.87853788341E+02 0.  0.
         23    2    1    2    0    0 -0.39331067481E+02 -0.78015973046E+02 -0.24715956283E+03  0.27722485159E+03  0.90179509448E+02 0.  0.
        -13    1    3    3    0    0 -0.28791100698E+02  0.62712214569E+02 -0.17642705179E+02  0.71225096571E+02  0.00000000000E+00 0.  1.
         13    1    3    3    0    0  0.40979522188E+02  0.15883996700E+02 -0.44673761768E+02  0.62668712931E+02  0.00000000000E+00 0. -1.
        -13    1    4    4    0    0 -0.33610237460E+02  0.93598355444E+01 -0.10085147901E+03  0.10671586293E+03  0.00000000000E+00 0.  1.
         13    1    4    4    0    0 -0.57208300213E+01 -0.87375808590E+02 -0.14630808382E+03  0.17050898866E+03  0.00000000000E+00 0. -1.
         21    1    1    2  502  501  0.27142645991E+02 -0.58023822361E+00 -0.89619313482E+01  0.28589790508E+02  0.00000000000E+00 0.  1.
<scales pt_clust_5="13000.00000" pt_clust_6="13000.00000" pt_clust_7="13000.00000" pt_clust_8="13000.00000" pt_clust_9="27.14885"></scales>
<clustering>
<clus scale="   27.149">  1  9  2 -1</clus>
<clus scale="   87.854">  5  6 -1 -1</clus>
<clus scale="   90.180">  7  8 -1 -1</clus>
<clus scale="  121.702">  1  5  2 -1</clus>
<clus scale="  123.392">  2  5  1 -1</clus>
</clustering>
</event>
<event>
 9    1  0.1266593E-005  0.1432583E+03  0.7546771E-02  0.1209238E+00
          1   -1    0    0  502    0  0.00000000000E+00  0.00000000000E+00  0.56230102350E+03  0.56230102350E+03  0.00000000000E+00 0. -1.
         -1   -1    0    0    0  501 -0.00000000000E+00 -0.00000000000E+00 -0.43719091274E+02  0.43719091274E+02  0.00000000000E+00 0.  1.
         23    2    1    2    0    0  0.86131340397E+02  0.83196553030E+02  0.19604168347E+03  0.24759213961E+03  0.92353947967E+02 0.  0.
         23    2    1    2    0    0 -0.68331805077E+02 -0.67449213235E+02  0.27770298791E+03  0.30768172281E+03  0.91271359705E+02 0.  0.
        -11    1    3    3    0    0  0.13637948112E+02  0.66730823153E+02  0.52692236407E+02  0.86113112620E+02  0.00000000000E+00 0.  1.
         11    1    3    3    0    0  0.72493392285E+02  0.16465729877E+02  0.14334944706E+03  0.16147902699E+03  0.00000000000E+00 0. -1.
        -11    1    4    4    0    0 -0.17723340066E+02 -0.16115222600E+02  0.35575229473E+01  0.24217207767E+02  0.00000000000E+00 0.  1.
         11    1    4    4    0    0 -0.50608465011E+02 -0.51333990635E+02  0.27414546496E+03  0.28346451504E+03  0.00000000000E+00 0. -1.
         21    1    1    2  502  501 -0.17799535320E+02 -0.15747339795E+02  0.44837260853E+02  0.50746252364E+02  0.00000000000E+00 0.  1.
<scales pt_clust_5="13000.00000" pt_clust_6="13000.00000" pt_clust_7="13000.00000" pt_clust_8="13000.00000" pt_clust_9="23.76557"></scales>
<clustering>
<clus scale="   23.766">  1  9  2 -1</clus>
<clus scale="   91.271">  7  8 -1 -1</clus>
<clus scale="   92.354">  5  6 -1 -1</clus>
<clus scale="  142.563">  1  7  2 -1</clus>
<clus scale="   23.766">  1  5  2 -1</clus>
</clustering>
</event>
<event>
 9    1  0.1266593E-005  0.1488663E+03  0.7546771E-02  0.1202063E+00
          2   -1    0    0  502    0  0.00000000000E+00  0.00000000000E+00  0.96805856651E+03  0.96805856651E+03  0.00000000000E+00 0. -1.
         -2   -1    0    0    0  501 -0.00000000000E+00 -0.00000000000E+00 -0.60652839585E+02  0.60652839585E+02  0.00000000000E+00 0.  1.
         23    2    1    2    0    0 -0.13069696493E+03 -0.24355350279E+02  0.37721632482E+03  0.41026220949E+03  0.91367637027E+02 0.  0.
         23    2    1    2    0    0  0.10736976547E+03 -0.34978476529E+02  0.53498151731E+03  0.55451465502E+03  0.92355391922E+02 0.  0.
        -13    1    4    4    0    0  0.23742846398E+02 -0.54986826127E+02  0.21972189178E+03  0.22773884940E+03  0.00000000000E+00 0. -1.
         13    1    4    4    0    0  0.83626919072E+02  0.20008349598E+02  0.31525962553E+03  0.32677580562E+03  0.00000000000E+00 0.  1.
        -13    1    3    3    0    0 -0.22928724388E+02 -0.39119415915E+02  0.17346419522E+03  0.17929272748E+03  0.00000000000E+00 0. -1.
         13    1    3    3    0    0 -0.10776824055E+03  0.14764065636E+02  0.20375212960E+03  0.23096948202E+03  0.00000000000E+00 0.  1.
         21    1    1    2  502  501  0.23327199465E+02  0.59333826808E+02 -0.47921152045E+01  0.63934541578E+02  0.00000000000E+00 0. -1.
<scales pt_clust_5="13000.00000" pt_clust_6="13000.00000" pt_clust_7="13000.00000" pt_clust_8="13000.00000" pt_clust_9="63.75470"></scales>
<clustering>
<clus scale="   63.755">  2  9  1 -1</clus>
<clus scale="   91.368">  7  8 -1 -1</clus>
<clus scale="   92.355">  5  6 -1 -1</clus>
<clus scale="  148.256">  2  7  1 -1</clus>
<clus scale="  148.866">  1  5  2 -1</clus>
</clustering>
</event>
<event>
 9    1  0.1266593E-005  0.1727065E+03  0.7546771E-02  0.1197176E+00
          2   -1    0    0  502    0  0.00000000000E+00  0.00000000000E+00  0.97007179595E+03  0.97007179595E+03  0.00000000000E+00 0. -1.
         -2   -1    0    0    0  501 -0.00000000000E+00 -0.00000000000E+00 -0.83810282553E+02  0.83810282553E+02  0.00000000000E+00 0.  1.
         23    2    1    2    0    0  0.51454801549E+02  0.59914080966E+01  0.58725436925E+01  0.10574888560E+03  0.92004600227E+02 0.  0.
         23    2    1    2    0    0  0.12857151132E+03  0.18972303656E+02  0.53481530778E+03  0.55767984608E+03  0.89937842194E+02 0.  0.
        -11    1    4    4    0    0  0.10341809181E+03  0.24786487776E+02  0.51291957551E+03  0.52382837135E+03  0.00000000000E+00 0. -1.
         11    1    4    4    0    0  0.25153419505E+02 -0.58141841200E+01  0.21895732276E+02  0.33851474734E+02  0.00000000000E+00 0.  1.
        -13    1    3    3    0    0  0.20697218026E+02 -0.12079194332E+02 -0.40611109393E+02  0.47154469310E+02  0.00000000000E+00 0.  1.
         13    1    3    3    0    0  0.30757583522E+02  0.18070602429E+02  0.46483653086E+02  0.58594416291E+02  0.00000000000E+00 0. -1.
         21    1    1    2  502  501 -0.18002631287E+03 -0.24963711752E+02  0.34557366192E+03  0.39045334682E+03  0.00000000000E+00 0.  1.
<scales pt_clust_5="13000.00000" pt_clust_6="13000.00000" pt_clust_7="13000.00000" pt_clust_8="13000.00000" pt_clust_9="147.44055"></scales>
<clustering>
<clus scale="   89.938">  5  6 -1 -1</clus>
<clus scale="   92.005">  7  8 -1 -1</clus>
<clus scale="  105.586">  2  7  1 -1</clus>
<clus scale="  147.441">  2  9  1 -1</clus>
<clus scale="  172.706">  1  5  2 -1</clus>
</clustering>
</event>
<event>
 9    1  0.1266593E-005  0.1005562E+03  0.7546771E-02  0.1281261E+00
          3   -1    0    0  502    0  0.00000000000E+00  0.00000000000E+00  0.51920995077E+02  0.51920995077E+02  0.00000000000E+00 0. -1.
         -3   -1    0    0    0  501 -0.00000000000E+00 -0.00000000000E+00 -0.59220312415E+03  0.59220312415E+03  0.00000000000E+00 0.  1.
         23    2    1    2    0    0 -0.45048260201E+02 -0.45942277985E+01 -0.31899340824E+03  0.33616136851E+03  0.95902129794E+02 0.  0.
         23    2    1    2    0    0  0.14325346131E+02  0.26935947385E+02 -0.14518662962E+02  0.97732147061E+02  0.91706162234E+02 0.  0.
        -11    1    3    3    0    0 -0.56675409626E+02  0.33382236891E+02 -0.21523887087E+03  0.22506498468E+03  0.00000000000E+00 0.  1.
         11    1    3    3    0    0  0.11627149425E+02 -0.37976464690E+02 -0.10375453737E+03  0.11109638383E+03  0.00000000000E+00 0. -1.
        -11    1    4    4    0    0  0.50660112831E+02  0.53170690586E+01  0.49633113205E+01  0.51179612295E+02  0.00000000000E+00 0. -1.
         11    1    4    4    0    0 -0.36334766700E+02  0.21618878326E+02 -0.19481974282E+02  0.46552534766E+02  0.00000000000E+00 0.  1.
         21    1    1    2  502  501  0.30722914070E+02 -0.22341719586E+02 -0.20677005787E+03  0.21023060365E+03  0.00000000000E+00 0.  1.
<scales pt_clust_5="13000.00000" pt_clust_6="13000.00000" pt_clust_7="13000.00000" pt_clust_8="13000.00000" pt_clust_9="37.98750"></scales>
<clustering>
<clus scale="   37.987">  2  9  1 -1</clus>
<clus scale="   91.706">  7  8 -1 -1</clus>
<clus scale="   95.902">  5  6 -1 -1</clus>
<clus scale="   96.563">  1  7  2 -1</clus>
<clus scale="   96.563">  1  5  2 -1</clus>
</clustering>
</event>
<event>
 9    1  0.1266593E-005  0.1127580E+03  0.7546771E-02  0.1256115E+00
         -1   -1    0    0    0  501 -0.00000000000E+00  0.00000000000E+00  0.53331311020E+03  0.53331311020E+03  0.00000000000E+00 0.  1.
          1   -1    0    0  502    0  0.00000000000E+00 -0.00000000000E+00 -0.11561236925E+03  0.11561236925E+03  0.00000000000E+00 0. -1.
         23    2    1    2    0    0 -0.34609009937E+02  0.81359192315E+01  0.40970965125E+03  0.42092930385E+03  0.89752458213E+02 0.  0.
         23    2    1    2    0    0  0.30591306321E+02 -0.62439535466E+02 -0.68832592598E+02  0.13383194227E+03  0.91315603022E+02 0.  0.
        -13    1    3    3    0    0 -0.63367442830E+02  0.70288087076E+01  0.33189232894E+03  0.33796058198E+03  0.00000000000E+00 0. -1.
         13    1    3    3    0    0  0.28758432892E+02  0.11071105239E+01  0.77817322316E+02  0.82968721869E+02  0.00000000000E+00 0.  1.
        -13    1    4    4    0    0 -0.12898954940E+02 -0.44642195381E+02 -0.73130217134E+02  0.86644891974E+02  0.00000000000E+00 0. -1.
         13    1    4    4    0    0  0.43490261261E+02 -0.17797340085E+02  0.42976245360E+01  0.47187050292E+02  0.00000000000E+00 0.  1.
         21    1    1    2  502  501  0.40177036162E+01  0.54303616234E+02  0.76823682291E+02  0.94164233333E+02  0.00000000000E+00 0. -1.
<scales pt_clust_5="13000.00000" pt_clust_6="13000.00000" pt_clust_7="13000.00000" pt_clust_8="13000.00000" pt_clust_9="54.45204"></scales>
<clustering>
<clus scale="   54.452">  1  9  2 -1</clus>
<clus scale="   89.752">  5  6 -1 -1</clus>
<clus scale="   91.316">  7  8 -1 -1</clus>
<clus scale="  111.496">  1  5  2 -1</clus>
<clus scale="  112.758">  2  5  1 -1</clus>
</clustering>
</event>
<event>
 9    1  0.1428539E-005  0.1078423E+03  0.7546771E-02  0.1265537E+00
          1   -1    0    0  502    0  0.00000000000E+00  0.00000000000E+00  0.45478469425E+02  0.45478469425E+02  0.00000000000E+00 0. -1.
         -1   -1    0    0    0  501 -0.00000000000E+00 -0.00000000000E+00 -0.68300488454E+03  0.68300488454E+03  0.00000000000E+00 0.  1.
         23    2    1    2    0    0 -0.23543932124E+02  0.28823134156E+02 -0.49713833614E+03  0.50636394425E+03  0.88728963608E+02 0.  0.
         23    2    1    2    0    0  0.92874594297E+01 -0.61225451083E+02 -0.42444483154E+02  0.11797477414E+03  0.91003848376E+02 0.  0.
        -13    1    4    4    0    0 -0.38961484574E+02 -0.11521872958E+02 -0.12498065517E+02  0.42508263648E+02  0.00000000000E+00 0. -1.
         13    1    4    4    0    0  0.48248944004E+02 -0.49703578125E+02 -0.29946417637E+02  0.75466510488E+02  0.00000000000E+00 0.  1.
        -13    1    3    3    0    0  0.29940121872E+02 -0.72120462647E+01 -0.12946080637E+03  0.13307338162E+03  0.00000000000E+00 0. -1.
         13    1    3    3    0    0 -0.53484053996E+02  0.36035180421E+02 -0.36767752976E+03  0.37329056263E+03  0.00000000000E+00 0.  1.
         21    1    1    2  502  501  0.14256472695E+02  0.32402316927E+02 -0.97943595823E+02  0.10414463557E+03  0.00000000000E+00 0.  1.
<scales pt_clust_5="13000.00000" pt_clust_6="13000.00000" pt_clust_7="13000.00000" pt_clust_8="13000.00000" pt_clust_9="35.39996"></scales>
<clustering>
<clus scale="   35.400">  2  9  1 -1</clus>
<clus scale="   88.729">  7  8 -1 -1</clus>
<clus scale="   91.004">  5  6 -1 -1</clus>
<clus scale="  105.930">  2  7  1 -1</clus>
<clus scale="  107.842">  1  5  2 -1</clus>
</clustering>
</event>
<event>
 9    1  0.1266593E-005  0.1599415E+03  0.7546771E-02  0.1188926E+00
         -1   -1    0    0    0  501 -0.00000000000E+00  0.00000000000E+00  0.28838338954E+03  0.28838338954E+03  0.00000000000E+00 0.  1.
          1   -1    0    0  502    0  0.00000000000E+00 -0.00000000000E+00 -0.39082551359E+03  0.39082551359E+03  0.00000000000E+00 0. -1.
         23    2    1    2    0    0 -0.47564824964E+02 -0.11739973699E+03  0.22058291606E+03  0.27073250450E+03  0.92704667178E+02 0.  0.
         23    2    1    2    0    0  0.82655642099E+02  0.10066276645E+03 -0.33185644998E+03  0.36860804739E+03  0.93692270160E+02 0.  0.
        -11    1    3    3    0    0 -0.70365839216E+02 -0.10388223263E+03  0.20390242994E+03  0.23941401488E+03  0.00000000000E+00 0. -1.
         11    1    3    3    0    0  0.22801014252E+02 -0.13517504360E+02  0.16680486122E+02  0.31318489624E+02  0.00000000000E+00 0.  1.
        -11    1    4    4    0    0  0.22314965450E+02  0.96209410392E+02 -0.22685866422E+03  0.24742486104E+03  0.00000000000E+00 0. -1.
         11    1    4    4    0    0  0.60340676650E+02  0.44533560569E+01 -0.10499778577E+03  0.12118318635E+03  0.00000000000E+00 0.  1.
         21    1    1    2  502  501 -0.35090817135E+02  0.16736970541E+02  0.88314098661E+01  0.39868351237E+02  0.00000000000E+00 0.  1.
<scales pt_clust_5="13000.00000" pt_clust_6="13000.00000" pt_clust_7="13000.00000" pt_clust_8="13000.00000" pt_clust_9="38.87791"></scales>
<clustering>
<clus scale="   38.878">  1  9  2 -1</clus>
<clus scale="   92.705">  5  6 -1 -1</clus>
<clus scale="   93.692">  7  8 -1 -1</clus>
<clus scale="  159.365">  1  5  2 -1</clus>
<clus scale="  159.942">  2  5  1 -1</clus>
</clustering>
</event>
<event>
 9    1  0.1266593E-005  0.1278674E+03  0.7546771E-02  0.1231358E+00
         -1   -1    0    0    0  501 -0.00000000000E+00  0.00000000000E+00  0.17253710096E+03  0.17253710096E+03  0.00000000000E+00 0.  1.
          1   -1    0    0  502    0  0.00000000000E+00 -0.00000000000E+00 -0.18064881805E+03  0.18064881805E+03  0.00000000000E+00 0. -1.
         23    2    1    2    0    0 -0.91550180548E+01 -0.86089313501E+02  0.80055446415E+02  0.14658990756E+03  0.87089277426E+02 0.  0.
         23    2    1    2    0    0  0.33463328161E+02  0.86643194631E+02 -0.11317306789E+03  0.17171770905E+03  0.89732885828E+02 0.  0.
        -13    1    3    3    0    0 -0.94318039409E+01 -0.44540626324E+02 -0.10705905253E+02  0.46770105048E+02  0.00000000000E+00 0. -1.
         13    1    3    3    0    0  0.27678588610E+00 -0.41548687177E+02  0.90761351669E+02  0.99819802511E+02  0.00000000000E+00 0.  1.
        -13    1    4    4    0    0  0.58553615318E+02  0.85143542392E+02 -0.97659270424E+02  0.14218045498E+03  0.00000000000E+00 0. -1.
         13    1    4    4    0    0 -0.25090287157E+02  0.14996522389E+01 -0.15513797469E+02  0.29537254076E+02  0.00000000000E+00 0.  1.
         21    1    1    2  502  501 -0.24308310106E+02 -0.55388112928E+00  0.25005904385E+02  0.34878302405E+02  0.00000000000E+00 0.  1.
<scales pt_clust_5="13000.00000" pt_clust_6="13000.00000" pt_clust_7="13000.00000" pt_clust_8="13000.00000" pt_clust_9="24.31462"></scales>
<clustering>
<clus scale="   24.315">  1  9  2 -1</clus>
<clus scale="   87.089">  5  6 -1 -1</clus>
<clus scale="   89.733">  7  8 -1 -1</clus>
<clus scale="  126.026">  1  5  2 -1</clus>
<clus scale="  127.867">  2  5  1 -1</clus>
</clustering>
</event>
<event>
 9    1  0.1266593E-005  0.1170268E+03  0.7546771E-02  0.1248945E+00
          1   -1    0    0  502    0  0.00000000000E+00  0.00000000000E+00  0.65061713895E+02  0.65061713895E+02  0.00000000000E+00 0. -1.
         -1   -1    0    0    0  501 -0.00000000000E+00 -0.00000000000E+00 -0.55445304986E+03  0.55445304986E+03  0.00000000000E+00 0.  1.
         23    2    1    2    0    0  0.43068264657E+02  0.38283168427E+01 -0.20388687956E+03  0.22767634194E+03  0.91635831361E+02 0.  0.
         23    2    1    2    0    0 -0.74950986431E+02  0.27259665101E+02 -0.22899125936E+02  0.12548427757E+03  0.94133916525E+02 0.  0.
        -11    1    4    4    0    0  0.22398930841E+02  0.98558768033E+01 -0.38339471103E+01  0.24769932596E+02  0.00000000000E+00 0.  1.
         11    1    4    4    0    0 -0.97349917272E+02  0.17403788298E+02 -0.19065178826E+02  0.10071434497E+03  0.00000000000E+00 0. -1.
        -11    1    3    3    0    0  0.14043935058E+02  0.45066478077E+02 -0.12925358423E+03  0.13760344689E+03  0.00000000000E+00 0.  1.
         11    1    3    3    0    0  0.29024329599E+02 -0.41238161235E+02 -0.74633295330E+02  0.90072895049E+02  0.00000000000E+00 0. -1.
         21    1    1    2  502  501  0.31882721774E+02 -0.31087981944E+02 -0.26260533047E+03  0.26635414425E+03  0.00000000000E+00 0.  1.
<scales pt_clust_5="13000.00000" pt_clust_6="13000.00000" pt_clust_7="13000.00000" pt_clust_8="13000.00000" pt_clust_9="44.53056"></scales>
<clustering>
<clus scale="   44.531">  2  9  1 -1</clus>
<clus scale="   91.636">  7  8 -1 -1</clus>
<clus scale="   94.134">  5  6 -1 -1</clus>
<clus scale="  115.027">  2  7  1 -1</clus>
<clus scale="  117.027">  1  5  2 -1</clus>
</clustering>
</event>
<event>
 9    1  0.1266593E-005  0.3146414E+03  0.7546771E-02  0.1078297E+00
         -2   -1    0    0    0  501 -0.00000000000E+00  0.00000000000E+00  0.87201605158E+03  0.87201605158E+03  0.00000000000E+00 0.  1.
          2   -1    0    0  502    0  0.00000000000E+00 -0.00000000000E+00 -0.59919927355E+03  0.59919927355E+03  0.00000000000E+00 0. -1.
         23    2    1    2    0    0 -0.18549788280E+03 -0.26657595402E+03  0.60120527361E+03  0.68902097992E+03  0.88486868913E+02 0.  0.
         23    2    1    2    0    0  0.11769777834E+03  0.27522351093E+03 -0.50412806016E+03  0.59363128159E+03  0.93017468452E+02 0.  0.
        -11    1    3    3    0    0 -0.98207384509E+02 -0.11626651668E+03  0.19632520604E+03  0.24840728612E+03  0.00000000000E+00 0.  1.
         11    1    3    3    0    0 -0.87290498287E+02 -0.15030943734E+03  0.40488006757E+03  0.44061369380E+03  0.00000000000E+00 0. -1.
        -13    1    4    4    0    0  0.40980368587E+02  0.49314062628E+02 -0.52546712238E+02  0.82900086546E+02  0.00000000000E+00 0.  1.
         13    1    4    4    0    0  0.76717409757E+02  0.22590944830E+03 -0.45158134793E+03  0.51073119504E+03  0.00000000000E+00 0. -1.
         21    1    1    2  502  501  0.67800104452E+02 -0.86475569147E+01  0.17573956458E+03  0.18856306362E+03  0.00000000000E+00 0. -1.
<scales pt_clust_5="13000.00000" pt_clust_6="13000.00000" pt_clust_7="13000.00000" pt_clust_8="13000.00000" pt_clust_9="68.34936"></scales>
<clustering>
<clus scale="   68.349">  1  9  2 -1</clus>
<clus scale="   88.487">  5  6 -1 -1</clus>
<clus scale="   93.017">  7  8 -1 -1</clus>
<clus scale="  313.332">  1  5  2 -1</clus>
<clus scale="  314.641">  2  5  1 -1</clus>
</clustering>
</event>
<event>
 9    1  0.1294978E-005  0.1393832E+03  0.7546771E-02  0.1217656E+00
         -1   -1    0    0    0  501 -0.00000000000E+00  0.00000000000E+00  0.16662060614E+03  0.16662060614E+03  0.00000000000E+00 0.  1.
          1   -1    0    0  502    0  0.00000000000E+00 -0.00000000000E+00 -0.34421695798E+03  0.34421695798E+03  0.00000000000E+00 0. -1.
         23    2    1    2    0    0 -0.33869089652E+01  0.34851002765E+02  0.84241331757E+02  0.12808322539E+03  0.89903543329E+02 0.  0.
         23    2    1    2    0    0  0.15518615060E+02 -0.10190234258E+03 -0.27675427798E+03  0.31300073486E+03  0.10368999376E+03 0.  0.
        -11    1    4    4    0    0 -0.45525599760E+01 -0.11916661207E+03 -0.21611738548E+03  0.24683624439E+03  0.00000000000E+00 0. -1.
         11    1    4    4    0    0  0.20071175036E+02  0.17264269487E+02 -0.60636892498E+02  0.66164490477E+02  0.00000000000E+00 0.  1.
        -13    1    3    3    0    0 -0.28574470917E+02 -0.19950849658E+02  0.20979274523E+02  0.40677595182E+02  0.00000000000E+00 0. -1.
         13    1    3    3    0    0  0.25187561952E+02  0.54801852422E+02  0.63262057234E+02  0.87405630205E+02  0.00000000000E+00 0.  1.
         21    1    1    2  502  501 -0.12131706094E+02  0.67051339820E+02  0.14916594389E+02  0.69753603868E+02  0.00000000000E+00 0.  1.
<scales pt_clust_5="13000.00000" pt_clust_6="13000.00000" pt_clust_7="13000.00000" pt_clust_8="13000.00000" pt_clust_9="68.14001"></scales>
<clustering>
<clus scale="   68.140">  1  9  2 -1</clus>
<clus scale="   89.904">  7  8 -1 -1</clus>
<clus scale="  103.690">  5  6 -1 -1</clus>
<clus scale="  129.455">  1  7  2 -1</clus>
<clus scale="  139.383">  2  5  1 -1</clus>
</clustering>
</event>
<event>
 9    1  0.1266593E-005  0.9918712E+02  0.7546771E-02  0.1282092E+00
         -2   -1    0    0    0  501 -0.00000000000E+00  0.00000000000E+00  0.99675587167E+02  0.99675587167E+02  0.00000000000E+00 0.  1.
          2   -1    0    0  502    0  0.00000000000E+00 -0.00000000000E+00 -0.23559881486E+03  0.23559881486E+03  0.00000000000E+00 0. -1.
         23    2    1    2    0    0 -0.71470304969E+01 -0.14207446497E+01  0.16943828601E+02  0.93400506796E+02  0.91561251531E+02 0.  0.
         23    2    1    2    0    0  0.44792686716E+02  0.84243168894E+01 -0.17114029980E+03  0.19944563949E+03  0.91718084363E+02 0.  0.
        -11    1    4    4    0    0 -0.59975523127E+01 -0.28132313999E+02 -0.17797064357E+02  0.33825038425E+02  0.00000000000E+00 0.  1.
         11    1    4    4    0    0  0.50790239029E+02  0.36556630889E+02 -0.15334323544E+03  0.16562060107E+03  0.00000000000E+00 0. -1.
        -13    1    3    3    0    0 -0.42672177393E+02  0.22944376332E+02  0.12874511340E+02  0.50130950230E+02  0.00000000000E+00 0.  1.
         13    1    3    3    0    0  0.35525146896E+02 -0.24365120982E+02  0.40693172616E+01  0.43269556566E+02  0.00000000000E+00 0. -1.
         21    1    1    2  502  501 -0.37645656219E+02 -0.70035722398E+01  0.18273243509E+02  0.42428255734E+02  0.00000000000E+00 0.  1.
<scales pt_clust_5="13000.00000" pt_clust_6="13000.00000" pt_clust_7="13000.00000" pt_clust_8="13000.00000" pt_clust_9="38.29158"></scales>
<clustering>
<clus scale="   38.292">  1  9  2 -1</clus>
<clus scale="   91.561">  7  8 -1 -1</clus>
<clus scale="   91.718">  5  6 -1 -1</clus>
<clus scale="   99.042">  1  7  2 -1</clus>
<clus scale="   99.187">  2  5  1 -1</clus>
</clustering>
</event>
<event>
 9    1  0.1266593E-005  0.1309440E+03  0.7546771E-02  0.1226351E+00
         -1   -1    0    0    0  501 -0.00000000000E+00  0.00000000000E+00  0.83631556251E+03  0.83631556251E+03  0.00000000000E+00 0.  1.
          1   -1    0    0  502    0  0.00000000000E+00 -0.00000000000E+00 -0.25053052400E+02  0.25053052400E+02  0.00000000000E+00 0. -1.
         23    2    1    2    0    0 -0.26495121454E+02 -0.10141524491E+03  0.34476773598E+03  0.37152167634E+03  0.90424116555E+02 0.  0.
         23    2    1    2    0    0  0.17349467444E+02  0.80624426860E+02  0.34738519701E+03  0.36859104196E+03  0.91550963309E+02 0.  0.
        -11    1    4    4    0    0  0.80677741235E-01  0.68695909969E+02  0.33916259284E+03  0.34604970588E+03  0.00000000000E+00 0.  1.
         11    1    4    4    0    0  0.17268789703E+02  0.11928516891E+02  0.82226041711E+01  0.22541336082E+02  0.00000000000E+00 0. -1.
        -13    1    3    3    0    0  0.24707446442E+02 -0.52369029154E+02  0.89568888342E+02  0.10665626509E+03  0.00000000000E+00 0.  1.
         13    1    3    3    0    0 -0.51202567896E+02 -0.49046215755E+02  0.25519884764E+03  0.26486541125E+03  0.00000000000E+00 0. -1.
         21    1    1    2  502  501  0.91456540104E+01  0.20790818049E+02  0.11910957712E+03  0.12125589662E+03  0.00000000000E+00 0.  1.
<scales pt_clust_5="13000.00000" pt_clust_6="13000.00000" pt_clust_7="13000.00000" pt_clust_8="13000.00000" pt_clust_9="22.71346"></scales>
<clustering>
<clus scale="   22.713">  1  9  2 -1</clus>
<clus scale="   90.424">  7  8 -1 -1</clus>
<clus scale="   91.551">  5  6 -1 -1</clus>
<clus scale="  130.159">  1  7  2 -1</clus>
<clus scale="  130.944">  2  5  1 -1</clus>
</clustering>
</event>
<event>
 9    1  0.1266593E-005  0.1007291E+03  0.7546771E-02  0.1281815E+00
         -2   -1    0    0    0  501 -0.00000000000E+00  0.00000000000E+00  0.97506624719E+02  0.97506624719E+02  0.00000000000E+00 0.  1.
          2   -1    0    0  502    0  0.00000000000E+00 -0.00000000000E+00 -0.22087918092E+03  0.22087918092E+03  0.00000000000E+00 0. -1.
         23    2    1    2    0    0 -0.96494873345E+01 -0.12051436767E+01  0.18754152051E+02  0.93479711751E+02  0.91061371134E+02 0.  0.
         23    2    1    2    0    0  0.30323431554E+02 -0.10556639193E+02 -0.16359619239E+03  0.19286408623E+03  0.96963335657E+02 0.  0.
        -11    1    3    3    0    0 -0.10560133873E+01  0.31845913134E+02  0.41593951583E+02  0.52395936444E+02  0.00000000000E+00 0. -1.
         11    1    3    3    0    0 -0.85934739471E+01 -0.33051056810E+02 -0.22839799532E+02  0.41083775306E+02  0.00000000000E+00 0.  1.
        -11    1    4    4    0    0  0.98161393834E+01 -0.53476533647E+02 -0.93309962813E+02  0.10799465451E+03  0.00000000000E+00 0.  1.
         11    1    4    4    0    0  0.20507292171E+02  0.42919894455E+02 -0.70286229574E+02  0.84869431716E+02  0.00000000000E+00 0. -1.
         21    1    1    2  502  501 -0.20673944220E+02  0.11761782870E+02  0.21469484134E+02  0.32042007659E+02  0.00000000000E+00 0. -1.
<scales pt_clust_5="13000.00000" pt_clust_6="13000.00000" pt_clust_7="13000.00000" pt_clust_8="13000.00000" pt_clust_9="23.78553"></scales>
<clustering>
<clus scale="   23.786">  1  9  2 -1</clus>
<clus scale="   91.061">  5  6 -1 -1</clus>
<clus scale="   95.061">  1  5  2 -1</clus>
<clus scale="   96.963">  7  8 -1 -1</clus>
<clus scale="  100.729">  2  5  1 -1</clus>
</clustering>
</event>
<event>
 9    1  0.1266593E-005  0.2210137E+03  0.7546771E-02  0.1133167E+00
          2   -1    0    0  502    0  0.00000000000E+00  0.00000000000E+00  0.18443253572E+04  0.18443253572E+04  0.00000000000E+00 0. -1.
         -2   -1    0    0    0  501 -0.00000000000E+00 -0.00000000000E+00 -0.32458563959E+02  0.32458563959E+02  0.00000000000E+00 0.  1.
         23    2    1    2    0    0 -0.95768043147E+02 -0.17913288563E+03  0.80536390939E+03  0.83544801985E+03  0.90012546468E+02 0.  0.
         23    2    1    2    0    0  0.59871952874E+02  0.19340696626E+03  0.92531335936E+03  0.95142473648E+03  0.89517097965E+02 0.  0.
        -11    1    3    3    0    0 -0.79042164343E+02 -0.53535451563E+02  0.34344341718E+03  0.35646470950E+03  0.00000000000E+00 0. -1.
         11    1    3    3    0    0 -0.16725878804E+02 -0.12559743407E+03  0.46192049221E+03  0.47898331035E+03  0.00000000000E+00 0.  1.
        -13    1    4    4    0    0  0.82254623761E+02  0.16677634445E+03  0.80378215384E+03  0.82501268052E+03  0.00000000000E+00 0. -1.
         13    1    4    4    0    0 -0.22382670887E+02  0.26630621817E+02  0.12153120552E+03  0.12641205595E+03  0.00000000000E+00 0.  1.
         21    1    1    2  502  501  0.35896090272E+02 -0.14274080629E+02  0.81189524504E+02  0.89911164845E+02  0.00000000000E+00 0. -1.
<scales pt_clust_5="13000.00000" pt_clust_6="13000.00000" pt_clust_7="13000.00000" pt_clust_8="13000.00000" pt_clust_9="38.63002"></scales>
<clustering>
<clus scale="   38.630">  2  9  1 -1</clus>
<clus scale="   89.517">  7  8 -1 -1</clus>
<clus scale="   90.013">  5  6 -1 -1</clus>
<clus scale="  220.812">  1  7  2 -1</clus>
<clus scale="  220.812">  1  5  2 -1</clus>
</clustering>
</event>
<event>
 9    1  0.1266593E-005  0.1152055E+03  0.7546771E-02  0.1251636E+00
          1   -1    0    0  502    0  0.00000000000E+00  0.00000000000E+00  0.53861893661E+03  0.53861893661E+03  0.00000000000E+00 0. -1.
         -1   -1    0    0    0  501 -0.00000000000E+00 -0.00000000000E+00 -0.38030631699E+02  0.38030631699E+02  0.00000000000E+00 0.  1.
         23    2    1    2    0    0  0.44294276581E+02  0.21094276401E+02  0.10746102437E+03  0.14884555708E+03  0.90554826865E+02 0.  0.
         23    2    1    2    0    0 -0.79484664923E+02 -0.21166992341E+02  0.35818016175E+03  0.37820895270E+03  0.89348363755E+02 0.  0.
        -11    1    4    4    0    0 -0.58080786471E+02 -0.55811748664E+02  0.24724108173E+03  0.26003169334E+03  0.00000000000E+00 0. -1.
         11    1    4    4    0    0 -0.21403878452E+02  0.34644756322E+02  0.11093908003E+03  0.11817725936E+03  0.00000000000E+00 0.  1.
        -13    1    3    3    0    0 -0.25935824271E+02 -0.38341040469E-01  0.12307373769E+02  0.28707836905E+02  0.00000000000E+00 0. -1.
         13    1    3    3    0    0  0.70230100852E+02  0.21132617442E+02  0.95153650606E+02  0.12013772018E+03  0.00000000000E+00 0.  1.
         21    1    1    2  502  501  0.35190388342E+02  0.72715940299E-01  0.34947118788E+02  0.49595058532E+02  0.00000000000E+00 0.  1.
<scales pt_clust_5="13000.00000" pt_clust_6="13000.00000" pt_clust_7="13000.00000" pt_clust_8="13000.00000" pt_clust_9="35.19046"></scales>
<clustering>
<clus scale="   35.190">  2  9  1 -1</clus>
<clus scale="   89.348">  5  6 -1 -1</clus>
<clus scale="   90.555">  7  8 -1 -1</clus>
<clus scale="  114.260">  1  5  2 -1</clus>
<clus scale="  114.260">  1  5  2 -1</clus>
</clustering>
</event>
<event>
 9    1  0.1266593E-005  0.1175955E+03  0.7546771E-02  0.1247358E+00
         -3   -1    0    0    0  501 -0.00000000000E+00  0.00000000000E+00  0.67600389476E+03  0.67600389476E+03  0.00000000000E+00 0.  1.
          3   -1    0    0  502    0  0.00000000000E+00 -0.00000000000E+00 -0.33928133616E+02  0.33928133616E+02  0.00000000000E+00 0. -1.
         23    2    1    2    0    0  0.12236499530E+02  0.67585297793E+02  0.39708269182E+03  0.41357431586E+03  0.93013688190E+02 0.  0.
         23    2    1    2    0    0  0.81223928875E+01 -0.73391157884E+02  0.11589896336E+03  0.16553920961E+03  0.92295313460E+02 0.  0.
        -11    1    3    3    0    0 -0.31726055489E+02  0.27103573295E+02  0.73494395359E+02  0.84513741080E+02  0.00000000000E+00 0. -1.
         11    1    3    3    0    0  0.43962555019E+02  0.40481724498E+02  0.32358829647E+03  0.32906057478E+03  0.00000000000E+00 0.  1.
        -13    1    4    4    0    0 -0.23512123875E+02  0.22059685750E+01  0.25321784700E-01  0.23615395564E+02  0.00000000000E+00 0.  1.
         13    1    4    4    0    0  0.31634516762E+02 -0.75597126459E+02  0.11587364158E+03  0.14192381404E+03  0.00000000000E+00 0. -1.
         21    1    1    2  502  501 -0.20358892417E+02  0.58058600914E+01  0.12909410596E+03  0.13081850292E+03  0.00000000000E+00 0.  1.
<scales pt_clust_5="13000.00000" pt_clust_6="13000.00000" pt_clust_7="13000.00000" pt_clust_8="13000.00000" pt_clust_9="21.17056"></scales>
<clustering>
<clus scale="   21.171">  1  9  2 -1</clus>
<clus scale="   92.295">  7  8 -1 -1</clus>
<clus scale="   93.014">  5  6 -1 -1</clus>
<clus scale="  117.028">  2  7  1 -1</clus>
<clus scale="  117.028">  2  5  1 -1</clus>
</clustering>
</event>
<event>
 9    1  0.1266593E-005  0.2710484E+03  0.7546771E-02  0.1100785E+00
          1   -1    0    0  502    0  0.00000000000E+00  0.00000000000E+00  0.24999405298E+03  0.24999405298E+03  0.00000000000E+00 0. -1.
         -1   -1    0    0    0  501 -0.00000000000E+00 -0.00000000000E+00 -0.67410414089E+03  0.67410414089E+03  0.00000000000E+00 0.  1.
         23    2    1    2    0    0  0.78361121529E+02  0.28575385930E+03 -0.12298777065E+03  0.33390854667E+03  0.92591534915E+02 0.  0.
         23    2    1    2    0    0  0.10432384101E+02 -0.23625895522E+03  0.17892227639E+02  0.25536982695E+03  0.94691542106E+02 0.  0.
        -11    1    4    4    0    0  0.46318183017E+02 -0.12296270977E+03  0.33247604406E+02  0.13553820595E+03  0.00000000000E+00 0.  1.
         11    1    4    4    0    0 -0.35885798916E+02 -0.11329624545E+03 -0.15355376767E+02  0.11983162101E+03  0.00000000000E+00 0. -1.
        -13    1    3    3    0    0  0.64115870241E+02  0.15942757415E+03 -0.11451695561E+03  0.20649970784E+03  0.00000000000E+00 0.  1.
         13    1    3    3    0    0  0.14245251288E+02  0.12632628516E+03 -0.84708150407E+01  0.12740883884E+03  0.00000000000E+00 0. -1.
         21    1    1    2  502  501 -0.88793505630E+02 -0.49494904081E+02 -0.31901454490E+03  0.33481982025E+03  0.00000000000E+00 0.  1.
<scales pt_clust_5="13000.00000" pt_clust_6="13000.00000" pt_clust_7="13000.00000" pt_clust_8="13000.00000" pt_clust_9="101.65644"></scales>
<clustering>
<clus scale="   92.592">  7  8 -1 -1</clus>
<clus scale="   94.692">  5  6 -1 -1</clus>
<clus scale="  101.656">  2  9  1 -1</clus>
<clus scale="  270.322">  2  7  1 -1</clus>
<clus scale="  271.048">  1  5  2 -1</clus>
</clustering>
</event>
<event>
 9    1  0.1266593E-005  0.9922186E+02  0.7546771E-02  0.1283227E+00
         -2   -1    0    0    0  501 -0.00000000000E+00  0.00000000000E+00  0.30181040844E+02  0.30181040844E+02  0.00000000000E+00 0.  1.
          2   -1    0    0  502    0  0.00000000000E+00 -0.00000000000E+00 -0.48077665857E+03  0.48077665857E+03  0.00000000000E+00 0. -1.
         23    2    1    2    0    0 -0.17521301923E+02 -0.20643552656E+02 -0.16716808152E+03  0.19211700956E+03  0.90722795351E+02 0.  0.
         23    2    1    2    0    0  0.45535759229E+02 -0.15437681291E+01 -0.24644137468E+03  0.26741051227E+03  0.93269192826E+02 0.  0.
        -11    1    3    3    0    0 -0.42404573670E+02 -0.22250908194E+02 -0.39615857873E+02  0.62150357831E+02  0.00000000000E+00 0.  1.
         11    1    3    3    0    0  0.24883271746E+02  0.16073555378E+01 -0.12755222364E+03  0.12996665173E+03  0.00000000000E+00 0. -1.
        -11    1    4    4    0    0  0.29897674017E+02 -0.31605671092E+02 -0.43013522379E+02  0.61179673620E+02  0.00000000000E+00 0.  1.
         11    1    4    4    0    0  0.15638085211E+02  0.30061902963E+02 -0.20342785230E+03  0.20623083865E+03  0.00000000000E+00 0. -1.
         21    1    1    2  502  501 -0.28014457306E+02  0.22187320785E+02 -0.36986161531E+02  0.51430177586E+02  0.00000000000E+00 0.  1.
<scales pt_clust_5="13000.00000" pt_clust_6="13000.00000" pt_clust_7="13000.00000" pt_clust_8="13000.00000" pt_clust_9="35.73635"></scales>
<clustering>
<clus scale="   35.736">  1  9  2 -1</clus>
<clus scale="   90.723">  5  6 -1 -1</clus>
<clus scale="   93.269">  7  8 -1 -1</clus>
<clus scale="   96.832">  1  5  2 -1</clus>
<clus scale="   99.222">  2  5  1 -1</clus>
</clustering>
</event>
<event>
 9    1  0.1266593E-005  0.1019249E+03  0.7546771E-02  0.1276924E+00
         -1   -1    0    0    0  501 -0.00000000000E+00  0.00000000000E+00  0.48799913483E+03  0.48799913483E+03  0.00000000000E+00 0.  1.
          1   -1    0    0  502    0  0.00000000000E+00 -0.00000000000E+00 -0.72833594093E+02  0.72833594093E+02  0.00000000000E+00 0. -1.
         23    2    1    2    0    0  0.74376320531E+01  0.38810162383E+02  0.41922431598E+03  0.43147894350E+03  0.94146186851E+02 0.  0.
         23    2    1    2    0    0 -0.25414032360E+02 -0.29682963401E+02 -0.21155056392E+02  0.10292010316E+03  0.92833506158E+02 0.  0.
        -11    1    4    4    0    0 -0.25925124092E+02  0.23102795754E+02 -0.33992182179E+02  0.48593411900E+02  0.00000000000E+00 0. -1.
         11    1    4    4    0    0  0.51109173152E+00 -0.52785759155E+02  0.12837125787E+02  0.54326691255E+02  0.00000000000E+00 0.  1.
        -11    1    3    3    0    0  0.21450659679E+02  0.62173347936E+02  0.36407087609E+03  0.36996386149E+03  0.00000000000E+00 0.  1.
         11    1    3    3    0    0 -0.14013027625E+02 -0.23363185552E+02  0.55153439892E+02  0.61515082007E+02  0.00000000000E+00 0. -1.
         21    1    1    2  502  501  0.17976400307E+02 -0.91271989827E+01  0.17096281157E+02  0.26433682276E+02  0.00000000000E+00 0.  1.
<scales pt_clust_5="13000.00000" pt_clust_6="13000.00000" pt_clust_7="13000.00000" pt_clust_8="13000.00000" pt_clust_9="20.16077"></scales>
<clustering>
<clus scale="   20.161">  2  9  1 -1</clus>
<clus scale="   92.834">  5  6 -1 -1</clus>
<clus scale="   94.146">  7  8 -1 -1</clus>
<clus scale="  100.714">  2  5  1 -1</clus>
<clus scale="   20.161">  2  5  1 -1</clus>
</clustering>
</event>
<event>
 9    1  0.1266593E-005  0.1033980E+03  0.7546771E-02  0.1273503E+00
          2   -1    0    0  502    0  0.00000000000E+00  0.00000000000E+00  0.30005456899E+02  0.30005456899E+02  0.00000000000E+00 0. -1.
         -2   -1    0    0    0  501 -0.00000000000E+00 -0.00000000000E+00 -0.49607876993E+03  0.49607876993E+03  0.00000000000E+00 0.  1.
         23    2    1    2    0    0 -0.63099161499E+01 -0.39155437042E+02 -0.21383663024E+03  0.23604680584E+03  0.91755255005E+02 0.  0.
         23    2    1    2    0    0  0.37944400500E+02  0.48148633423E+02 -0.20175322630E+03  0.22978630017E+03  0.91319828040E+02 0.  0.
        -11    1    3    3    0    0  0.35469094664E+02 -0.40019357108E+01 -0.38934492644E+02  0.52820137099E+02  0.00000000000E+00 0. -1.
         11    1    3    3    0    0 -0.41779010814E+02 -0.35153501332E+02 -0.17490213760E+03  0.18322666874E+03  0.00000000000E+00 0.  1.
        -11    1    4    4    0    0 -0.19961331079E+02  0.20506009571E+02 -0.13176203291E+03  0.13483391445E+03  0.00000000000E+00 0.  1.
         11    1    4    4    0    0  0.57905731579E+02  0.27642623852E+02 -0.69991193388E+02  0.94952385726E+02  0.00000000000E+00 0. -1.
         21    1    1    2  502  501 -0.31634484350E+02 -0.89931963805E+01 -0.50483456490E+02  0.60251120823E+02  0.00000000000E+00 0.  1.
<scales pt_clust_5="13000.00000" pt_clust_6="13000.00000" pt_clust_7="13000.00000" pt_clust_8="13000.00000" pt_clust_9="32.88796"></scales>
<clustering>
<clus scale="   32.888">  1  9  2 -1</clus>
<clus scale="   91.320">  7  8 -1 -1</clus>
<clus scale="   91.755">  5  6 -1 -1</clus>
<clus scale="  103.012">  1  7  2 -1</clus>
<clus scale="   32.888">  1  5  2 -1</clus>
</clustering>
</event>
<event>
 9    1  0.1266593E-005  0.9543671E+02  0.7546771E-02  0.1306632E+00
         -2   -1    0    0    0  501 -0.00000000000E+00  0.00000000000E+00  0.27795028226E+02  0.27795028226E+02  0.00000000000E+00 0.  1.
          2   -1    0    0  502    0  0.00000000000E+00 -0.00000000000E+00 -0.48820580842E+03  0.48820580842E+03  0.00000000000E+00 0. -1.
         23    2    1    2    0    0  0.65905007607E+01 -0.19197620797E+02 -0.10216214558E+03  0.12358537525E+03  0.66515093334E+02 0.  0.
         23    2    1    2    0    0 -0.27426612263E+02  0.82822166641E+01 -0.35580420610E+03  0.36876668086E+03  0.92581951085E+02 0.  0.
        -11    1    3    3    0    0 -0.24050220811E+02  0.99068884297E+01 -0.27924459711E+02  0.38161957623E+02  0.00000000000E+00 0.  1.
         11    1    3    3    0    0  0.30640721572E+02 -0.29104509227E+02 -0.74237685867E+02  0.85423417625E+02  0.00000000000E+00 0. -1.
        -13    1    4    4    0    0 -0.17655920724E+02  0.49998917382E+02 -0.22321739065E+03  0.22942891440E+03  0.00000000000E+00 0.  1.
         13    1    4    4    0    0 -0.97706915387E+01 -0.41716700718E+02 -0.13258681545E+03  0.13933776646E+03  0.00000000000E+00 0. -1.
         21    1    1    2  502  501  0.20836111503E+02  0.10915404133E+02 -0.24444285188E+01  0.23648780534E+02  0.00000000000E+00 0.  1.
<scales pt_clust_5="13000.00000" pt_clust_6="13000.00000" pt_clust_7="13000.00000" pt_clust_8="13000.00000" pt_clust_9="23.52211"></scales>
<clustering>
<clus scale="   23.522">  1  9  2 -1</clus>
<clus scale="   66.515">  5  6 -1 -1</clus>
<clus scale="   70.434">  1  5  2 -1</clus>
<clus scale="   92.582">  7  8 -1 -1</clus>
<clus scale="   95.437">  2  5  1 -1</clus>
</clustering>
</event>
<event>
 9    1  0.1266593E-005  0.1005738E+03  0.7546771E-02  0.1280196E+00
          1   -1    0    0  502    0  0.00000000000E+00  0.00000000000E+00  0.36911896460E+03  0.36911896460E+03  0.00000000000E+00 0. -1.
         -1   -1    0    0    0  501 -0.00000000000E+00 -0.00000000000E+00 -0.15358497935E+03  0.15358497935E+03  0.00000000000E+00 0.  1.
         23    2    1    2    0    0  0.42453321040E+02 -0.28024875810E+02 -0.60528338266E+02  0.12043459873E+03  0.90846764977E+02 0.  0.
         23    2    1    2    0    0 -0.33426184622E+02 -0.20597044311E+02  0.32033490857E+03  0.33589433414E+03  0.93107475544E+02 0.  0.
        -13    1    3    3    0    0  0.26305513311E+02  0.19331107310E+02 -0.62338198427E+02  0.70368478195E+02  0.00000000000E+00 0.  1.
         13    1    3    3    0    0  0.16147807729E+02 -0.47355983120E+02  0.18098601611E+01  0.50066120536E+02  0.00000000000E+00 0. -1.
        -13    1    4    4    0    0 -0.12810379813E+02 -0.54564150162E+02  0.13187256606E+03  0.14328895977E+03  0.00000000000E+00 0.  1.
         13    1    4    4    0    0 -0.20615804809E+02  0.33967105852E+02  0.18846234252E+03  0.19260537437E+03  0.00000000000E+00 0. -1.
         21    1    1    2  502  501 -0.90271364183E+01  0.48621920120E+02 -0.44272585062E+02  0.66375011082E+02  0.00000000000E+00 0. -1.
<scales pt_clust_5="13000.00000" pt_clust_6="13000.00000" pt_clust_7="13000.00000" pt_clust_8="13000.00000" pt_clust_9="49.45281"></scales>
<clustering>
<clus scale="   49.453">  2  9  1 -1</clus>
<clus scale="   90.847">  5  6 -1 -1</clus>
<clus scale="   93.107">  7  8 -1 -1</clus>
<clus scale="   98.485">  2  5  1 -1</clus>
<clus scale="  100.574">  1  5  2 -1</clus>
</clustering>
</event>
<event>
 9    1  0.1266593E-005  0.1201439E+03  0.7546771E-02  0.1243354E+00
         -2   -1    0    0    0  501 -0.00000000000E+00  0.00000000000E+00  0.17136359841E+03  0.17136359841E+03  0.00000000000E+00 0.  1.
          2   -1    0    0  502    0  0.00000000000E+00 -0.00000000000E+00 -0.51219356327E+03  0.51219356327E+03  0.00000000000E+00 0. -1.
         23    2    1    2    0    0  0.40980006467E+02  0.91154950930E+02  0.48333575564E+02  0.14312029985E+03  0.90325520723E+02 0.  0.
         23    2    1    2    0    0 -0.22505846584E+02 -0.72219135777E+02 -0.45456418474E+03  0.46988826895E+03  0.91892712130E+02 0.  0.
        -11    1    4    4    0    0 -0.51053385445E+02 -0.70008133897E+02 -0.38562289057E+03  0.39523739791E+03  0.00000000000E+00 0. -1.
         11    1    4    4    0    0  0.28547538862E+02 -0.22110018798E+01 -0.68941294175E+02  0.74650871039E+02  0.00000000000E+00 0.  1.
        -13    1    3    3    0    0  0.47868895052E+01  0.41053780441E+02 -0.24144426402E+02  0.47867322110E+02  0.00000000000E+00 0. -1.
         13    1    3    3    0    0  0.36193116962E+02  0.50101170489E+02  0.72478001966E+02  0.95252977743E+02  0.00000000000E+00 0.  1.
         21    1    1    2  502  501 -0.18474159883E+02 -0.18935815153E+02  0.65400644321E+02  0.70548592875E+02  0.00000000000E+00 0. -1.
<scales pt_clust_5="13000.00000" pt_clust_6="13000.00000" pt_clust_7="13000.00000" pt_clust_8="13000.00000" pt_clust_9="26.45486"></scales>
<clustering>
<clus scale="   26.455">  1  9  2 -1</clus>
<clus scale="   90.326">  7  8 -1 -1</clus>
<clus scale="   91.893">  5  6 -1 -1</clus>
<clus scale="  118.949">  1  7  2 -1</clus>
<clus scale="  120.144">  2  5  1 -1</clus>
</clustering>
</event>
<event>
 9    1  0.1266593E-005  0.9979887E+02  0.7546771E-02  0.1285257E+00
          1   -1    0    0  502    0  0.00000000000E+00  0.00000000000E+00  0.12124965491E+03  0.12124965491E+03  0.00000000000E+00 0. -1.
         -1   -1    0    0    0  501 -0.00000000000E+00 -0.00000000000E+00 -0.10767935482E+03  0.10767935482E+03  0.00000000000E+00 0.  1.
         23    2    1    2    0    0  0.98049858343E+01 -0.56845040354E+01 -0.10904361125E+02  0.10061206309E+03  0.99375202209E+02 0.  0.
         23    2    1    2    0    0 -0.17536589494E+01 -0.20715180259E+02  0.32788868793E+01  0.93517118401E+02  0.91118089982E+02 0.  0.
        -11    1    4    4    0    0 -0.45551214715E+02 -0.19415652826E+02 -0.68643659777E+00  0.49521227083E+02  0.00000000000E+00 0.  1.
         11    1    4    4    0    0  0.43797555765E+02 -0.12995274330E+01  0.39653234771E+01  0.43995891318E+02  0.00000000000E+00 0. -1.
        -13    1    3    3    0    0  0.13367906637E+02 -0.42014469282E+02 -0.35491222972E+02  0.56599853930E+02  0.00000000000E+00 0.  1.
         13    1    3    3    0    0 -0.35629208025E+01  0.36329965246E+02  0.24586861848E+02  0.44012209158E+02  0.00000000000E+00 0. -1.
         21    1    1    2  502  501 -0.80513268849E+01  0.26399684295E+02  0.21195774335E+02  0.34799828234E+02  0.00000000000E+00 0.  1.
<scales pt_clust_5="13000.00000" pt_clust_6="13000.00000" pt_clust_7="13000.00000" pt_clust_8="13000.00000" pt_clust_9="27.60013"></scales>
<clustering>
<clus scale="   27.600">  1  9  2 -1</clus>
<clus scale="   91.118">  5  6 -1 -1</clus>
<clus scale="   91.580">  1  5  2 -1</clus>
<clus scale="   99.375">  7  8 -1 -1</clus>
<clus scale="   27.600">  1  5  2 -1</clus>
</clustering>
</event>
<event>
 9    1  0.1266593E-005  0.1379525E+03  0.7546771E-02  0.1231843E+00
          1   -1    0    0  502    0  0.00000000000E+00  0.00000000000E+00  0.78872249412E+03  0.78872249412E+03  0.00000000000E+00 0. -1.
         -1   -1    0    0    0  501 -0.00000000000E+00 -0.00000000000E+00 -0.62898185064E+02  0.62898185064E+02  0.00000000000E+00 0.  1.
         23    2    1    2    0    0  0.51778521872E+02 -0.93529398572E+02  0.50827825493E+03  0.52572606367E+03  0.81316332091E+02 0.  0.
         23    2    1    2    0    0  0.34700203581E+02  0.20734639325E+02  0.18207378993E+03  0.20742129169E+03  0.90767273123E+02 0.  0.
        -11    1    3    3    0    0 -0.24634808434E+01 -0.61337341320E+02  0.35000038676E+03  0.35534294549E+03  0.00000000000E+00 0.  1.
         11    1    3    3    0    0  0.54242002715E+02 -0.32192057252E+02  0.15827786817E+03  0.17038311818E+03  0.00000000000E+00 0. -1.
        -13    1    4    4    0    0  0.60947304915E+02 -0.25472915836E+01  0.13949574726E+03  0.15225020911E+03  0.00000000000E+00 0. -1.
         13    1    4    4    0    0 -0.26247101334E+02  0.23281930909E+02  0.42578042672E+02  0.55171082580E+02  0.00000000000E+00 0.  1.
         21    1    1    2  502  501 -0.86478725452E+02  0.72794759246E+02  0.35472264192E+02  0.11847332382E+03  0.00000000000E+00 0.  1.
<scales pt_clust_5="13000.00000" pt_clust_6="13000.00000" pt_clust_7="13000.00000" pt_clust_8="13000.00000" pt_clust_9="111.43848"></scales>
<clustering>
<clus scale="   81.316">  5  6 -1 -1</clus>
<clus scale="   90.767">  7  8 -1 -1</clus>
<clus scale="   99.362">  1  7  2 -1</clus>
<clus scale="  111.438">  2  9  1 -1</clus>
<clus scale="   99.362">  1  5  2 -1</clus>
</clustering>
</event>
<event>
 9    1  0.1266593E-005  0.9828274E+02  0.7546771E-02  0.1284443E+00
          2   -1    0    0  502    0  0.00000000000E+00  0.00000000000E+00  0.41706468564E+03  0.41706468564E+03  0.00000000000E+00 0. -1.
         -2   -1    0    0    0  501 -0.00000000000E+00 -0.00000000000E+00 -0.11099922337E+03  0.11099922337E+03  0.00000000000E+00 0.  1.
         23    2    1    2    0    0 -0.24825450079E+02  0.22377929594E+02 -0.66486088451E+02  0.11746660284E+03  0.90889648039E+02 0.  0.
         23    2    1    2    0    0 -0.15495434596E+01 -0.35813141497E+02  0.36758614289E+03  0.38058396784E+03  0.91867306157E+02 0.  0.
        -11    1    3    3    0    0 -0.51715781125E+02  0.13375249132E+02 -0.70897011045E+02  0.88768268440E+02  0.00000000000E+00 0. -1.
         11    1    3    3    0    0  0.26890331045E+02  0.90026804617E+01  0.44109225937E+01  0.28698334400E+02  0.00000000000E+00 0.  1.
        -13    1    4    4    0    0 -0.45726550868E+02 -0.23581787122E+02  0.22514915212E+03  0.23095271992E+03  0.00000000000E+00 0. -1.
         13    1    4    4    0    0  0.44177007408E+02 -0.12231354375E+02  0.14243699077E+03  0.14963124792E+03  0.00000000000E+00 0.  1.
         21    1    1    2  502  501  0.26374993539E+02  0.13435211904E+02  0.49654078236E+01  0.30013338334E+02  0.00000000000E+00 0.  1.
<scales pt_clust_5="13000.00000" pt_clust_6="13000.00000" pt_clust_7="13000.00000" pt_clust_8="13000.00000" pt_clust_9="29.59975"></scales>
<clustering>
<clus scale="   29.600">  2  9  1 -1</clus>
<clus scale="   90.890">  5  6 -1 -1</clus>
<clus scale="   91.867">  7  8 -1 -1</clus>
<clus scale="   97.370">  2  5  1 -1</clus>
<clus scale="   98.283">  1  5  2 -1</clus>
</clustering>
</event>
<event>
 9    1  0.1266593E-005  0.9473506E+02  0.7546771E-02  0.1293271E+00
         -1   -1    0    0    0  501 -0.00000000000E+00  0.00000000000E+00  0.50705873731E+02  0.50705873731E+02  0.00000000000E+00 0.  1.
          1   -1    0    0  502    0  0.00000000000E+00 -0.00000000000E+00 -0.29797652431E+03  0.29797652431E+03  0.00000000000E+00 0. -1.
         23    2    1    2    0    0  0.54546661773E+01  0.19400514493E+02 -0.81523937601E+02  0.12182674467E+03  0.88257973966E+02 0.  0.
         23    2    1    2    0    0  0.40323622618E+02 -0.15103589029E+02 -0.14475681905E+03  0.17631170279E+03  0.90978936775E+02 0.  0.
        -11    1    3    3    0    0  0.38688435138E+02  0.35181084587E+02 -0.36943350162E+02  0.64025892007E+02  0.00000000000E+00 0. -1.
         11    1    3    3    0    0 -0.33233768960E+02 -0.15780570095E+02 -0.44580587439E+02  0.57800852660E+02  0.00000000000E+00 0.  1.
        -13    1    4    4    0    0  0.10499646633E+02 -0.25103952800E+02  0.97004912285E+00  0.27228514849E+02  0.00000000000E+00 0.  1.
         13    1    4    4    0    0  0.29823975985E+02  0.10000363771E+02 -0.14572686817E+03  0.14908318794E+03  0.00000000000E+00 0. -1.
         21    1    1    2  502  501 -0.45778288795E+02 -0.42969254639E+01 -0.20989893929E+02  0.50543950584E+02  0.00000000000E+00 0.  1.
<scales pt_clust_5="13000.00000" pt_clust_6="13000.00000" pt_clust_7="13000.00000" pt_clust_8="13000.00000" pt_clust_9="45.97951"></scales>
<clustering>
<clus scale="   45.980">  1  9  2 -1</clus>
<clus scale="   88.258">  5  6 -1 -1</clus>
<clus scale="   90.979">  7  8 -1 -1</clus>
<clus scale="   92.125">  1  5  2 -1</clus>
<clus scale="   94.735">  2  5  1 -1</clus>
</clustering>
</event>
<event>
 9    1  0.1266593E-005  0.1424366E+03  0.7546771E-02  0.1210590E+00
          1   -1    0    0  502    0  0.00000000000E+00  0.00000000000E+00  0.45425042367E+03  0.45425042367E+03  0.00000000000E+00 0. -1.
         -1   -1    0    0    0  501 -0.00000000000E+00 -0.00000000000E+00 -0.62163912631E+02  0.62163912631E+02  0.00000000000E+00 0.  1.
         23    2    1    2    0    0 -0.50504113938E+02  0.11125784124E+03  0.12563506607E+03  0.19827764663E+03  0.92740943316E+02 0.  0.
         23    2    1    2    0    0  0.21768466054E+02 -0.99746797179E+02  0.24527791442E+03  0.28063255668E+03  0.90388533063E+02 0.  0.
        -11    1    3    3    0    0  0.17561543855E+02  0.70575378520E+02  0.46942916331E+02  0.86561707870E+02  0.00000000000E+00 0.  1.
         11    1    3    3    0    0 -0.68065657793E+02  0.40682462719E+02  0.78692149735E+02  0.11171593876E+03  0.00000000000E+00 0. -1.
        -11    1    4    4    0    0  0.36417403217E+02 -0.76767024697E+02  0.23757670396E+03  0.25231348280E+03  0.00000000000E+00 0. -1.
         11    1    4    4    0    0 -0.14648937163E+02 -0.22979772481E+02  0.77012104585E+01  0.28319073887E+02  0.00000000000E+00 0.  1.
         21    1    1    2  502  501  0.28735647883E+02 -0.11511044060E+02  0.21173530558E+02  0.37504132984E+02  0.00000000000E+00 0.  1.
<scales pt_clust_5="13000.00000" pt_clust_6="13000.00000" pt_clust_7="13000.00000" pt_clust_8="13000.00000" pt_clust_9="30.95548"></scales>
<clustering>
<clus scale="   30.955">  2  9  1 -1</clus>
<clus scale="   90.389">  7  8 -1 -1</clus>
<clus scale="   92.741">  5  6 -1 -1</clus>
<clus scale="  140.916">  1  7  2 -1</clus>
<clus scale="  140.916">  1  5  2 -1</clus>
</clustering>
</event>
<event>
 9    1  0.1266593E-005  0.2660924E+03  0.7546771E-02  0.1103951E+00
         -1   -1    0    0    0  501 -0.00000000000E+00  0.00000000000E+00  0.41112058353E+03  0.41112058353E+03  0.00000000000E+00 0.  1.
          1   -1    0    0  502    0  0.00000000000E+00 -0.00000000000E+00 -0.20428460382E+03  0.20428460382E+03  0.00000000000E+00 0. -1.
         23    2    1    2    0    0 -0.20474479454E+03 -0.17921332150E+03  0.10013704511E+03  0.30396879864E+03  0.91278459966E+02 0.  0.
         23    2    1    2    0    0  0.17714704322E+03  0.15014789626E+03  0.67965904258E+02  0.25569876711E+03  0.82686333132E+02 0.  0.
        -11    1    3    3    0    0 -0.83138251867E+02 -0.10992277973E+03  0.11500803488E+02  0.13830131925E+03  0.00000000000E+00 0. -1.
         11    1    3    3    0    0 -0.12160654267E+03 -0.69290541771E+02  0.88636241620E+02  0.16566747939E+03  0.00000000000E+00 0.  1.
        -13    1    4    4    0    0 -0.92406968967E+00  0.21373289562E+02  0.22960998787E+02  0.31382779940E+02  0.00000000000E+00 0. -1.
         13    1    4    4    0    0  0.17807111291E+03  0.12877460670E+03  0.45004905471E+02  0.22431598717E+03  0.00000000000E+00 0.  1.
         21    1    1    2  502  501  0.27597751314E+02  0.29065425233E+02  0.38733030337E+02  0.55737621592E+02  0.00000000000E+00 0. -1.
<scales pt_clust_5="13000.00000" pt_clust_6="13000.00000" pt_clust_7="13000.00000" pt_clust_8="13000.00000" pt_clust_9="40.08035"></scales>
<clustering>
<clus scale="   40.080">  1  9  2 -1</clus>
<clus scale="   82.686">  7  8 -1 -1</clus>
<clus scale="   91.278">  5  6 -1 -1</clus>
<clus scale="  263.269">  2  7  1 -1</clus>
<clus scale="  263.269">  2  5  1 -1</clus>
</clustering>
</event>
<event>
 9    1  0.1266593E-005  0.1387172E+03  0.7546771E-02  0.1220590E+00
         -1   -1    0    0    0  501 -0.00000000000E+00  0.00000000000E+00  0.93151047412E+02  0.93151047412E+02  0.00000000000E+00 0.  1.
          1   -1    0    0  502    0  0.00000000000E+00 -0.00000000000E+00 -0.38306675471E+03  0.38306675471E+03  0.00000000000E+00 0. -1.
         23    2    1    2    0    0  0.34718143165E+02  0.50821045374E+02 -0.80772378032E+02  0.13742438166E+03  0.92591336013E+02 0.  0.
         23    2    1    2    0    0 -0.51658920895E+02 -0.81181588609E+02 -0.24673537364E+03  0.28758878849E+03  0.11211544150E+03 0.  0.
        -11    1    4    4    0    0 -0.51597190372E+02  0.52917646196E+01 -0.47231638510E+02  0.70150555974E+02  0.00000000000E+00 0.  1.
         11    1    4    4    0    0 -0.61730522885E-01 -0.86473353228E+02 -0.19950373513E+03  0.21743823252E+03  0.00000000000E+00 0. -1.
        -11    1    3    3    0    0 -0.58517513054E+01  0.39459480400E+02 -0.86163890649E+02  0.94950037591E+02  0.00000000000E+00 0. -1.
         11    1    3    3    0    0  0.40569894470E+02  0.11361564973E+02  0.53915126172E+01  0.42474344071E+02  0.00000000000E+00 0.  1.
         21    1    1    2  502  501  0.16940777730E+02  0.30360543235E+02  0.37592044370E+02  0.51204631973E+02  0.00000000000E+00 0. -1.
<scales pt_clust_5="13000.00000" pt_clust_6="13000.00000" pt_clust_7="13000.00000" pt_clust_8="13000.00000" pt_clust_9="34.76712"></scales>
<clustering>
<clus scale="   34.767">  1  9  2 -1</clus>
<clus scale="   92.591">  7  8 -1 -1</clus>
<clus scale="  112.115">  5  6 -1 -1</clus>
<clus scale="  123.474">  1  7  2 -1</clus>
<clus scale="  138.717">  2  5  1 -1</clus>
</clustering>
</event>
<event>
 9    1  0.1266593E-005  0.9979364E+02  0.7546771E-02  0.1283915E+00
         -1   -1    0    0    0  501 -0.00000000000E+00  0.00000000000E+00  0.46523373575E+02  0.46523373575E+02  0.00000000000E+00 0.  1.
          1   -1    0    0  502    0  0.00000000000E+00 -0.00000000000E+00 -0.46726340258E+03  0.46726340258E+03  0.00000000000E+00 0. -1.
         23    2    1    2    0    0  0.11485704430E+02  0.53220891110E+02 -0.23323188122E+03  0.25682302638E+03  0.92717699525E+02 0.  0.
         23    2    1    2    0    0 -0.12696640625E+02 -0.20057449842E+02 -0.20182799551E+03  0.22082044828E+03  0.86392271824E+02 0.  0.
        -11    1    3    3    0    0 -0.32861463884E+02  0.87558464019E+00 -0.12007167570E+03  0.12449036011E+03  0.00000000000E+00 0.  1.
         11    1    3    3    0    0  0.44347168314E+02  0.52345306470E+02 -0.11316020553E+03  0.13233266627E+03  0.00000000000E+00 0. -1.
        -11    1    4    4    0    0 -0.41866922783E+01 -0.44527644118E+02 -0.51209816607E+02  0.67990328723E+02  0.00000000000E+00 0.  1.
         11    1    4    4    0    0 -0.85099483469E+01  0.24470194275E+02 -0.15061817890E+03  0.15283011956E+03  0.00000000000E+00 0. -1.
         21    1    1    2  502  501  0.12109361952E+01 -0.33163441268E+02  0.14319847731E+02  0.36143301485E+02  0.00000000000E+00 0.  1.
<scales pt_clust_5="13000.00000" pt_clust_6="13000.00000" pt_clust_7="13000.00000" pt_clust_8="13000.00000" pt_clust_9="33.18554"></scales>
<clustering>
<clus scale="   33.186">  1  9  2 -1</clus>
<clus scale="   86.392">  7  8 -1 -1</clus>
<clus scale="   92.718">  5  6 -1 -1</clus>
<clus scale="   93.946">  2  7  1 -1</clus>
<clus scale="   93.946">  2  5  1 -1</clus>
</clustering>
</event>
<event>
 9    1  0.1266593E-005  0.1540804E+03  0.7546771E-02  0.1196725E+00
         -1   -1    0    0    0  501 -0.00000000000E+00  0.00000000000E+00  0.15833213753E+03  0.15833213753E+03  0.00000000000E+00 0.  1.
          1   -1    0    0  502    0  0.00000000000E+00 -0.00000000000E+00 -0.30735054212E+03  0.30735054212E+03  0.00000000000E+00 0. -1.
         23    2    1    2    0    0  0.26950691481E+02 -0.10368755019E+03  0.16468650308E+02  0.14120453476E+03  0.90498930144E+02 0.  0.
         23    2    1    2    0    0 -0.50142932087E+02  0.12050014017E+03 -0.21631740384E+03  0.26613204323E+03  0.83656726028E+02 0.  0.
        -11    1    4    4    0    0 -0.28086715991E+02  0.12812913195E+03 -0.17534617843E+03  0.21897995424E+03  0.00000000000E+00 0.  1.
         11    1    4    4    0    0 -0.22056216096E+02 -0.76289917841E+01 -0.40971225412E+02  0.47152088988E+02  0.00000000000E+00 0. -1.
        -11    1    3    3    0    0  0.19248970736E+02  0.11373435945E+02  0.12939009699E+02  0.25832070989E+02  0.00000000000E+00 0.  1.
         11    1    3    3    0    0  0.77017207442E+01 -0.11506098614E+03  0.35296406097E+01  0.11537246377E+03  0.00000000000E+00 0. -1.
         21    1    1    2  502  501  0.23192240607E+02 -0.16812589971E+02  0.50830348945E+02  0.58346101667E+02  0.00000000000E+00 0.  1.
<scales pt_clust_5="13000.00000" pt_clust_6="13000.00000" pt_clust_7="13000.00000" pt_clust_8="13000.00000" pt_clust_9="28.64513"></scales>
<clustering>
<clus scale="   28.645">  1  9  2 -1</clus>
<clus scale="   83.657">  5  6 -1 -1</clus>
<clus scale="   90.499">  7  8 -1 -1</clus>
<clus scale="  150.164">  2  5  1 -1</clus>
<clus scale="  150.164">  2  5  1 -1</clus>
</clustering>
</event>
<event>
 9    1  0.1266593E-005  0.1021925E+03  0.7546771E-02  0.1276154E+00
          1   -1    0    0  502    0  0.00000000000E+00  0.00000000000E+00  0.47848744138E+03  0.47848744138E+03  0.00000000000E+00 0. -1.
         -1   -1    0    0    0  501 -0.00000000000E+00 -0.00000000000E+00 -0.52147808950E+02  0.52147808950E+02  0.00000000000E+00 0.  1.
         23    2    1    2    0    0 -0.18948687345E+02 -0.62874177688E+02  0.14761088880E+03  0.18591651189E+03  0.91998695245E+02 0.  0.
         23    2    1    2    0    0  0.24511172376E+02  0.27737948621E+02  0.29093307960E+03  0.30710967505E+03  0.91126858493E+02 0.  0.
        -11    1    4    4    0    0 -0.34119000903E+02  0.16406752272E+02  0.13226666629E+03  0.13757819142E+03  0.00000000000E+00 0. -1.
         11    1    4    4    0    0  0.58630173279E+02  0.11331196348E+02  0.15866641331E+03  0.16953148363E+03  0.00000000000E+00 0.  1.
        -11    1    3    3    0    0  0.28632026964E+01  0.23634230398E+02  0.30196567350E+02  0.38452665134E+02  0.00000000000E+00 0. -1.
         11    1    3    3    0    0 -0.21811890042E+02 -0.86508408086E+02  0.11741432145E+03  0.14746384675E+03  0.00000000000E+00 0.  1.
         21    1    1    2  502  501 -0.55624850307E+01  0.35136229067E+02 -0.12204335974E+02  0.37609063394E+02  0.00000000000E+00 0. -1.
<scales pt_clust_5="13000.00000" pt_clust_6="13000.00000" pt_clust_7="13000.00000" pt_clust_8="13000.00000" pt_clust_9="35.57381"></scales>
<clustering>
<clus scale="   35.574">  2  9  1 -1</clus>
<clus scale="   91.127">  5  6 -1 -1</clus>
<clus scale="   91.999">  7  8 -1 -1</clus>
<clus scale="  101.408">  1  5  2 -1</clus>
<clus scale="  101.408">  1  5  2 -1</clus>
</clustering>
</event>
<event>
 9    1  0.1266593E-005  0.1609841E+03  0.7546771E-02  0.1187787E+00
          1   -1    0    0  502    0  0.00000000000E+00  0.00000000000E+00  0.92413914266E+02  0.92413914266E+02  0.00000000000E+00 0. -1.
         -1   -1    0    0    0  501 -0.00000000000E+00 -0.00000000000E+00 -0.46267110725E+03  0.46267110725E+03  0.00000000000E+00 0.  1.
         23    2    1    2    0    0  0.20193990376E+02  0.14826464312E+03 -0.26970021678E+03  0.32217037975E+03  0.93087834928E+02 0.  0.
         23    2    1    2    0    0  0.37848346074E+01 -0.12574701323E+03 -0.35140132213E+02  0.15969312046E+03  0.91871799386E+02 0.  0.
        -11    1    4    4    0    0  0.16070294695E+02 -0.98564083509E+02  0.15360774685E+02  0.10104002340E+03  0.00000000000E+00 0. -1.
         11    1    4    4    0    0 -0.12285460088E+02 -0.27182929717E+02 -0.50500906897E+02  0.58653097062E+02  0.00000000000E+00 0.  1.
        -11    1    3    3    0    0 -0.59087965386E+01  0.14911977983E+03 -0.21714403349E+03  0.26348273927E+03  0.00000000000E+00 0.  1.
         11    1    3    3    0    0  0.26102786914E+02 -0.85513670667E+00 -0.52556183289E+02  0.58687640482E+02  0.00000000000E+00 0. -1.
         21    1    1    2  502  501 -0.23978824983E+02 -0.22517629899E+02 -0.65416843991E+02  0.73221521300E+02  0.00000000000E+00 0.  1.
<scales pt_clust_5="13000.00000" pt_clust_6="13000.00000" pt_clust_7="13000.00000" pt_clust_8="13000.00000" pt_clust_9="32.89419"></scales>
<clustering>
<clus scale="   32.894">  2  9  1 -1</clus>
<clus scale="   91.872">  5  6 -1 -1</clus>
<clus scale="   93.088">  7  8 -1 -1</clus>
<clus scale="  160.284">  1  5  2 -1</clus>
<clus scale="  160.284">  1  5  2 -1</clus>
</clustering>
</event>
<event>
 9    1  0.1266593E-005  0.1045850E+03  0.7546771E-02  0.1271178E+00
         -2   -1    0    0    0  501 -0.00000000000E+00  0.00000000000E+00  0.48197266921E+02  0.48197266921E+02  0.00000000000E+00 0.  1.
          2   -1    0    0  502    0  0.00000000000E+00 -0.00000000000E+00 -0.30795311674E+03  0.30795311674E+03  0.00000000000E+00 0. -1.
         23    2    1    2    0    0 -0.33621096777E+02  0.11441374098E+02 -0.71144822433E+02  0.12145515521E+03  0.91806785039E+02 0.  0.
         23    2    1    2    0    0  0.56726052275E+02 -0.93898774097E+01 -0.17925420436E+03  0.20968327641E+03  0.92352540968E+02 0.  0.
        -11    1    4    4    0    0  0.76468096412E+02  0.10402042990E+02 -0.10475702510E+03  0.13011382162E+03  0.00000000000E+00 0. -1.
         11    1    4    4    0    0 -0.19742044137E+02 -0.19791920400E+02 -0.74497179256E+02  0.79569454799E+02  0.00000000000E+00 0.  1.
        -13    1    3    3    0    0 -0.10625316745E+02 -0.39508173056E+02 -0.41109838129E+02  0.57998378297E+02  0.00000000000E+00 0.  1.
         13    1    3    3    0    0 -0.22995780032E+02  0.50949547154E+02 -0.30034984304E+02  0.63456776916E+02  0.00000000000E+00 0. -1.
         21    1    1    2  502  501 -0.23104955498E+02 -0.20514966880E+01 -0.93568230260E+01  0.25011952030E+02  0.00000000000E+00 0. -1.
<scales pt_clust_5="13000.00000" pt_clust_6="13000.00000" pt_clust_7="13000.00000" pt_clust_8="13000.00000" pt_clust_9="23.19585"></scales>
<clustering>
<clus scale="   23.196">  1  9  2 -1</clus>
<clus scale="   91.807">  7  8 -1 -1</clus>
<clus scale="   92.353">  5  6 -1 -1</clus>
<clus scale="  104.103">  1  7  2 -1</clus>
<clus scale="  104.585">  2  5  1 -1</clus>
</clustering>
</event>
<event>
 9    1  0.1266593E-005  0.1487725E+03  0.7546771E-02  0.1204982E+00
          1   -1    0    0  502    0  0.00000000000E+00  0.00000000000E+00  0.61453327323E+03  0.61453327323E+03  0.00000000000E+00 0. -1.
         -1   -1    0    0    0  501 -0.00000000000E+00 -0.00000000000E+00 -0.11337663345E+03  0.11337663345E+03  0.00000000000E+00 0.  1.
         23    2    1    2    0    0  0.28929067306E+02 -0.83528569377E+02 -0.55452811952E+02  0.12968357632E+03  0.76999368675E+02 0.  0.
         23    2    1    2    0    0 -0.65905736262E+01  0.11972007949E+03  0.52144824704E+03  0.54304350677E+03  0.92798937539E+02 0.  0.
        -11    1    3    3    0    0  0.47477287391E+02 -0.33938623484E+02 -0.49272799161E+02  0.76378869585E+02  0.00000000000E+00 0.  1.
         11    1    3    3    0    0 -0.18548220084E+02 -0.49589945893E+02 -0.61800127909E+01  0.53304706734E+02  0.00000000000E+00 0. -1.
        -13    1    4    4    0    0  0.40886923386E+02  0.78784947865E+02  0.29295814580E+03  0.30610992095E+03  0.00000000000E+00 0.  1.
         13    1    4    4    0    0 -0.47477497012E+02  0.40935131628E+02  0.22849010123E+03  0.23693358581E+03  0.00000000000E+00 0. -1.
         21    1    1    2  502  501 -0.22338493680E+02 -0.36191510116E+02  0.35161204700E+02  0.55182823599E+02  0.00000000000E+00 0.  1.
<scales pt_clust_5="13000.00000" pt_clust_6="13000.00000" pt_clust_7="13000.00000" pt_clust_8="13000.00000" pt_clust_9="42.53039"></scales>
<clustering>
<clus scale="   42.530">  2  9  1 -1</clus>
<clus scale="   76.999">  5  6 -1 -1</clus>
<clus scale="   92.799">  7  8 -1 -1</clus>
<clus scale="  139.465">  2  5  1 -1</clus>
<clus scale="  148.772">  1  5  2 -1</clus>
</clustering>
</event>
<event>
 9    1  0.1266593E-005  0.2247094E+03  0.7546771E-02  0.1152459E+00
         -2   -1    0    0    0  501 -0.00000000000E+00  0.00000000000E+00  0.91532444964E+02  0.91532444964E+02  0.00000000000E+00 0.  1.
          2   -1    0    0  502    0  0.00000000000E+00 -0.00000000000E+00 -0.13931296374E+04  0.13931296374E+04  0.00000000000E+00 0. -1.
         23    2    1    2    0    0 -0.50005671936E+02 -0.79721879812E+02 -0.88686615236E+02  0.15921375919E+03  0.92884659904E+02 0.  0.
         23    2    1    2    0    0  0.18922490539E+03 -0.78488204157E+02 -0.23191637525E+03  0.32207299466E+03  0.89327183798E+02 0.  0.
        -11    1    4    4    0    0  0.99694659921E+02 -0.67007559601E+02 -0.18438150536E+03  0.22005812364E+03  0.00000000000E+00 0.  1.
         11    1    4    4    0    0  0.89530245466E+02 -0.11480644555E+02 -0.47534869890E+02  0.10201487101E+03  0.00000000000E+00 0. -1.
        -13    1    3    3    0    0  0.20786289015E+02 -0.69909909403E+01  0.33717523185E+01  0.22188115716E+02  0.00000000000E+00 0. -1.
         13    1    3    3    0    0 -0.70791960952E+02 -0.72730888872E+02 -0.92058367554E+02  0.13702564347E+03  0.00000000000E+00 0.  1.
         21    1    1    2  502  501 -0.13921923345E+03  0.15821008397E+03 -0.98099420190E+03  0.10033753285E+04  0.00000000000E+00 0.  1.
<scales pt_clust_5="13000.00000" pt_clust_6="13000.00000" pt_clust_7="13000.00000" pt_clust_8="13000.00000" pt_clust_9="206.19161"></scales>
<clustering>
<clus scale="   89.327">  5  6 -1 -1</clus>
<clus scale="   92.885">  7  8 -1 -1</clus>
<clus scale="  132.226">  1  7  2 -1</clus>
<clus scale="  206.192">  2  9  1 -1</clus>
<clus scale="  206.192">  2  5  1 -1</clus>
</clustering>
</event>
<event>
 9    1  0.1266593E-005  0.1115957E+03  0.7546771E-02  0.1257645E+00
          1   -1    0    0  502    0  0.00000000000E+00  0.00000000000E+00  0.55278342435E+02  0.55278342435E+02  0.00000000000E+00 0. -1.
         -1   -1    0    0    0  501 -0.00000000000E+00 -0.00000000000E+00 -0.36634160354E+03  0.36634160354E+03  0.00000000000E+00 0.  1.
         23    2    1    2    0    0 -0.52613050214E+02 -0.18997512636E+02 -0.13769675160E+03  0.17407801019E+03  0.90629574041E+02 0.  0.
         23    2    1    2    0    0  0.71575551300E+02  0.31413923570E+01 -0.57450866003E+02  0.12902008377E+03  0.90623684104E+02 0.  0.
        -11    1    4    4    0    0 -0.96877942686E+01 -0.22445133209E+02 -0.31671422141E+02  0.40008953286E+02  0.00000000000E+00 0.  1.
         11    1    4    4    0    0  0.81263345569E+02  0.25586525566E+02 -0.25779443862E+02  0.89011130481E+02  0.00000000000E+00 0. -1.
        -13    1    3    3    0    0 -0.17632481763E+02 -0.45284748199E+02 -0.28256132842E+02  0.56214071866E+02  0.00000000000E+00 0. -1.
         13    1    3    3    0    0 -0.34980568450E+02  0.26287235563E+02 -0.10944061876E+03  0.11786393832E+03  0.00000000000E+00 0.  1.
         21    1    1    2  502  501 -0.18962501087E+02  0.15856120279E+02 -0.11591564351E+03  0.11852185202E+03  0.00000000000E+00 0. -1.
<scales pt_clust_5="13000.00000" pt_clust_6="13000.00000" pt_clust_7="13000.00000" pt_clust_8="13000.00000" pt_clust_9="24.71827"></scales>
<clustering>
<clus scale="   24.718">  2  9  1 -1</clus>
<clus scale="   90.624">  5  6 -1 -1</clus>
<clus scale="   90.630">  7  8 -1 -1</clus>
<clus scale="  111.591">  1  5  2 -1</clus>
<clus scale="  111.591">  1  5  2 -1</clus>
</clustering>
</event>
<event>
 9    1  0.1266593E-005  0.1076337E+03  0.7546771E-02  0.1270976E+00
         -2   -1    0    0    0  501 -0.00000000000E+00  0.00000000000E+00  0.60283999414E+02  0.60283999414E+02  0.00000000000E+00 0.  1.
          2   -1    0    0  502    0  0.00000000000E+00 -0.00000000000E+00 -0.31909544770E+03  0.31909544770E+03  0.00000000000E+00 0. -1.
         23    2    1    2    0    0 -0.60245868928E+01 -0.49300110198E+02 -0.57476056815E+02  0.11796166443E+03  0.90247773681E+02 0.  0.
         23    2    1    2    0    0  0.22086453316E+02  0.52417661110E+01 -0.82406756123E+02  0.13357748567E+03  0.10264883677E+03 0.  0.
        -11    1    4    4    0    0 -0.33718036244E+02  0.28025502189E+02 -0.25711535196E+02  0.50827333033E+02  0.00000000000E+00 0.  1.
         11    1    4    4    0    0  0.55804489560E+02 -0.22783736078E+02 -0.56695220927E+02  0.82750152633E+02  0.00000000000E+00 0. -1.
        -13    1    3    3    0    0 -0.32411929744E+02 -0.51144008866E+02 -0.69717056048E+01  0.60949548904E+02  0.00000000000E+00 0.  1.
         13    1    3    3    0    0  0.26387342852E+02  0.18438986674E+01 -0.50504351210E+02  0.57012115521E+02  0.00000000000E+00 0. -1.
         21    1    1    2  502  501 -0.16061866423E+02  0.44058344087E+02 -0.11892863535E+03  0.12784029702E+03  0.00000000000E+00 0. -1.
<scales pt_clust_5="13000.00000" pt_clust_6="13000.00000" pt_clust_7="13000.00000" pt_clust_8="13000.00000" pt_clust_9="46.89479"></scales>
<clustering>
<clus scale="   46.895">  2  9  1 -1</clus>
<clus scale="   90.248">  7  8 -1 -1</clus>
<clus scale="   95.880">  1  7  2 -1</clus>
<clus scale="  102.649">  5  6 -1 -1</clus>
<clus scale="   46.895">  2  5  1 -1</clus>
</clustering>
</event>
<event>
 9    1  0.1266593E-005  0.1043801E+03  0.7546771E-02  0.1273441E+00
         -1   -1    0    0    0  501 -0.00000000000E+00  0.00000000000E+00  0.26094850940E+02  0.26094850940E+02  0.00000000000E+00 0.  1.
          1   -1    0    0  502    0  0.00000000000E+00 -0.00000000000E+00 -0.57366084166E+03  0.57366084166E+03  0.00000000000E+00 0. -1.
         23    2    1    2    0    0  0.24980416448E+01 -0.61698828970E+02 -0.19733974003E+03  0.22430122772E+03  0.86919975006E+02 0.  0.
         23    2    1    2    0    0 -0.88967817432E+01  0.42730231002E+02 -0.33572147002E+03  0.35073321397E+03  0.91650731521E+02 0.  0.
        -11    1    4    4    0    0 -0.46917139649E+02  0.30418958256E+02 -0.13588139282E+03  0.14693632610E+03  0.00000000000E+00 0.  1.
         11    1    4    4    0    0  0.38020357906E+02  0.12311272746E+02 -0.19984007720E+03  0.20379688787E+03  0.00000000000E+00 0. -1.
        -11    1    3    3    0    0  0.38146306089E+01 -0.81792499298E+02 -0.12676835924E+03  0.15091315799E+03  0.00000000000E+00 0.  1.
         11    1    3    3    0    0 -0.13165889641E+01  0.20093670328E+02 -0.70571380783E+02  0.73388069734E+02  0.00000000000E+00 0. -1.
         21    1    1    2  502  501  0.63987400985E+01  0.18968597968E+02 -0.14504780675E+02  0.24721250902E+02  0.00000000000E+00 0. -1.
<scales pt_clust_5="13000.00000" pt_clust_6="13000.00000" pt_clust_7="13000.00000" pt_clust_8="13000.00000" pt_clust_9="20.01878"></scales>
<clustering>
<clus scale="   20.019">  1  9  2 -1</clus>
<clus scale="   86.920">  7  8 -1 -1</clus>
<clus scale="   91.651">  5  6 -1 -1</clus>
<clus scale="  100.252">  1  7  2 -1</clus>
<clus scale="  104.380">  2  5  1 -1</clus>
</clustering>
</event>
<event>
 9    1  0.1266593E-005  0.2496274E+03  0.7546771E-02  0.1113692E+00
          1   -1    0    0  502    0  0.00000000000E+00  0.00000000000E+00  0.23411284454E+03  0.23411284454E+03  0.00000000000E+00 0. -1.
         -1   -1    0    0    0  501 -0.00000000000E+00 -0.00000000000E+00 -0.46955630388E+03  0.46955630388E+03  0.00000000000E+00 0.  1.
         23    2    1    2    0    0  0.20583260300E+01 -0.21391097966E+03 -0.38350060774E+02  0.23385016710E+03  0.86330930523E+02 0.  0.
         23    2    1    2    0    0 -0.16969978557E+02  0.25169881393E+03  0.10767100057E+01  0.26752792930E+03  0.89049202948E+02 0.  0.
        -11    1    3    3    0    0  0.41485368848E+02 -0.79369572669E+02 -0.47656802301E+01  0.89684316367E+02  0.00000000000E+00 0.  1.
         11    1    3    3    0    0 -0.39427042817E+02 -0.13454140699E+03 -0.33584380544E+02  0.14416585073E+03  0.00000000000E+00 0. -1.
        -11    1    4    4    0    0  0.17173450127E+02  0.19480872994E+03 -0.23071885840E+02  0.19692049300E+03  0.00000000000E+00 0.  1.
         11    1    4    4    0    0 -0.34143428684E+02  0.56890083993E+02  0.24148595846E+02  0.70607436296E+02  0.00000000000E+00 0. -1.
         21    1    1    2  502  501  0.14911652527E+02 -0.37787834271E+02 -0.19817010857E+03  0.20229105203E+03  0.00000000000E+00 0.  1.
<scales pt_clust_5="13000.00000" pt_clust_6="13000.00000" pt_clust_7="13000.00000" pt_clust_8="13000.00000" pt_clust_9="40.62361"></scales>
<clustering>
<clus scale="   40.624">  2  9  1 -1</clus>
<clus scale="   86.331">  5  6 -1 -1</clus>
<clus scale="   89.049">  7  8 -1 -1</clus>
<clus scale="  248.671">  2  5  1 -1</clus>
<clus scale="  249.627">  1  5  2 -1</clus>
</clustering>
</event>
<event>
 9    1  0.1266593E-005  0.1058778E+03  0.7546771E-02  0.1269893E+00
         -1   -1    0    0    0  501 -0.00000000000E+00  0.00000000000E+00  0.20991208834E+02  0.20991208834E+02  0.00000000000E+00 0.  1.
          1   -1    0    0  502    0  0.00000000000E+00 -0.00000000000E+00 -0.69264031148E+03  0.69264031148E+03  0.00000000000E+00 0. -1.
         23    2    1    2    0    0 -0.43278925657E+02  0.12331626638E+02 -0.28377456929E+03  0.30230110275E+03  0.93983062989E+02 0.  0.
         23    2    1    2    0    0  0.37469075848E+02 -0.41809807790E+02 -0.31355791450E+03  0.33117009473E+03  0.90570824346E+02 0.  0.
        -11    1    4    4    0    0  0.36150604021E+02 -0.68922963391E+02 -0.25527919319E+03  0.26687957496E+03  0.00000000000E+00 0.  1.
         11    1    4    4    0    0  0.13184718271E+01  0.27113155600E+02 -0.58278721309E+02  0.64290519767E+02  0.00000000000E+00 0. -1.
        -13    1    3    3    0    0  0.20472456181E+02  0.19946965496E+02 -0.16333318505E+03  0.16581535584E+03  0.00000000000E+00 0. -1.
         13    1    3    3    0    0 -0.63751381838E+02 -0.76153388588E+01 -0.12044138424E+03  0.13648574691E+03  0.00000000000E+00 0.  1.
         21    1    1    2  502  501  0.58098498084E+01  0.29478181153E+02 -0.74316618857E+02  0.80160322837E+02  0.00000000000E+00 0. -1.
<scales pt_clust_5="13000.00000" pt_clust_6="13000.00000" pt_clust_7="13000.00000" pt_clust_8="13000.00000" pt_clust_9="30.04526"></scales>
<clustering>
<clus scale="   30.045">  1  9  2 -1</clus>
<clus scale="   90.571">  5  6 -1 -1</clus>
<clus scale="   93.983">  7  8 -1 -1</clus>
<clus scale="  102.861">  2  5  1 -1</clus>
<clus scale="  102.861">  2  5  1 -1</clus>
</clustering>
</event>
<event>
 9    1  0.1266593E-005  0.1080237E+03  0.7546771E-02  0.1264317E+00
          3   -1    0    0  502    0  0.00000000000E+00  0.00000000000E+00  0.43112631664E+03  0.43112631664E+03  0.00000000000E+00 0. -1.
         -3   -1    0    0    0  501 -0.00000000000E+00 -0.00000000000E+00 -0.42385851719E+02  0.42385851719E+02  0.00000000000E+00 0.  1.
         23    2    1    2    0    0 -0.49928608378E+02  0.62531546684E+02  0.21246854152E+03  0.24468068488E+03  0.91228812069E+02 0.  0.
         23    2    1    2    0    0  0.17234294844E+02 -0.32414730985E+02  0.14161530714E+03  0.17246640762E+03  0.91334718694E+02 0.  0.
        -11    1    3    3    0    0  0.61572840538E+01  0.27890813240E+02  0.15381123934E+03  0.15644074583E+03  0.00000000000E+00 0. -1.
         11    1    3    3    0    0 -0.56085892432E+02  0.34640733444E+02  0.58657302183E+02  0.88239939046E+02  0.00000000000E+00 0.  1.
        -13    1    4    4    0    0 -0.30736374612E+01 -0.55767625686E+02  0.12595276279E+03  0.13778089046E+03  0.00000000000E+00 0. -1.
         13    1    4    4    0    0  0.20307932305E+02  0.23352894701E+02  0.15662544353E+02  0.34685517165E+02  0.00000000000E+00 0.  1.
         21    1    1    2  502  501  0.32694313534E+02 -0.30116815699E+02  0.34656616255E+02  0.56365075850E+02  0.00000000000E+00 0.  1.
<scales pt_clust_5="13000.00000" pt_clust_6="13000.00000" pt_clust_7="13000.00000" pt_clust_8="13000.00000" pt_clust_9="44.45155"></scales>
<clustering>
<clus scale="   44.452">  2  9  1 -1</clus>
<clus scale="   91.229">  5  6 -1 -1</clus>
<clus scale="   91.335">  7  8 -1 -1</clus>
<clus scale="  107.934">  2  5  1 -1</clus>
<clus scale="  108.024">  1  5  2 -1</clus>
</clustering>
</event>
<event>
 9    1  0.1266593E-005  0.2412098E+03  0.7546771E-02  0.1119093E+00
          3   -1    0    0  502    0  0.00000000000E+00  0.00000000000E+00  0.33300431478E+03  0.33300431478E+03  0.00000000000E+00 0. -1.
         -3   -1    0    0    0  501 -0.00000000000E+00 -0.00000000000E+00 -0.21011880859E+03  0.21011880859E+03  0.00000000000E+00 0.  1.
         23    2    1    2    0    0  0.15669912783E+03 -0.15645848719E+03 -0.53236428744E+01  0.23968482131E+03  0.91578368172E+02 0.  0.
         23    2    1    2    0    0 -0.14059156103E+03  0.17377989475E+03  0.13694834235E+03  0.27822206983E+03  0.93205326115E+02 0.  0.
        -11    1    4    4    0    0 -0.91859354650E+02  0.16188683441E+03  0.13121245841E+03  0.22773273247E+03  0.00000000000E+00 0.  1.
         11    1    4    4    0    0 -0.48732206383E+02  0.11893060338E+02  0.57358839339E+01  0.50489337366E+02  0.00000000000E+00 0. -1.
        -13    1    3    3    0    0  0.58102054106E+02 -0.10173701857E+03 -0.36458913964E+02  0.12270094558E+03  0.00000000000E+00 0. -1.
         13    1    3    3    0    0  0.98597073726E+02 -0.54721468618E+02  0.31135271089E+02  0.11698387573E+03  0.00000000000E+00 0.  1.
         21    1    1    2  502  501 -0.16107566799E+02 -0.17321407561E+02 -0.87391932856E+01  0.25216232220E+02  0.00000000000E+00 0. -1.
<scales pt_clust_5="13000.00000" pt_clust_6="13000.00000" pt_clust_7="13000.00000" pt_clust_8="13000.00000" pt_clust_9="23.65343"></scales>
<clustering>
<clus scale="   23.653">  2  9  1 -1</clus>
<clus scale="   91.578">  7  8 -1 -1</clus>
<clus scale="   93.205">  5  6 -1 -1</clus>
<clus scale="  240.586">  2  7  1 -1</clus>
<clus scale="  241.210">  1  5  2 -1</clus>
</clustering>
</event>
<event>
 9    1  0.1266593E-005  0.9417866E+02  0.7546771E-02  0.1293167E+00
          1   -1    0    0  502    0  0.00000000000E+00  0.00000000000E+00  0.72421203454E+02  0.72421203454E+02  0.00000000000E+00 0. -1.
         -1   -1    0    0    0  501 -0.00000000000E+00 -0.00000000000E+00 -0.37609944810E+03  0.37609944810E+03  0.00000000000E+00 0.  1.
         23    2    1    2    0    0  0.48458615818E+02 -0.69661124476E+01 -0.40520742277E+02  0.11164357256E+03  0.91791026624E+02 0.  0.
         23    2    1    2    0    0  0.17697738108E+01  0.19550188420E+01 -0.27151931041E+02  0.95533689030E+02  0.91556016637E+02 0.  0.
        -11    1    3    3    0    0  0.81639261559E+01  0.21064842585E+02  0.22418161268E+02  0.31826894885E+02  0.00000000000E+00 0. -1.
         11    1    3    3    0    0  0.40294689662E+02 -0.28030955032E+02 -0.62938903545E+02  0.79816677670E+02  0.00000000000E+00 0.  1.
        -11    1    4    4    0    0 -0.24478047192E+02  0.33218747766E+02 -0.34828376826E+02  0.53996998340E+02  0.00000000000E+00 0. -1.
         11    1    4    4    0    0  0.26247821003E+02 -0.31263728924E+02  0.76764457842E+01  0.41536690690E+02  0.00000000000E+00 0.  1.
         21    1    1    2  502  501 -0.50228389629E+02  0.50110936056E+01 -0.23600557133E+03  0.24134338997E+03  0.00000000000E+00 0. -1.
<scales pt_clust_5="13000.00000" pt_clust_6="13000.00000" pt_clust_7="13000.00000" pt_clust_8="13000.00000" pt_clust_9="50.47774"></scales>
<clustering>
<clus scale="   50.478">  2  9  1 -1</clus>
<clus scale="   91.556">  7  8 -1 -1</clus>
<clus scale="   91.791">  5  6 -1 -1</clus>
<clus scale="   93.950">  1  7  2 -1</clus>
<clus scale="   93.950">  1  5  2 -1</clus>
</clustering>
</event>
<event>
 9    1  0.1266593E-005  0.9515483E+02  0.7546771E-02  0.1291332E+00
         -1   -1    0    0    0  501 -0.00000000000E+00  0.00000000000E+00  0.30650122318E+03  0.30650122318E+03  0.00000000000E+00 0.  1.
          1   -1    0    0  502    0  0.00000000000E+00 -0.00000000000E+00 -0.15517153135E+03  0.15517153135E+03  0.00000000000E+00 0. -1.
         23    2    1    2    0    0  0.44124146393E+02 -0.31421919619E+02  0.47523827027E+02  0.11640145567E+03  0.91413934494E+02 0.  0.
         23    2    1    2    0    0 -0.19057390509E+02  0.76194094930E+01 -0.10124434552E+03  0.13732781977E+03  0.90483551256E+02 0.  0.
        -13    1    3    3    0    0  0.65520920454E+02 -0.34700130054E+02  0.56246952240E+02  0.93063471239E+02  0.00000000000E+00 0. -1.
         13    1    3    3    0    0 -0.21396774060E+02  0.32782104346E+01 -0.87231252135E+01  0.23337984432E+02  0.00000000000E+00 0.  1.
        -13    1    4    4    0    0 -0.32893499960E+02  0.41852164006E+02 -0.43295659902E+02  0.68615596900E+02  0.00000000000E+00 0.  1.
         13    1    4    4    0    0  0.13836109451E+02 -0.34232754513E+02 -0.57948685620E+02  0.68712222868E+02  0.00000000000E+00 0. -1.
         21    1    1    2  502  501 -0.25066755884E+02  0.23802510126E+02  0.20505021033E+03  0.20794347909E+03  0.00000000000E+00 0.  1.
<scales pt_clust_5="13000.00000" pt_clust_6="13000.00000" pt_clust_7="13000.00000" pt_clust_8="13000.00000" pt_clust_9="34.56735"></scales>
<clustering>
<clus scale="   34.567">  1  9  2 -1</clus>
<clus scale="   90.484">  7  8 -1 -1</clus>
<clus scale="   91.414">  5  6 -1 -1</clus>
<clus scale="   94.261">  2  7  1 -1</clus>
<clus scale="   94.261">  2  5  1 -1</clus>
</clustering>
</event>
<event>
 9    1  0.1266593E-005  0.1050271E+03  0.7546771E-02  0.1270228E+00
         -2   -1    0    0    0  501 -0.00000000000E+00  0.00000000000E+00  0.75464133755E+03  0.75464133755E+03  0.00000000000E+00 0.  1.
          2   -1    0    0  502    0  0.00000000000E+00 -0.00000000000E+00 -0.86724691418E+02  0.86724691418E+02  0.00000000000E+00 0. -1.
         23    2    1    2    0    0  0.92861248665E+01  0.44265805773E+02  0.43053501104E+03  0.44252570349E+03  0.91776406781E+02 0.  0.
         23    2    1    2    0    0 -0.43364126469E+02 -0.29569220846E+02 -0.44586165223E+02  0.11444071188E+03  0.91400022538E+02 0.  0.
        -11    1    3    3    0    0  0.22653517418E+02  0.63006111649E+02  0.39169815998E+03  0.39737941629E+03  0.00000000000E+00 0.  1.
         11    1    3    3    0    0 -0.13367392551E+02 -0.18740305876E+02  0.38836851059E+02  0.45146287202E+02  0.00000000000E+00 0. -1.
        -11    1    4    4    0    0  0.20058779581E+02 -0.29874155795E+02 -0.35179802539E+02  0.50323337821E+02  0.00000000000E+00 0.  1.
         11    1    4    4    0    0 -0.63422906050E+02  0.30493494813E+00 -0.94063626836E+01  0.64117374057E+02  0.00000000000E+00 0. -1.
         21    1    1    2  502  501  0.34078001602E+02 -0.14696584927E+02  0.28196780031E+03  0.28439961360E+03  0.00000000000E+00 0.  1.
<scales pt_clust_5="13000.00000" pt_clust_6="13000.00000" pt_clust_7="13000.00000" pt_clust_8="13000.00000" pt_clust_9="37.11199"></scales>
<clustering>
<clus scale="   37.112">  1  9  2 -1</clus>
<clus scale="   91.400">  7  8 -1 -1</clus>
<clus scale="   91.776">  5  6 -1 -1</clus>
<clus scale="  104.698">  2  7  1 -1</clus>
<clus scale="  104.698">  2  5  1 -1</clus>
</clustering>
</event>
<event>
 9    1  0.1266593E-005  0.1145386E+03  0.7546771E-02  0.1253385E+00
          1   -1    0    0  502    0  0.00000000000E+00  0.00000000000E+00  0.31377436783E+03  0.31377436783E+03  0.00000000000E+00 0. -1.
         -1   -1    0    0    0  501 -0.00000000000E+00 -0.00000000000E+00 -0.81107061641E+02  0.81107061641E+02  0.00000000000E+00 0.  1.
         23    2    1    2    0    0 -0.53082154516E+02  0.23649190099E+02  0.32634412026E+02  0.11230830113E+03  0.90394415395E+02 0.  0.
         23    2    1    2    0    0  0.50407331412E+02 -0.49689226270E+02  0.22031482919E+03  0.24945825176E+03  0.93171224852E+02 0.  0.
        -11    1    4    4    0    0 -0.21567391697E+02 -0.18865945919E+02  0.21627877193E+02  0.35900436932E+02  0.00000000000E+00 0.  1.
         11    1    4    4    0    0  0.71974723109E+02 -0.30823280351E+02  0.19868695200E+03  0.21355781483E+03  0.00000000000E+00 0. -1.
        -11    1    3    3    0    0 -0.24708286921E+01 -0.30343094218E+02  0.21961275202E+02  0.37538060281E+02  0.00000000000E+00 0. -1.
         11    1    3    3    0    0 -0.50611325824E+02  0.53992284316E+02  0.10673136823E+02  0.74770240852E+02  0.00000000000E+00 0.  1.
         21    1    1    2  502  501  0.26748231038E+01  0.26040036172E+02 -0.20281935029E+02  0.33114876581E+02  0.00000000000E+00 0.  1.
<scales pt_clust_5="13000.00000" pt_clust_6="13000.00000" pt_clust_7="13000.00000" pt_clust_8="13000.00000" pt_clust_9="26.17705"></scales>
<clustering>
<clus scale="   26.177">  2  9  1 -1</clus>
<clus scale="   90.394">  7  8 -1 -1</clus>
<clus scale="   93.171">  5  6 -1 -1</clus>
<clus scale="  112.291">  2  7  1 -1</clus>
<clus scale="  114.539">  1  5  2 -1</clus>
</clustering>
</event>
<event>
 9    1  0.1266593E-005  0.1102763E+03  0.7546771E-02  0.1260466E+00
         -2   -1    0    0    0  501 -0.00000000000E+00  0.00000000000E+00  0.46745687373E+03  0.46745687373E+03  0.00000000000E+00 0.  1.
          2   -1    0    0  502    0  0.00000000000E+00 -0.00000000000E+00 -0.80049810030E+02  0.80049810030E+02  0.00000000000E+00 0. -1.
         23    2    1    2    0    0  0.46695564044E+02 -0.35929112046E+02  0.21914498182E+03  0.24483136717E+03  0.91904833919E+02 0.  0.
         23    2    1    2    0    0 -0.30381619261E+02  0.54200051585E+02 -0.20816247098E+02  0.11201701881E+03  0.90850470435E+02 0.  0.
        -11    1    4    4    0    0 -0.14708114677E+02 -0.24633809320E+02  0.10803263626E+01  0.28710978806E+02  0.00000000000E+00 0.  1.
         11    1    4    4    0    0 -0.15673504584E+02  0.78833860905E+02 -0.21896573461E+02  0.83306040000E+02  0.00000000000E+00 0. -1.
        -11    1    3    3    0    0  0.82873474077E+01 -0.23791179004E+02  0.34746962431E+01  0.25431748651E+02  0.00000000000E+00 0. -1.
         11    1    3    3    0    0  0.38408216636E+02 -0.12137933042E+02  0.21567028558E+03  0.21939961851E+03  0.00000000000E+00 0.  1.
         21    1    1    2  502  501 -0.16313944783E+02 -0.18270939539E+02  0.18907832897E+03  0.19065829778E+03  0.00000000000E+00 0. -1.
<scales pt_clust_5="13000.00000" pt_clust_6="13000.00000" pt_clust_7="13000.00000" pt_clust_8="13000.00000" pt_clust_9="24.49433"></scales>
<clustering>
<clus scale="   24.494">  1  9  2 -1</clus>
<clus scale="   90.850">  5  6 -1 -1</clus>
<clus scale="   91.905">  7  8 -1 -1</clus>
<clus scale="  109.399">  2  5  1 -1</clus>
<clus scale="  109.399">  2  5  1 -1</clus>
</clustering>
</event>
<event>
 9    1  0.1266593E-005  0.1314773E+03  0.7546771E-02  0.1225505E+00
         -1   -1    0    0    0  501 -0.00000000000E+00  0.00000000000E+00  0.11369892989E+03  0.11369892989E+03  0.00000000000E+00 0.  1.
          1   -1    0    0  502    0  0.00000000000E+00 -0.00000000000E+00 -0.30253839425E+03  0.30253839425E+03  0.00000000000E+00 0. -1.
         23    2    1    2    0    0 -0.68568142812E+02 -0.41070148984E+02  0.31362835510E+01  0.12124103375E+03  0.91110946901E+02 0.  0.
         23    2    1    2    0    0  0.77757452261E+02  0.60181188312E+02 -0.22115774273E+03  0.25892325262E+03  0.91991884258E+02 0.  0.
        -13    1    3    3    0    0 -0.19470663898E+02  0.13968658889E+02 -0.31646512375E+02  0.39695490037E+02  0.00000000000E+00 0. -1.
         13    1    3    3    0    0 -0.49097478914E+02 -0.55038807873E+02  0.34782795926E+02  0.81545543718E+02  0.00000000000E+00 0.  1.
        -13    1    4    4    0    0  0.77502491659E+02  0.79498446213E+01 -0.16357026603E+03  0.18117689745E+03  0.00000000000E+00 0. -1.
         13    1    4    4    0    0  0.25496060215E+00  0.52231343691E+02 -0.57587476702E+02  0.77746355166E+02  0.00000000000E+00 0.  1.
         21    1    1    2  502  501 -0.91893094494E+01 -0.19111039329E+02  0.29181994820E+02  0.36073037771E+02  0.00000000000E+00 0. -1.
<scales pt_clust_5="13000.00000" pt_clust_6="13000.00000" pt_clust_7="13000.00000" pt_clust_8="13000.00000" pt_clust_9="21.20555"></scales>
<clustering>
<clus scale="   21.206">  1  9  2 -1</clus>
<clus scale="   91.111">  5  6 -1 -1</clus>
<clus scale="   91.992">  7  8 -1 -1</clus>
<clus scale="  130.862">  1  5  2 -1</clus>
<clus scale="  131.477">  2  5  1 -1</clus>
</clustering>
</event>
<event>
 9    1  0.1266593E-005  0.1011031E+03  0.7546771E-02  0.1279125E+00
         -3   -1    0    0    0  501 -0.00000000000E+00  0.00000000000E+00  0.64648436426E+02  0.64648436426E+02  0.00000000000E+00 0.  1.
          3   -1    0    0  502    0  0.00000000000E+00 -0.00000000000E+00 -0.24756938186E+03  0.24756938186E+03  0.00000000000E+00 0. -1.
         23    2    1    2    0    0  0.39501630500E+01  0.18348987984E+02 -0.42985930580E+02  0.10243874137E+03  0.91069294259E+02 0.  0.
         23    2    1    2    0    0 -0.29011142321E+02 -0.54810622235E+02 -0.11898745993E+03  0.16082702373E+03  0.88664904291E+02 0.  0.
        -11    1    3    3    0    0 -0.32643413011E+02  0.13358190925E+02  0.11073209814E+02  0.36968224916E+02  0.00000000000E+00 0. -1.
         11    1    3    3    0    0  0.36593576062E+02  0.49907970585E+01 -0.54059140394E+02  0.65470516451E+02  0.00000000000E+00 0.  1.
        -11    1    4    4    0    0 -0.53015692191E+02 -0.62327485467E+02 -0.10056501261E+03  0.12964837378E+03  0.00000000000E+00 0. -1.
         11    1    4    4    0    0  0.24004549870E+02  0.75168632320E+01 -0.18422447316E+02  0.31178649946E+02  0.00000000000E+00 0.  1.
         21    1    1    2  502  501  0.25060979271E+02  0.36461634251E+02 -0.20947554929E+02  0.48952053192E+02  0.00000000000E+00 0. -1.
<scales pt_clust_5="13000.00000" pt_clust_6="13000.00000" pt_clust_7="13000.00000" pt_clust_8="13000.00000" pt_clust_9="44.24368"></scales>
<clustering>
<clus scale="   44.244">  1  9  2 -1</clus>
<clus scale="   88.665">  7  8 -1 -1</clus>
<clus scale="   91.069">  5  6 -1 -1</clus>
<clus scale="   98.943">  2  7  1 -1</clus>
<clus scale="   98.943">  2  5  1 -1</clus>
</clustering>
</event>
<event>
 9    1  0.1266593E-005  0.1176871E+03  0.7546771E-02  0.1246985E+00
          1   -1    0    0  502    0  0.00000000000E+00  0.00000000000E+00  0.34497262674E+03  0.34497262674E+03  0.00000000000E+00 0. -1.
         -1   -1    0    0    0  501 -0.00000000000E+00 -0.00000000000E+00 -0.12083360585E+03  0.12083360585E+03  0.00000000000E+00 0.  1.
         23    2    1    2    0    0  0.41397226182E+02  0.93153332079E+01  0.65704499074E+01  0.10118914028E+03  0.91627318685E+02 0.  0.
         23    2    1    2    0    0 -0.75643359983E+02  0.41416776879E+02  0.26089141258E+03  0.28962767120E+03  0.91556493227E+02 0.  0.
        -11    1    3    3    0    0 -0.75907598114E+01 -0.33648274178E+02 -0.54763781040E+01  0.34925874461E+02  0.00000000000E+00 0.  1.
         11    1    3    3    0    0  0.48987985993E+02  0.42963607386E+02  0.12046828011E+02  0.66263265815E+02  0.00000000000E+00 0. -1.
        -13    1    4    4    0    0 -0.90402089145E+02  0.22572068736E+02  0.24140232711E+03  0.25876073802E+03  0.00000000000E+00 0.  1.
         13    1    4    4    0    0  0.14758729162E+02  0.18844708143E+02  0.19489085473E+02  0.30866933182E+02  0.00000000000E+00 0. -1.
         21    1    1    2  502  501  0.34246133801E+02 -0.50732110087E+02 -0.43322841595E+02  0.74989421108E+02  0.00000000000E+00 0.  1.
<scales pt_clust_5="13000.00000" pt_clust_6="13000.00000" pt_clust_7="13000.00000" pt_clust_8="13000.00000" pt_clust_9="61.20902"></scales>
<clustering>
<clus scale="   61.209">  2  9  1 -1</clus>
<clus scale="   91.556">  7  8 -1 -1</clus>
<clus scale="   91.627">  5  6 -1 -1</clus>
<clus scale="  117.632">  1  7  2 -1</clus>
<clus scale="  117.632">  1  5  2 -1</clus>
</clustering>
</event>
<event>
 9    1  0.1266593E-005  0.3077522E+03  0.7546771E-02  0.1081956E+00
         -2   -1    0    0    0  501 -0.00000000000E+00  0.00000000000E+00  0.14158513738E+03  0.14158513738E+03  0.00000000000E+00 0.  1.
          2   -1    0    0  502    0  0.00000000000E+00 -0.00000000000E+00 -0.98110460365E+03  0.98110460365E+03  0.00000000000E+00 0. -1.
         23    2    1    2    0    0  0.23573156221E+03  0.21064959386E+03 -0.26429578036E+03  0.42044120252E+03  0.83521999769E+02 0.  0.
         23    2    1    2    0    0 -0.22881331022E+03 -0.16321030963E+03 -0.58211584653E+03  0.65381456515E+03  0.98089197721E+02 0.  0.
        -11    1    4    4    0    0 -0.22154869379E+03 -0.13782191670E+03 -0.45972609210E+03  0.52860834670E+03  0.00000000000E+00 0. -1.
         11    1    4    4    0    0 -0.72646164291E+01 -0.25388392933E+02 -0.12238975444E+03  0.12520621845E+03  0.00000000000E+00 0.  1.
        -13    1    3    3    0    0  0.11238486016E+03  0.79860494306E+02 -0.66230283135E+02  0.15295262583E+03  0.00000000000E+00 0.  1.
         13    1    3    3    0    0  0.12334670204E+03  0.13078909955E+03 -0.19806549722E+03  0.26748857668E+03  0.00000000000E+00 0. -1.
         21    1    1    2  502  501 -0.69182519853E+01 -0.47439284224E+02  0.68921606180E+01  0.48433973368E+02  0.00000000000E+00 0. -1.
<scales pt_clust_5="13000.00000" pt_clust_6="13000.00000" pt_clust_7="13000.00000" pt_clust_8="13000.00000" pt_clust_9="47.94109"></scales>
<clustering>
<clus scale="   47.941">  1  9  2 -1</clus>
<clus scale="   83.522">  7  8 -1 -1</clus>
<clus scale="   98.089">  5  6 -1 -1</clus>
<clus scale="  303.424">  1  7  2 -1</clus>
<clus scale="  307.752">  2  5  1 -1</clus>
</clustering>
</event>
<event>
 9    1  0.1266593E-005  0.1184091E+03  0.7546771E-02  0.1255054E+00
         -3   -1    0    0    0  501 -0.00000000000E+00  0.00000000000E+00  0.11121165750E+03  0.11121165750E+03  0.00000000000E+00 0.  1.
          3   -1    0    0  502    0  0.00000000000E+00 -0.00000000000E+00 -0.14920783972E+03  0.14920783972E+03  0.00000000000E+00 0. -1.
         23    2    1    2    0    0  0.40577435604E+02 -0.21389123478E+02  0.24814458829E+02  0.10586817066E+03  0.92131912542E+02 0.  0.
         23    2    1    2    0    0 -0.18606081730E+02  0.22490751573E+02 -0.62252565517E+02  0.13254529502E+03  0.11331748822E+03 0.  0.
        -11    1    3    3    0    0 -0.13122539779E+01 -0.51381873010E+02  0.12259545170E+02  0.52840470591E+02  0.00000000000E+00 0. -1.
         11    1    3    3    0    0  0.41889689582E+02  0.29992749532E+02  0.12554913659E+02  0.53027700070E+02  0.00000000000E+00 0.  1.
        -13    1    4    4    0    0 -0.62100727129E+02  0.35422503931E+02 -0.41303303125E+02  0.82566439573E+02  0.00000000000E+00 0. -1.
         13    1    4    4    0    0  0.43494645398E+02 -0.12931752358E+02 -0.20949262393E+02  0.49978855451E+02  0.00000000000E+00 0.  1.
         21    1    1    2  502  501 -0.21971353874E+02 -0.11016280952E+01 -0.55807552926E+00  0.22006031532E+02  0.00000000000E+00 0.  1.
<scales pt_clust_5="13000.00000" pt_clust_6="13000.00000" pt_clust_7="13000.00000" pt_clust_8="13000.00000" pt_clust_9="21.99895"></scales>
<clustering>
<clus scale="   21.999">  1  9  2 -1</clus>
<clus scale="   92.132">  5  6 -1 -1</clus>
<clus scale="   98.327">  1  5  2 -1</clus>
<clus scale="  113.317">  7  8 -1 -1</clus>
<clus scale="  118.409">  2  5  1 -1</clus>
</clustering>
</event>
<event>
 9    1  0.1298180E-005  0.1198176E+03  0.7546771E-02  0.1243780E+00
         -2   -1    0    0    0  501 -0.00000000000E+00  0.00000000000E+00  0.59918232733E+02  0.59918232733E+02  0.00000000000E+00 0.  1.
          2   -1    0    0  502    0  0.00000000000E+00 -0.00000000000E+00 -0.47059491182E+03  0.47059491182E+03  0.00000000000E+00 0. -1.
         23    2    1    2    0    0  0.60564381018E+02 -0.11860704696E+01 -0.28602559076E+02  0.11308746872E+03  0.91111021200E+02 0.  0.
         23    2    1    2    0    0 -0.81006440105E+02 -0.12426768976E+02 -0.37109242510E+03  0.39052242695E+03  0.89898331785E+02 0.  0.
        -11    1    3    3    0    0  0.35217392436E+02 -0.45432547071E+02 -0.77812636652E+01  0.58008009167E+02  0.00000000000E+00 0.  1.
         11    1    3    3    0    0  0.25346988582E+02  0.44246476601E+02 -0.20821295410E+02  0.55079459551E+02  0.00000000000E+00 0. -1.
        -13    1    4    4    0    0 -0.60514374512E+02 -0.48273128357E+01 -0.36165745556E+03  0.36671706755E+03  0.00000000000E+00 0. -1.
         13    1    4    4    0    0 -0.20492065593E+02 -0.75994561407E+01 -0.94349695439E+01  0.23805359401E+02  0.00000000000E+00 0.  1.
         21    1    1    2  502  501  0.20442059087E+02  0.13612839446E+02 -0.10981694912E+02  0.26903248886E+02  0.00000000000E+00 0.  1.
<scales pt_clust_5="13000.00000" pt_clust_6="13000.00000" pt_clust_7="13000.00000" pt_clust_8="13000.00000" pt_clust_9="24.55987"></scales>
<clustering>
<clus scale="   24.560">  1  9  2 -1</clus>
<clus scale="   89.898">  7  8 -1 -1</clus>
<clus scale="   91.111">  5  6 -1 -1</clus>
<clus scale="  118.898">  2  7  1 -1</clus>
<clus scale="  118.898">  2  5  1 -1</clus>
</clustering>
</event>
<event>
 9    1  0.1266593E-005  0.1197240E+03  0.7546771E-02  0.1244128E+00
          1   -1    0    0  502    0  0.00000000000E+00  0.00000000000E+00  0.19351430570E+03  0.19351430570E+03  0.00000000000E+00 0. -1.
         -1   -1    0    0    0  501 -0.00000000000E+00 -0.00000000000E+00 -0.10368037183E+03  0.10368037183E+03  0.00000000000E+00 0.  1.
         23    2    1    2    0    0 -0.64929507823E+02 -0.32931451065E+02 -0.84057779859E+01  0.11683005544E+03  0.90985071826E+02 0.  0.
         23    2    1    2    0    0  0.59985893134E+02  0.54214739131E+02  0.10251173223E+03  0.15810102320E+03  0.89161275107E+02 0.  0.
        -11    1    3    3    0    0 -0.26020689324E+02 -0.20933441958E+01  0.39821201192E+02  0.47614981122E+02  0.00000000000E+00 0. -1.
         11    1    3    3    0    0 -0.38908818499E+02 -0.30838106870E+02 -0.48226979178E+02  0.69215074319E+02  0.00000000000E+00 0.  1.
        -13    1    4    4    0    0  0.69911386569E+02  0.51755404524E+01  0.55003014874E+02  0.89105105556E+02  0.00000000000E+00 0.  1.
         13    1    4    4    0    0 -0.99254934353E+01  0.49039198679E+02  0.47508717352E+02  0.68995917643E+02  0.00000000000E+00 0. -1.
         21    1    1    2  502  501  0.49436146898E+01 -0.21283288066E+02 -0.42720203710E+01  0.22263598881E+02  0.00000000000E+00 0. -1.
<scales pt_clust_5="13000.00000" pt_clust_6="13000.00000" pt_clust_7="13000.00000" pt_clust_8="13000.00000" pt_clust_9="21.84989"></scales>
<clustering>
<clus scale="   21.850">  2  9  1 -1</clus>
<clus scale="   89.161">  7  8 -1 -1</clus>
<clus scale="   90.985">  5  6 -1 -1</clus>
<clus scale="  118.344">  1  7  2 -1</clus>
<clus scale="  118.344">  1  5  2 -1</clus>
</clustering>
</event>
<event>
 9    1  0.1266593E-005  0.9752089E+02  0.7546771E-02  0.1294737E+00
          2   -1    0    0  502    0  0.00000000000E+00  0.00000000000E+00  0.46903054161E+03  0.46903054161E+03  0.00000000000E+00 0. -1.
         -2   -1    0    0    0  501 -0.00000000000E+00 -0.00000000000E+00 -0.30699338575E+02  0.30699338575E+02  0.00000000000E+00 0.  1.
         23    2    1    2    0    0  0.19052003902E+01  0.41006696054E+01  0.11652294529E+03  0.15063066161E+03  0.95349641621E+02 0.  0.
         23    2    1    2    0    0  0.21533208764E+02  0.19619882082E+02  0.29306310711E+03  0.30507300729E+03  0.79592312262E+02 0.  0.
        -13    1    3    3    0    0 -0.41470290408E+02  0.23768042793E+02  0.56411380195E+02  0.73938817006E+02  0.00000000000E+00 0.  1.
         13    1    3    3    0    0  0.43375490798E+02 -0.19667373188E+02  0.60111565094E+02  0.76691844600E+02  0.00000000000E+00 0. -1.
        -13    1    4    4    0    0 -0.26745776153E+02  0.14891656070E+02  0.64193704440E+02  0.71119122972E+02  0.00000000000E+00 0.  1.
         13    1    4    4    0    0  0.48278984917E+02  0.47282260118E+01  0.22886940267E+03  0.23395388431E+03  0.00000000000E+00 0. -1.
         21    1    1    2  502  501 -0.23438409154E+02 -0.23720551687E+02  0.28745150636E+02  0.44026211296E+02  0.00000000000E+00 0.  1.
<scales pt_clust_5="13000.00000" pt_clust_6="13000.00000" pt_clust_7="13000.00000" pt_clust_8="13000.00000" pt_clust_9="33.34702"></scales>
<clustering>
<clus scale="   33.347">  2  9  1 -1</clus>
<clus scale="   79.592">  7  8 -1 -1</clus>
<clus scale="   82.181">  1  7  2 -1</clus>
<clus scale="   95.350">  5  6 -1 -1</clus>
<clus scale="   82.181">  1  5  2 -1</clus>
</clustering>
</event>
<event>
 9    1  0.1266593E-005  0.1218583E+03  0.7546771E-02  0.1240118E+00
         -1   -1    0    0    0  501 -0.00000000000E+00  0.00000000000E+00  0.20186813213E+03  0.20186813213E+03  0.00000000000E+00 0.  1.
          1   -1    0    0  502    0  0.00000000000E+00 -0.00000000000E+00 -0.11432395023E+03  0.11432395023E+03  0.00000000000E+00 0. -1.
         23    2    1    2    0    0  0.69464690126E+02  0.17892373863E+02  0.57161365807E+02  0.12887232874E+03  0.90527206722E+02 0.  0.
         23    2    1    2    0    0 -0.88750739522E+02  0.22094600828E+02 -0.73943674079E+01  0.12902716885E+03  0.90710906070E+02 0.  0.
        -11    1    4    4    0    0 -0.73322958009E+01 -0.27693967265E+02 -0.16665142011E+02  0.33142802278E+02  0.00000000000E+00 0.  1.
         11    1    4    4    0    0 -0.81418443721E+02  0.49788568094E+02  0.92707746030E+01  0.95884366570E+02  0.00000000000E+00 0. -1.
        -13    1    3    3    0    0  0.24353098402E+01 -0.29651287185E+02  0.18404488297E+01  0.29807999222E+02  0.00000000000E+00 0.  1.
         13    1    3    3    0    0  0.67029380286E+02  0.47543661048E+02  0.55320916977E+02  0.99064329517E+02  0.00000000000E+00 0. -1.
         21    1    1    2  502  501  0.19286049396E+02 -0.39986974691E+02  0.37777183505E+02  0.58292584776E+02  0.00000000000E+00 0.  1.
<scales pt_clust_5="13000.00000" pt_clust_6="13000.00000" pt_clust_7="13000.00000" pt_clust_8="13000.00000" pt_clust_9="44.39493"></scales>
<clustering>
<clus scale="   44.395">  1  9  2 -1</clus>
<clus scale="   90.527">  7  8 -1 -1</clus>
<clus scale="   90.711">  5  6 -1 -1</clus>
<clus scale="  121.722">  1  7  2 -1</clus>
<clus scale="  121.858">  2  5  1 -1</clus>
</clustering>
</event>
<event>
 9    1  0.1266593E-005  0.9247086E+02  0.7546771E-02  0.1299187E+00
         -2   -1    0    0    0  501 -0.00000000000E+00  0.00000000000E+00  0.11986945749E+03  0.11986945749E+03  0.00000000000E+00 0.  1.
          2   -1    0    0  502    0  0.00000000000E+00 -0.00000000000E+00 -0.18595677344E+03  0.18595677344E+03  0.00000000000E+00 0. -1.
         23    2    1    2    0    0 -0.36970396693E+02  0.23302799640E+02  0.37945881962E+02  0.10633664934E+03  0.89206290878E+02 0.  0.
         23    2    1    2    0    0 -0.33864263291E+02  0.40584117055E+01 -0.73305899297E+02  0.11757284446E+03  0.85360177184E+02 0.  0.
        -11    1    3    3    0    0  0.14971020548E+01  0.24028783849E+02 -0.23626626276E+02  0.33731902362E+02  0.00000000000E+00 0. -1.
         11    1    3    3    0    0 -0.38467498748E+02 -0.72598420893E+00  0.61572508238E+02  0.72604746977E+02  0.00000000000E+00 0.  1.
        -13    1    4    4    0    0 -0.54207232904E+02 -0.17506763311E+02 -0.65720245999E+02  0.86971613731E+02  0.00000000000E+00 0. -1.
         13    1    4    4    0    0  0.20342969613E+02  0.21565175017E+02 -0.75856532975E+01  0.30601230729E+02  0.00000000000E+00 0.  1.
         21    1    1    2  502  501  0.70834659984E+02 -0.27361211345E+02 -0.30727298621E+02  0.81916737129E+02  0.00000000000E+00 0. -1.
<scales pt_clust_5="13000.00000" pt_clust_6="13000.00000" pt_clust_7="13000.00000" pt_clust_8="13000.00000" pt_clust_9="75.93540"></scales>
<clustering>
<clus scale="   75.935">  2  9  1 -1</clus>
<clus scale="   85.360">  7  8 -1 -1</clus>
<clus scale="   88.766">  2  7  1 -1</clus>
<clus scale="   89.206">  5  6 -1 -1</clus>
<clus scale="   75.935">  2  5  1 -1</clus>
</clustering>
</event>
<event>
 9    1  0.1266593E-005  0.1396011E+03  0.7546771E-02  0.1230317E+00
         -2   -1    0    0    0  501 -0.00000000000E+00  0.00000000000E+00  0.14652320283E+03  0.14652320283E+03  0.00000000000E+00 0.  1.
          2   -1    0    0  502    0  0.00000000000E+00 -0.00000000000E+00 -0.54278171067E+03  0.54278171067E+03  0.00000000000E+00 0. -1.
         23    2    1    2    0    0  0.13654774359E+03  0.43141147308E+02 -0.34946691813E+03  0.38846217311E+03  0.90935626686E+02 0.  0.
         23    2    1    2    0    0 -0.36747707658E+02 -0.15779903457E+02 -0.13326779534E+03  0.16598422573E+03  0.90504466991E+02 0.  0.
        -11    1    4    4    0    0 -0.25645983993E+02 -0.51890780625E+02 -0.58956293215E+02  0.82620906062E+02  0.00000000000E+00 0.  1.
         11    1    4    4    0    0 -0.11101723665E+02  0.36110877168E+02 -0.74311502121E+02  0.83363319665E+02  0.00000000000E+00 0. -1.
        -11    1    3    3    0    0  0.81146267968E+02  0.67226278004E+02 -0.18033718728E+03  0.20886739902E+03  0.00000000000E+00 0.  1.
         11    1    3    3    0    0  0.55401475623E+02 -0.24085130697E+02 -0.16912973085E+03  0.17959477409E+03  0.00000000000E+00 0. -1.
         21    1    1    2  502  501 -0.99800035932E+02 -0.27361243851E+02  0.86476205631E+02  0.13485851466E+03  0.00000000000E+00 0.  1.
<scales pt_clust_5="13000.00000" pt_clust_6="13000.00000" pt_clust_7="13000.00000" pt_clust_8="13000.00000" pt_clust_9="105.92068"></scales>
<clustering>
<clus scale="   90.504">  5  6 -1 -1</clus>
<clus scale="   90.936">  7  8 -1 -1</clus>
<clus scale="   98.947">  2  5  1 -1</clus>
<clus scale="  105.921">  1  9  2 -1</clus>
<clus scale="   98.947">  2  5  1 -1</clus>
</clustering>
</event>
<event>
 9    1  0.1266593E-005  0.1133799E+03  0.7546771E-02  0.1254964E+00
          1   -1    0    0  502    0  0.00000000000E+00  0.00000000000E+00  0.19577872292E+03  0.19577872292E+03  0.00000000000E+00 0. -1.
         -1   -1    0    0    0  501 -0.00000000000E+00 -0.00000000000E+00 -0.27021373469E+03  0.27021373469E+03  0.00000000000E+00 0.  1.
         23    2    1    2    0    0 -0.75945039675E+01 -0.59107306660E+02 -0.11805741992E+03  0.16553458972E+03  0.99563024275E+02 0.  0.
         23    2    1    2    0    0 -0.63090308716E+02  0.12876782814E+01  0.13002359658E+03  0.17474145079E+03  0.98216056662E+02 0.  0.
        -11    1    4    4    0    0 -0.83550064694E+02  0.24659845171E+01  0.12963230658E+03  0.15424405758E+03  0.00000000000E+00 0. -1.
         11    1    4    4    0    0  0.20459755977E+02 -0.11783062358E+01  0.39128999629E+00  0.20497393202E+02  0.00000000000E+00 0.  1.
        -13    1    3    3    0    0  0.44952219033E+02 -0.22909462100E+02 -0.38017860004E+02  0.63173595188E+02  0.00000000000E+00 0.  1.
         13    1    3    3    0    0 -0.52546723001E+02 -0.36197844560E+02 -0.80039559919E+02  0.10236099453E+03  0.00000000000E+00 0. -1.
         21    1    1    2  502  501  0.70684812684E+02  0.57819628379E+02 -0.86401188418E+02  0.12571641711E+03  0.00000000000E+00 0.  1.
<scales pt_clust_5="13000.00000" pt_clust_6="13000.00000" pt_clust_7="13000.00000" pt_clust_8="13000.00000" pt_clust_9="91.32060"></scales>
<clustering>
<clus scale="   91.321">  2  9  1 -1</clus>
<clus scale="   98.216">  5  6 -1 -1</clus>
<clus scale="   99.563">  7  8 -1 -1</clus>
<clus scale="  112.199">  1  5  2 -1</clus>
<clus scale="  112.199">  1  5  2 -1</clus>
</clustering>
</event>
<event>
 9    1  0.1266593E-005  0.1098399E+03  0.7546771E-02  0.1261799E+00
         -1   -1    0    0    0  501 -0.00000000000E+00  0.00000000000E+00  0.17534389813E+03  0.17534389813E+03  0.00000000000E+00 0.  1.
          1   -1    0    0  502    0  0.00000000000E+00 -0.00000000000E+00 -0.18013439798E+03  0.18013439798E+03  0.00000000000E+00 0. -1.
         23    2    1    2    0    0 -0.56263670132E+02  0.40225733337E+02  0.74433032425E+02  0.13465729603E+03  0.88366288026E+02 0.  0.
         23    2    1    2    0    0  0.15926618010E+02 -0.61031038833E+02 -0.11758847885E+03  0.16139198666E+03  0.90784790238E+02 0.  0.
        -11    1    4    4    0    0  0.20079684047E+02 -0.37638205678E+02 -0.12767942772E+01  0.42678547793E+02  0.00000000000E+00 0.  1.
         11    1    4    4    0    0 -0.41530660365E+01 -0.23392833155E+02 -0.11631168457E+03  0.11871343887E+03  0.00000000000E+00 0. -1.
        -11    1    3    3    0    0 -0.75320919536E+02  0.13714020612E+02  0.65633701994E+02  0.10084194623E+03  0.00000000000E+00 0.  1.
         11    1    3    3    0    0  0.19057249405E+02  0.26511712725E+02  0.87993304301E+01  0.33815349806E+02  0.00000000000E+00 0. -1.
         21    1    1    2  502  501  0.40337052122E+02  0.20805305496E+02  0.38364946572E+02  0.59429013420E+02  0.00000000000E+00 0.  1.
<scales pt_clust_5="13000.00000" pt_clust_6="13000.00000" pt_clust_7="13000.00000" pt_clust_8="13000.00000" pt_clust_9="45.38655"></scales>
<clustering>
<clus scale="   45.387">  1  9  2 -1</clus>
<clus scale="   88.366">  7  8 -1 -1</clus>
<clus scale="   90.785">  5  6 -1 -1</clus>
<clus scale="  107.850">  1  7  2 -1</clus>
<clus scale="  109.840">  2  5  1 -1</clus>
</clustering>
</event>
<event>
 9    1  0.1266593E-005  0.1109975E+03  0.7546771E-02  0.1258970E+00
          1   -1    0    0  502    0  0.00000000000E+00  0.00000000000E+00  0.82275228560E+02  0.82275228560E+02  0.00000000000E+00 0. -1.
         -1   -1    0    0    0  501 -0.00000000000E+00 -0.00000000000E+00 -0.24851300794E+03  0.24851300794E+03  0.00000000000E+00 0.  1.
         23    2    1    2    0    0 -0.15382095230E+01 -0.54778754586E+02 -0.54910510143E+02  0.11866490251E+03  0.89794860213E+02 0.  0.
         23    2    1    2    0    0  0.29345533969E+02  0.68234535619E+02 -0.23952665230E+02  0.11944848972E+03  0.90427315061E+02 0.  0.
        -13    1    3    3    0    0 -0.36633700072E+02  0.28426689633E+01 -0.11767367311E+02  0.38582116080E+02  0.00000000000E+00 0. -1.
         13    1    3    3    0    0  0.35095490549E+02 -0.57621423550E+02 -0.43143142832E+02  0.80082786429E+02  0.00000000000E+00 0.  1.
        -13    1    4    4    0    0 -0.16039780287E+02  0.69001483128E+02 -0.78042917837E+01  0.71269812654E+02  0.00000000000E+00 0. -1.
         13    1    4    4    0    0  0.45385314256E+02 -0.76694750933E+00 -0.16148373447E+02  0.48178677063E+02  0.00000000000E+00 0.  1.
         21    1    1    2  502  501 -0.27807324446E+02 -0.13455781032E+02 -0.87374604010E+02  0.92674844278E+02  0.00000000000E+00 0. -1.
<scales pt_clust_5="13000.00000" pt_clust_6="13000.00000" pt_clust_7="13000.00000" pt_clust_8="13000.00000" pt_clust_9="30.89183"></scales>
<clustering>
<clus scale="   30.892">  2  9  1 -1</clus>
<clus scale="   89.795">  5  6 -1 -1</clus>
<clus scale="   90.427">  7  8 -1 -1</clus>
<clus scale="  110.483">  2  5  1 -1</clus>
<clus scale="  110.997">  1  5  2 -1</clus>
</clustering>
</event>
<event>
 9    1  0.1266593E-005  0.9214303E+02  0.7546771E-02  0.1298947E+00
         -1   -1    0    0    0  501 -0.00000000000E+00  0.00000000000E+00  0.54998205126E+02  0.54998205126E+02  0.00000000000E+00 0.  1.
          1   -1    0    0  502    0  0.00000000000E+00 -0.00000000000E+00 -0.27002485172E+03  0.27002485172E+03  0.00000000000E+00 0. -1.
         23    2    1    2    0    0  0.37917636610E+01 -0.15565854098E+02 -0.14684066365E+02  0.90390679895E+02  0.87739272400E+02 0.  0.
         23    2    1    2    0    0  0.20581046567E+01  0.37775356663E+02 -0.17587651559E+03  0.20107539135E+03  0.89819546344E+02 0.  0.
        -13    1    3    3    0    0  0.11247113224E+02  0.32950985857E+02  0.88935025287E+01  0.35935489589E+02  0.00000000000E+00 0.  1.
         13    1    3    3    0    0 -0.74553495631E+01 -0.48516839954E+02 -0.23577568894E+02  0.54455190305E+02  0.00000000000E+00 0. -1.
        -13    1    4    4    0    0  0.35043062285E+02  0.14709778054E+02 -0.14622432751E+03  0.15108258582E+03  0.00000000000E+00 0.  1.
         13    1    4    4    0    0 -0.32984957629E+02  0.23065578609E+02 -0.29652188083E+02  0.49992805527E+02  0.00000000000E+00 0. -1.
         21    1    1    2  502  501 -0.58498683177E+01 -0.22209502566E+02 -0.24466064638E+02  0.33556985598E+02  0.00000000000E+00 0. -1.
<scales pt_clust_5="13000.00000" pt_clust_6="13000.00000" pt_clust_7="13000.00000" pt_clust_8="13000.00000" pt_clust_9="22.96700"></scales>
<clustering>
<clus scale="   22.967">  2  9  1 -1</clus>
<clus scale="   87.739">  5  6 -1 -1</clus>
<clus scale="   89.820">  7  8 -1 -1</clus>
<clus scale="   90.116">  1  5  2 -1</clus>
<clus scale="   22.967">  2  5  1 -1</clus>
</clustering>
</event>
<event>
 9    1  0.1266593E-005  0.1127936E+03  0.7546771E-02  0.1255576E+00
          2   -1    0    0  502    0  0.00000000000E+00  0.00000000000E+00  0.36676490205E+03  0.36676490205E+03  0.00000000000E+00 0. -1.
         -2   -1    0    0    0  501 -0.00000000000E+00 -0.00000000000E+00 -0.84147198229E+02  0.84147198229E+02  0.00000000000E+00 0.  1.
         23    2    1    2    0    0 -0.11858983060E+03  0.68178543473E+00  0.15794383963E+03  0.21761596107E+03  0.91358838002E+02 0.  0.
         23    2    1    2    0    0  0.33966337659E+02  0.23620299652E+01  0.11090099259E+03  0.14750515855E+03  0.91101319209E+02 0.  0.
        -13    1    4    4    0    0 -0.50504272802E+00  0.35636106740E+02  0.86888412025E+02  0.93913701428E+02  0.00000000000E+00 0.  1.
         13    1    4    4    0    0  0.34471380387E+02 -0.33274076775E+02  0.24012580566E+02  0.53591457121E+02  0.00000000000E+00 0. -1.
        -13    1    3    3    0    0 -0.20565446855E+02  0.36139668424E+02  0.69124945604E+02  0.80667659833E+02  0.00000000000E+00 0.  1.
         13    1    3    3    0    0 -0.98024383748E+02 -0.35457882990E+02  0.88818894023E+02  0.13694830123E+03  0.00000000000E+00 0. -1.
         21    1    1    2  502  501  0.84623492944E+02 -0.30438153999E+01  0.13772871599E+02  0.85790980658E+02  0.00000000000E+00 0.  1.
<scales pt_clust_5="13000.00000" pt_clust_6="13000.00000" pt_clust_7="13000.00000" pt_clust_8="13000.00000" pt_clust_9="84.67822"></scales>
<clustering>
<clus scale="   84.678">  2  9  1 -1</clus>
<clus scale="   91.101">  5  6 -1 -1</clus>
<clus scale="   91.359">  7  8 -1 -1</clus>
<clus scale="  112.585">  1  5  2 -1</clus>
<clus scale="  112.585">  1  5  2 -1</clus>
</clustering>
</event>
<event>
 9    1  0.1266593E-005  0.3375335E+03  0.7546771E-02  0.1068015E+00
         -2   -1    0    0    0  501 -0.00000000000E+00  0.00000000000E+00  0.51225509158E+03  0.51225509158E+03  0.00000000000E+00 0.  1.
          2   -1    0    0  502    0  0.00000000000E+00 -0.00000000000E+00 -0.61557581324E+03  0.61557581324E+03  0.00000000000E+00 0. -1.
         23    2    1    2    0    0 -0.29360323812E+03 -0.54838884378E+02  0.32847637351E+03  0.45347604057E+03  0.92377631173E+02 0.  0.
         23    2    1    2    0    0  0.31601427370E+03  0.81870663131E+02 -0.49564329024E+03  0.60148986439E+03  0.97775043545E+02 0.  0.
        -11    1    3    3    0    0 -0.27629710620E+03 -0.37433766355E+02  0.32574678908E+03  0.42878006991E+03  0.00000000000E+00 0.  1.
         11    1    3    3    0    0 -0.17306131923E+02 -0.17405118023E+02  0.27295844273E+01  0.24695970656E+02  0.00000000000E+00 0. -1.
        -13    1    4    4    0    0  0.21545633817E+02  0.16102835432E+02 -0.80223229663E+01  0.28069081056E+02  0.00000000000E+00 0.  1.
         13    1    4    4    0    0  0.29446863988E+03  0.65767827699E+02 -0.48762096728E+03  0.57342078333E+03  0.00000000000E+00 0. -1.
         21    1    1    2  502  501 -0.22411035576E+02 -0.27031778753E+02  0.63846195076E+02  0.72864999855E+02  0.00000000000E+00 0.  1.
<scales pt_clust_5="13000.00000" pt_clust_6="13000.00000" pt_clust_7="13000.00000" pt_clust_8="13000.00000" pt_clust_9="35.11370"></scales>
<clustering>
<clus scale="   35.114">  1  9  2 -1</clus>
<clus scale="   92.378">  5  6 -1 -1</clus>
<clus scale="   97.775">  7  8 -1 -1</clus>
<clus scale="  336.010">  1  5  2 -1</clus>
<clus scale="  337.534">  2  5  1 -1</clus>
</clustering>
</event>
<event>
 9    1  0.1266593E-005  0.1390112E+03  0.7546771E-02  0.1215241E+00
          1   -1    0    0  502    0  0.00000000000E+00  0.00000000000E+00  0.43985853241E+03  0.43985853241E+03  0.00000000000E+00 0. -1.
         -1   -1    0    0    0  501 -0.00000000000E+00 -0.00000000000E+00 -0.21547080824E+03  0.21547080824E+03  0.00000000000E+00 0.  1.
         23    2    1    2    0    0 -0.68028683899E+02 -0.77684806750E+02 -0.17195955082E+03  0.22133653120E+03  0.93578533293E+02 0.  0.
         23    2    1    2    0    0  0.80669959994E+02  0.55936504330E+02  0.38254257216E+03  0.40529855324E+03  0.91058018780E+02 0.  0.
        -11    1    4    4    0    0 -0.15080057889E+02  0.15228327098E+02  0.25018232658E+02  0.32942708714E+02  0.00000000000E+00 0.  1.
         11    1    4    4    0    0  0.95750017884E+02  0.40708177232E+02  0.35752433950E+03  0.37235584453E+03  0.00000000000E+00 0. -1.
        -11    1    3    3    0    0 -0.61872992000E+02 -0.41152539476E+02 -0.16846399715E+03  0.18412473212E+03  0.00000000000E+00 0.  1.
         11    1    3    3    0    0 -0.61556918984E+01 -0.36532267274E+02 -0.34955536670E+01  0.37211799074E+02  0.00000000000E+00 0. -1.
         21    1    1    2  502  501 -0.12641276096E+02  0.21748302420E+02  0.13804702818E+02  0.28694256209E+02  0.00000000000E+00 0. -1.
<scales pt_clust_5="13000.00000" pt_clust_6="13000.00000" pt_clust_7="13000.00000" pt_clust_8="13000.00000" pt_clust_9="25.15533"></scales>
<clustering>
<clus scale="   25.155">  1  9  2 -1</clus>
<clus scale="   91.058">  5  6 -1 -1</clus>
<clus scale="   93.579">  7  8 -1 -1</clus>
<clus scale="  137.327">  1  5  2 -1</clus>
<clus scale="   25.155">  1  5  2 -1</clus>
</clustering>
</event>
<event>
 9    1  0.1266593E-005  0.2019290E+03  0.7546771E-02  0.1148201E+00
         -1   -1    0    0    0  501 -0.00000000000E+00  0.00000000000E+00  0.50110274172E+02  0.50110274172E+02  0.00000000000E+00 0.  1.
          1   -1    0    0  502    0  0.00000000000E+00 -0.00000000000E+00 -0.13408316284E+04  0.13408316284E+04  0.00000000000E+00 0. -1.
         23    2    1    2    0    0 -0.80108282417E+02  0.14144192983E+03 -0.32927520266E+03  0.37835811201E+03  0.91156707981E+02 0.  0.
         23    2    1    2    0    0  0.98249971805E+02 -0.15985772554E+03 -0.96420055656E+03  0.98658669130E+03  0.91994765098E+02 0.  0.
        -11    1    3    3    0    0 -0.44139332351E+02  0.11892548075E+02 -0.13142202805E+03  0.13914547358E+03  0.00000000000E+00 0.  1.
         11    1    3    3    0    0 -0.35968950066E+02  0.12954938176E+03 -0.19785317461E+03  0.23921263843E+03  0.00000000000E+00 0. -1.
        -13    1    4    4    0    0  0.30412163996E+02  0.28606103031E+01 -0.98890782916E+02  0.10350106162E+03  0.00000000000E+00 0.  1.
         13    1    4    4    0    0  0.67837807809E+02 -0.16271833584E+03 -0.86530977365E+03  0.88308562968E+03  0.00000000000E+00 0. -1.
         21    1    1    2  502  501 -0.18141689388E+02  0.18415795710E+02  0.27544049523E+01  0.25997099302E+02  0.00000000000E+00 0.  1.
<scales pt_clust_5="13000.00000" pt_clust_6="13000.00000" pt_clust_7="13000.00000" pt_clust_8="13000.00000" pt_clust_9="25.85077"></scales>
<clustering>
<clus scale="   25.851">  1  9  2 -1</clus>
<clus scale="   91.157">  5  6 -1 -1</clus>
<clus scale="   91.995">  7  8 -1 -1</clus>
<clus scale="  201.549">  1  5  2 -1</clus>
<clus scale="  201.929">  2  5  1 -1</clus>
</clustering>
</event>
<event>
 9    1  0.1266593E-005  0.1083517E+03  0.7546771E-02  0.1264192E+00
         -3   -1    0    0    0  501 -0.00000000000E+00  0.00000000000E+00  0.49970912594E+03  0.49970912594E+03  0.00000000000E+00 0.  1.
          3   -1    0    0  502    0  0.00000000000E+00 -0.00000000000E+00 -0.34531552498E+02  0.34531552498E+02  0.00000000000E+00 0. -1.
         23    2    1    2    0    0 -0.22561284701E+02 -0.36709750688E+02  0.16826885546E+03  0.19556421802E+03  0.89857321843E+02 0.  0.
         23    2    1    2    0    0  0.33375013019E+02  0.65840219197E+02  0.16075326644E+03  0.19902035457E+03  0.91206704276E+02 0.  0.
        -11    1    3    3    0    0 -0.36467761646E+02 -0.17365748562E+02  0.16688136180E+03  0.17169990034E+03  0.00000000000E+00 0.  1.
         11    1    3    3    0    0  0.13906476945E+02 -0.19344002126E+02  0.13874936574E+01  0.23864317671E+02  0.00000000000E+00 0. -1.
        -13    1    4    4    0    0 -0.14020494464E+02  0.44587412192E+02  0.23598454681E+02  0.52359322516E+02  0.00000000000E+00 0.  1.
         13    1    4    4    0    0  0.47395507483E+02  0.21252807006E+02  0.13715481176E+03  0.14666103206E+03  0.00000000000E+00 0. -1.
         21    1    1    2  502  501 -0.10813728318E+02 -0.29130468509E+02  0.13615545154E+03  0.13965610585E+03  0.00000000000E+00 0. -1.
<scales pt_clust_5="13000.00000" pt_clust_6="13000.00000" pt_clust_7="13000.00000" pt_clust_8="13000.00000" pt_clust_9="31.07283"></scales>
<clustering>
<clus scale="   31.073">  1  9  2 -1</clus>
<clus scale="   89.857">  5  6 -1 -1</clus>
<clus scale="   91.207">  7  8 -1 -1</clus>
<clus scale="  107.218">  1  5  2 -1</clus>
<clus scale="  108.352">  2  5  1 -1</clus>
</clustering>
</event>
<event>
 9    1  0.1266593E-005  0.9658062E+02  0.7546771E-02  0.1289031E+00
          1   -1    0    0  502    0  0.00000000000E+00  0.00000000000E+00  0.56770374631E+03  0.56770374631E+03  0.00000000000E+00 0. -1.
         -1   -1    0    0    0  501 -0.00000000000E+00 -0.00000000000E+00 -0.30039583731E+02  0.30039583731E+02  0.00000000000E+00 0.  1.
         23    2    1    2    0    0 -0.27279927322E+02  0.23797732039E+02  0.26256753698E+03  0.28003795451E+03  0.90382620029E+02 0.  0.
         23    2    1    2    0    0  0.50354204330E+01 -0.18740647965E+02  0.27886335521E+03  0.29458437992E+03  0.92944169630E+02 0.  0.
        -11    1    3    3    0    0 -0.39183043432E+02 -0.18982433596E+02  0.19030701205E+03  0.19522398037E+03  0.00000000000E+00 0. -1.
         11    1    3    3    0    0  0.11903116110E+02  0.42780165635E+02  0.72260524930E+02  0.84813974132E+02  0.00000000000E+00 0.  1.
        -13    1    4    4    0    0 -0.35206141172E+02 -0.36621605465E+02  0.14218018506E+03  0.15098284468E+03  0.00000000000E+00 0. -1.
         13    1    4    4    0    0  0.40241561605E+02  0.17880957500E+02  0.13668317015E+03  0.14360153525E+03  0.00000000000E+00 0.  1.
         21    1    1    2  502  501  0.22244506889E+02 -0.50570840736E+01 -0.37667296151E+01  0.23120995611E+02  0.00000000000E+00 0.  1.
<scales pt_clust_5="13000.00000" pt_clust_6="13000.00000" pt_clust_7="13000.00000" pt_clust_8="13000.00000" pt_clust_9="22.81211"></scales>
<clustering>
<clus scale="   22.812">  2  9  1 -1</clus>
<clus scale="   90.383">  5  6 -1 -1</clus>
<clus scale="   92.944">  7  8 -1 -1</clus>
<clus scale="   94.118">  2  5  1 -1</clus>
<clus scale="   96.581">  1  5  2 -1</clus>
</clustering>
</event>
<event>
 9    1  0.1266593E-005  0.1082982E+03  0.7546771E-02  0.1268246E+00
         -2   -1    0    0    0  501 -0.00000000000E+00  0.00000000000E+00  0.50625567718E+03  0.50625567718E+03  0.00000000000E+00 0.  1.
          2   -1    0    0  502    0  0.00000000000E+00 -0.00000000000E+00 -0.60773393877E+02  0.60773393877E+02  0.00000000000E+00 0. -1.
         23    2    1    2    0    0 -0.70065493503E+02 -0.58947797477E+02  0.18751613518E+03  0.22836412858E+03  0.92756983899E+02 0.  0.
         23    2    1    2    0    0 -0.15231826617E+02  0.21831626340E+02  0.64277108035E+02  0.12379594232E+03  0.10239755986E+03 0.  0.
        -13    1    4    4    0    0  0.29674988691E+02 -0.26021885841E+02  0.17317679983E+02  0.43100412255E+02  0.00000000000E+00 0.  1.
         13    1    4    4    0    0 -0.44906815308E+02  0.47853512181E+02  0.46959428051E+02  0.80695530062E+02  0.00000000000E+00 0. -1.
        -13    1    3    3    0    0  0.36371301938E+01 -0.56071284645E+02  0.72414896768E+02  0.91657705359E+02  0.00000000000E+00 0.  1.
         13    1    3    3    0    0 -0.73702623696E+02 -0.28765128315E+01  0.11510123841E+03  0.13670642322E+03  0.00000000000E+00 0. -1.
         21    1    1    2  502  501  0.85297320120E+02  0.37116171137E+02  0.19368904010E+03  0.21486900017E+03  0.00000000000E+00 0. -1.
<scales pt_clust_5="13000.00000" pt_clust_6="13000.00000" pt_clust_7="13000.00000" pt_clust_8="13000.00000" pt_clust_9="93.02281"></scales>
<clustering>
<clus scale="   92.757">  7  8 -1 -1</clus>
<clus scale="   93.023">  1  9  2 -1</clus>
<clus scale="   99.233">  1  7  2 -1</clus>
<clus scale="  102.398">  5  6 -1 -1</clus>
<clus scale="  108.298">  2  5  1 -1</clus>
</clustering>
</event>
<event>
 9    1  0.1266593E-005  0.1066234E+03  0.7546771E-02  0.1267239E+00
          1   -1    0    0  502    0  0.00000000000E+00  0.00000000000E+00  0.83161840550E+03  0.83161840550E+03  0.00000000000E+00 0. -1.
         -1   -1    0    0    0  501 -0.00000000000E+00 -0.00000000000E+00 -0.21085931566E+02  0.21085931566E+02  0.00000000000E+00 0.  1.
         23    2    1    2    0    0 -0.38529657028E+02  0.28672681981E+02  0.36113132036E+03  0.37544080798E+03  0.90737602924E+02 0.  0.
         23    2    1    2    0    0  0.37777502973E+02 -0.49723500963E+02  0.44083198277E+03  0.45452296173E+03  0.91426032550E+02 0.  0.
        -11    1    3    3    0    0  0.20700222223E+02  0.27306644067E+02  0.65396310719E+02  0.73829732940E+02  0.00000000000E+00 0.  1.
         11    1    3    3    0    0 -0.59229879251E+02  0.13660379135E+01  0.29573500964E+03  0.30161107504E+03  0.00000000000E+00 0. -1.
        -11    1    4    4    0    0  0.33293228382E+02  0.12284929461E+02  0.69640795752E+02  0.78161365014E+02  0.00000000000E+00 0.  1.
         11    1    4    4    0    0  0.44842745906E+01 -0.62008430424E+02  0.37119118702E+03  0.37636159672E+03  0.00000000000E+00 0. -1.
         21    1    1    2  502  501  0.75215405498E+00  0.21050818983E+02  0.85691707976E+01  0.22740567357E+02  0.00000000000E+00 0.  1.
<scales pt_clust_5="13000.00000" pt_clust_6="13000.00000" pt_clust_7="13000.00000" pt_clust_8="13000.00000" pt_clust_9="21.06425"></scales>
<clustering>
<clus scale="   21.064">  2  9  1 -1</clus>
<clus scale="   90.738">  5  6 -1 -1</clus>
<clus scale="   91.426">  7  8 -1 -1</clus>
<clus scale="  106.034">  2  5  1 -1</clus>
<clus scale="  106.623">  1  5  2 -1</clus>
</clustering>
</event>
<event>
 9    1  0.1266593E-005  0.1020442E+03  0.7546771E-02  0.1276437E+00
          1   -1    0    0  502    0  0.00000000000E+00  0.00000000000E+00  0.19557079619E+03  0.19557079619E+03  0.00000000000E+00 0. -1.
         -1   -1    0    0    0  501 -0.00000000000E+00 -0.00000000000E+00 -0.69345785055E+02  0.69345785055E+02  0.00000000000E+00 0.  1.
         23    2    1    2    0    0 -0.20647894431E+02  0.58276834161E+02  0.54691103277E+02  0.12123488952E+03  0.88793337104E+02 0.  0.
         23    2    1    2    0    0  0.19682574046E+02 -0.37248972053E+02  0.74108045715E+02  0.12247487646E+03  0.87938633627E+02 0.  0.
        -11    1    3    3    0    0 -0.27668313461E+02  0.80201435797E+02  0.38998327117E+02  0.93373847471E+02  0.00000000000E+00 0.  1.
         11    1    3    3    0    0  0.70204190301E+01 -0.21924601635E+02  0.15692776161E+02  0.27861042045E+02  0.00000000000E+00 0. -1.
        -11    1    4    4    0    0  0.35690785110E+02 -0.26002559238E+01 -0.35330364626E+01  0.35959363444E+02  0.00000000000E+00 0.  1.
         11    1    4    4    0    0 -0.16008211063E+02 -0.34648716129E+02  0.77641082177E+02  0.86515513016E+02  0.00000000000E+00 0. -1.
         21    1    1    2  502  501  0.96532038436E+00 -0.21027862109E+02 -0.25741378538E+01  0.21206815272E+02  0.00000000000E+00 0. -1.
<scales pt_clust_5="13000.00000" pt_clust_6="13000.00000" pt_clust_7="13000.00000" pt_clust_8="13000.00000" pt_clust_9="21.05001"></scales>
<clustering>
<clus scale="   21.050">  2  9  1 -1</clus>
<clus scale="   87.939">  7  8 -1 -1</clus>
<clus scale="   88.793">  5  6 -1 -1</clus>
<clus scale="  101.301">  1  7  2 -1</clus>
<clus scale="  101.301">  1  5  2 -1</clus>
</clustering>
</event>
<event>
 9    1  0.1266593E-005  0.1001567E+03  0.7546771E-02  0.1280292E+00
          1   -1    0    0  502    0  0.00000000000E+00  0.00000000000E+00  0.33358587070E+03  0.33358587070E+03  0.00000000000E+00 0. -1.
         -1   -1    0    0    0  501 -0.00000000000E+00 -0.00000000000E+00 -0.15249119939E+03  0.15249119939E+03  0.00000000000E+00 0.  1.
         23    2    1    2    0    0 -0.30264619153E+02 -0.71412723047E+01 -0.83514701324E+02  0.12780492339E+03  0.91610305982E+02 0.  0.
         23    2    1    2    0    0  0.89245981481E+02  0.77273544284E+02  0.16812623125E+03  0.22520700008E+03  0.92280644755E+02 0.  0.
        -11    1    4    4    0    0  0.49077554095E+02  0.12816640109E+02  0.12810198149E+02  0.52316094619E+02  0.00000000000E+00 0. -1.
         11    1    4    4    0    0  0.40168427386E+02  0.64456904175E+02  0.15531603310E+03  0.17289090547E+03  0.00000000000E+00 0.  1.
        -11    1    3    3    0    0 -0.17720652910E+02 -0.40451312813E+02 -0.87798178934E+01  0.45026830336E+02  0.00000000000E+00 0. -1.
         11    1    3    3    0    0 -0.12543966243E+02  0.33310040508E+02 -0.74734883430E+02  0.82778093051E+02  0.00000000000E+00 0.  1.
         21    1    1    2  502  501 -0.58981362328E+02 -0.70132271979E+02  0.96483141377E+02  0.13306514662E+03  0.00000000000E+00 0. -1.
<scales pt_clust_5="13000.00000" pt_clust_6="13000.00000" pt_clust_7="13000.00000" pt_clust_8="13000.00000" pt_clust_9="91.63698"></scales>
<clustering>
<clus scale="   91.610">  7  8 -1 -1</clus>
<clus scale="   91.637">  1  9  2 -1</clus>
<clus scale="   92.281">  5  6 -1 -1</clus>
<clus scale="   99.539">  2  7  1 -1</clus>
<clus scale="   91.637">  1  5  2 -1</clus>
</clustering>
</event>
<event>
 9    1  0.1266593E-005  0.1446551E+03  0.7546771E-02  0.1209620E+00
         -2   -1    0    0    0  501 -0.00000000000E+00  0.00000000000E+00  0.59537610596E+03  0.59537610596E+03  0.00000000000E+00 0.  1.
          2   -1    0    0  502    0  0.00000000000E+00 -0.00000000000E+00 -0.53134742147E+02  0.53134742147E+02  0.00000000000E+00 0. -1.
         23    2    1    2    0    0  0.72708260295E+02 -0.46896197879E+02  0.36767669800E+03  0.38836855157E+03  0.90322937850E+02 0.  0.
         23    2    1    2    0    0 -0.10711547681E+03  0.30666192924E+02  0.11456688524E+03  0.18910003248E+03  0.10108961535E+03 0.  0.
        -11    1    4    4    0    0 -0.25691931399E+02 -0.35135568926E+02  0.49152867171E+02  0.65655067542E+02  0.00000000000E+00 0.  1.
         11    1    4    4    0    0 -0.81423545408E+02  0.65801761850E+02  0.65414018067E+02  0.12344496494E+03  0.00000000000E+00 0. -1.
        -11    1    3    3    0    0  0.69666870217E+02 -0.21231027304E+02  0.34890698304E+03  0.35642714844E+03  0.00000000000E+00 0.  1.
         11    1    3    3    0    0  0.30413900783E+01 -0.25665170575E+02  0.18769714957E+02  0.31941403129E+02  0.00000000000E+00 0. -1.
         21    1    1    2  502  501  0.34407216512E+02  0.16230004955E+02  0.59997780575E+02  0.71042264060E+02  0.00000000000E+00 0.  1.
<scales pt_clust_5="13000.00000" pt_clust_6="13000.00000" pt_clust_7="13000.00000" pt_clust_8="13000.00000" pt_clust_9="38.04300"></scales>
<clustering>
<clus scale="   38.043">  1  9  2 -1</clus>
<clus scale="   90.323">  7  8 -1 -1</clus>
<clus scale="  101.090">  5  6 -1 -1</clus>
<clus scale="  137.347">  1  7  2 -1</clus>
<clus scale="  144.655">  2  5  1 -1</clus>
</clustering>
</event>
<event>
 9    1  0.1266593E-005  0.1023160E+03  0.7546771E-02  0.1276105E+00
          2   -1    0    0  502    0  0.00000000000E+00  0.00000000000E+00  0.24499079158E+03  0.24499079158E+03  0.00000000000E+00 0. -1.
         -2   -1    0    0    0  501 -0.00000000000E+00 -0.00000000000E+00 -0.27213141949E+03  0.27213141949E+03  0.00000000000E+00 0.  1.
         23    2    1    2    0    0  0.92930894884E+01 -0.16972335816E+02 -0.14599080302E+03  0.17368424271E+03  0.92078661510E+02 0.  0.
         23    2    1    2    0    0  0.41089975207E+02 -0.27221066405E+02  0.20780804519E+03  0.23206017588E+03  0.90765461858E+02 0.  0.
        -11    1    3    3    0    0 -0.21268555481E+02  0.21586581825E+02 -0.15112676347E+02  0.33863327561E+02  0.00000000000E+00 0. -1.
         11    1    3    3    0    0  0.30561644969E+02 -0.38558917641E+02 -0.13087812667E+03  0.13982091515E+03  0.00000000000E+00 0.  1.
        -13    1    4    4    0    0 -0.25261071292E+02 -0.64469956717E+01  0.10328809971E+03  0.10652754113E+03  0.00000000000E+00 0.  1.
         13    1    4    4    0    0  0.66351046499E+02 -0.20774070733E+02  0.10451994547E+03  0.12553263475E+03  0.00000000000E+00 0. -1.
         21    1    1    2  502  501 -0.50383064696E+02  0.44193402221E+02 -0.88957870075E+02  0.11137779247E+03  0.00000000000E+00 0. -1.
<scales pt_clust_5="13000.00000" pt_clust_6="13000.00000" pt_clust_7="13000.00000" pt_clust_8="13000.00000" pt_clust_9="67.01873"></scales>
<clustering>
<clus scale="   67.019">  2  9  1 -1</clus>
<clus scale="   90.765">  7  8 -1 -1</clus>
<clus scale="   92.079">  5  6 -1 -1</clus>
<clus scale="  101.136">  1  7  2 -1</clus>
<clus scale="  101.136">  1  5  2 -1</clus>
</clustering>
</event>
<event>
 9    1  0.1266593E-005  0.1254902E+03  0.7546771E-02  0.1234722E+00
          2   -1    0    0  502    0  0.00000000000E+00  0.00000000000E+00  0.82598041709E+03  0.82598041709E+03  0.00000000000E+00 0. -1.
         -2   -1    0    0    0  501 -0.00000000000E+00 -0.00000000000E+00 -0.39478990404E+02  0.39478990404E+02  0.00000000000E+00 0.  1.
         23    2    1    2    0    0 -0.70596381933E+02 -0.46605125034E+01  0.19728778733E+03  0.22833479481E+03  0.90602085906E+02 0.  0.
         23    2    1    2    0    0  0.89988704831E+02  0.79187514088E+02  0.26804401876E+03  0.30685160237E+03  0.89116106844E+02 0.  0.
        -11    1    3    3    0    0 -0.40342518091E+02  0.19566389477E+02  0.18069310805E+03  0.18617293482E+03  0.00000000000E+00 0.  1.
         11    1    3    3    0    0 -0.30253863842E+02 -0.24226901981E+02  0.16594679281E+02  0.42161859985E+02  0.00000000000E+00 0. -1.
        -11    1    4    4    0    0 -0.17417709006E+02  0.18970388173E+02  0.56220047740E+02  0.61838062570E+02  0.00000000000E+00 0. -1.
         11    1    4    4    0    0  0.10740641384E+03  0.60217125915E+02  0.21182397102E+03  0.24501353980E+03  0.00000000000E+00 0.  1.
         21    1    1    2  502  501 -0.19392322897E+02 -0.74527001584E+02  0.32116962059E+03  0.33027301032E+03  0.00000000000E+00 0.  1.
<scales pt_clust_5="13000.00000" pt_clust_6="13000.00000" pt_clust_7="13000.00000" pt_clust_8="13000.00000" pt_clust_9="77.00868"></scales>
<clustering>
<clus scale="   77.009">  1  9  2 -1</clus>
<clus scale="   89.116">  7  8 -1 -1</clus>
<clus scale="   90.602">  5  6 -1 -1</clus>
<clus scale="  124.422">  1  7  2 -1</clus>
<clus scale="   77.009">  1  5  2 -1</clus>
</clustering>
</event>
<event>
 9    1  0.1266593E-005  0.1139099E+03  0.7546771E-02  0.1256582E+00
         -2   -1    0    0    0  501 -0.00000000000E+00  0.00000000000E+00  0.87534459476E+02  0.87534459476E+02  0.00000000000E+00 0.  1.
          2   -1    0    0  502    0  0.00000000000E+00 -0.00000000000E+00 -0.63188035463E+03  0.63188035463E+03  0.00000000000E+00 0. -1.
         23    2    1    2    0    0  0.74275417127E+02 -0.17025854000E+02 -0.11941591779E+03  0.16600606596E+03  0.86551344426E+02 0.  0.
         23    2    1    2    0    0 -0.60011668457E+02 -0.78031969353E+01 -0.47910775794E+03  0.49212932090E+03  0.94787839623E+02 0.  0.
        -11    1    3    3    0    0  0.39421733249E+02  0.96295433726E+01 -0.19669507345E+01  0.40628438969E+02  0.00000000000E+00 0.  1.
         11    1    3    3    0    0  0.34853683878E+02 -0.26655397373E+02 -0.11744896705E+03  0.12537762699E+03  0.00000000000E+00 0. -1.
        -13    1    4    4    0    0 -0.21898195458E+02 -0.48679492843E+02 -0.29255823908E+03  0.29738787339E+03  0.00000000000E+00 0.  1.
         13    1    4    4    0    0 -0.38113472999E+02  0.40876295908E+02 -0.18654951886E+03  0.19474144751E+03  0.00000000000E+00 0. -1.
         21    1    1    2  502  501 -0.14263748670E+02  0.24829050936E+02  0.54177780567E+02  0.61279427246E+02  0.00000000000E+00 0.  1.
<scales pt_clust_5="13000.00000" pt_clust_6="13000.00000" pt_clust_7="13000.00000" pt_clust_8="13000.00000" pt_clust_9="28.63453"></scales>
<clustering>
<clus scale="   28.635">  1  9  2 -1</clus>
<clus scale="   86.551">  5  6 -1 -1</clus>
<clus scale="   94.788">  7  8 -1 -1</clus>
<clus scale="  107.153">  1  5  2 -1</clus>
<clus scale="  113.910">  2  5  1 -1</clus>
</clustering>
</event>
<event>
 9    1  0.1266593E-005  0.1021013E+03  0.7546771E-02  0.1276330E+00
          2   -1    0    0  502    0  0.00000000000E+00  0.00000000000E+00  0.31784189286E+03  0.31784189286E+03  0.00000000000E+00 0. -1.
         -2   -1    0    0    0  501 -0.00000000000E+00 -0.00000000000E+00 -0.47119564202E+02  0.47119564202E+02  0.00000000000E+00 0.  1.
         23    2    1    2    0    0 -0.20933880508E+02  0.31463678113E+02  0.59032648223E+02  0.11477929929E+03  0.90891383505E+02 0.  0.
         23    2    1    2    0    0  0.42904025333E+02 -0.24591100979E+02  0.19701440522E+03  0.22288228080E+03  0.91740708484E+02 0.  0.
        -13    1    3    3    0    0  0.95206187803E+01  0.52591153643E+02  0.11788674241E+02  0.54730653786E+02  0.00000000000E+00 0.  1.
         13    1    3    3    0    0 -0.30454499288E+02 -0.21127475530E+02  0.47243973982E+02  0.60048645503E+02  0.00000000000E+00 0. -1.
        -13    1    4    4    0    0 -0.21857935810E+02  0.16618917943E+02  0.51959267949E+02  0.58768387057E+02  0.00000000000E+00 0.  1.
         13    1    4    4    0    0  0.64761961143E+02 -0.41210018923E+02  0.14505513727E+03  0.16411389374E+03  0.00000000000E+00 0. -1.
         21    1    1    2  502  501 -0.21970144825E+02 -0.68725771340E+01  0.14675275214E+02  0.27299876972E+02  0.00000000000E+00 0. -1.
<scales pt_clust_5="13000.00000" pt_clust_6="13000.00000" pt_clust_7="13000.00000" pt_clust_8="13000.00000" pt_clust_9="23.01998"></scales>
<clustering>
<clus scale="   23.020">  2  9  1 -1</clus>
<clus scale="   90.891">  5  6 -1 -1</clus>
<clus scale="   91.741">  7  8 -1 -1</clus>
<clus scale="  101.339">  2  5  1 -1</clus>
<clus scale="  102.101">  1  5  2 -1</clus>
</clustering>
</event>
<event>
 9    1  0.1266593E-005  0.3111418E+03  0.7546771E-02  0.1079824E+00
          2   -1    0    0  502    0  0.00000000000E+00  0.00000000000E+00  0.68850710747E+03  0.68850710747E+03  0.00000000000E+00 0. -1.
         -2   -1    0    0    0  501 -0.00000000000E+00 -0.00000000000E+00 -0.34026959924E+03  0.34026959924E+03  0.00000000000E+00 0.  1.
         23    2    1    2    0    0 -0.55902053345E+02 -0.29343493285E+03 -0.19398896513E+03  0.36737028688E+03  0.90000609465E+02 0.  0.
         23    2    1    2    0    0  0.27051246531E+01  0.29469208637E+03  0.51824858683E+03  0.60304176701E+03  0.90702985246E+02 0.  0.
        -13    1    3    3    0    0  0.15759596686E+02 -0.13214020023E+03 -0.61069937041E+02  0.14642040368E+03  0.00000000000E+00 0. -1.
         13    1    3    3    0    0 -0.71661650031E+02 -0.16129473262E+03 -0.13291902809E+03  0.22094988320E+03  0.00000000000E+00 0.  1.
        -13    1    4    4    0    0  0.35037033528E+02  0.53526690250E+02  0.88698733488E+02  0.10936254208E+03  0.00000000000E+00 0.  1.
         13    1    4    4    0    0 -0.32331908875E+02  0.24116539612E+03  0.42954985335E+03  0.49367922493E+03  0.00000000000E+00 0. -1.
         21    1    1    2  502  501  0.53196928692E+02 -0.12571535146E+01  0.23977886528E+02  0.58364652826E+02  0.00000000000E+00 0. -1.
<scales pt_clust_5="13000.00000" pt_clust_6="13000.00000" pt_clust_7="13000.00000" pt_clust_8="13000.00000" pt_clust_9="53.21178"></scales>
<clustering>
<clus scale="   53.212">  1  9  2 -1</clus>
<clus scale="   90.001">  5  6 -1 -1</clus>
<clus scale="   90.703">  7  8 -1 -1</clus>
<clus scale="  310.938">  2  5  1 -1</clus>
<clus scale="   53.212">  1  5  2 -1</clus>
</clustering>
</event>
<event>
 9    1  0.1266593E-005  0.9701937E+02  0.7546771E-02  0.1287652E+00
          1   -1    0    0  502    0  0.00000000000E+00  0.00000000000E+00  0.12385569693E+03  0.12385569693E+03  0.00000000000E+00 0. -1.
         -1   -1    0    0    0  501 -0.00000000000E+00 -0.00000000000E+00 -0.14318548152E+03  0.14318548152E+03  0.00000000000E+00 0.  1.
         23    2    1    2    0    0  0.19022424184E+02 -0.18214602023E+02 -0.26990133106E+02  0.98623211861E+02  0.91128734678E+02 0.  0.
         23    2    1    2    0    0 -0.31455478577E+02 -0.30073507640E+01  0.56836085485E+02  0.11343428511E+03  0.92943558868E+02 0.  0.
        -11    1    4    4    0    0 -0.55869159304E+02 -0.27958191263E+02  0.43208569752E+02  0.75960541863E+02  0.00000000000E+00 0.  1.
         11    1    4    4    0    0  0.24413680727E+02  0.24950840499E+02  0.13627515734E+02  0.37473743252E+02  0.00000000000E+00 0. -1.
        -13    1    3    3    0    0  0.52890799482E+02 -0.61402860556E+01 -0.32299866092E+02  0.62276971123E+02  0.00000000000E+00 0. -1.
         13    1    3    3    0    0 -0.33868375298E+02 -0.12074315967E+02  0.53097329859E+01  0.36346240738E+02  0.00000000000E+00 0.  1.
         21    1    1    2  502  501  0.12433054393E+02  0.21221952787E+02 -0.49175736967E+02  0.54983681469E+02  0.00000000000E+00 0.  1.
<scales pt_clust_5="13000.00000" pt_clust_6="13000.00000" pt_clust_7="13000.00000" pt_clust_8="13000.00000" pt_clust_9="24.59577"></scales>
<clustering>
<clus scale="   24.596">  2  9  1 -1</clus>
<clus scale="   91.129">  7  8 -1 -1</clus>
<clus scale="   92.944">  5  6 -1 -1</clus>
<clus scale="   95.282">  2  7  1 -1</clus>
<clus scale="   97.019">  1  5  2 -1</clus>
</clustering>
</event>
<event>
 9    1  0.1266593E-005  0.1489551E+03  0.7546771E-02  0.1202028E+00
          3   -1    0    0  502    0  0.00000000000E+00  0.00000000000E+00  0.60500920068E+02  0.60500920068E+02  0.00000000000E+00 0. -1.
         -3   -1    0    0    0  501 -0.00000000000E+00 -0.00000000000E+00 -0.58813469439E+03  0.58813469439E+03  0.00000000000E+00 0.  1.
         23    2    1    2    0    0 -0.13187428211E+03 -0.10841996694E+02 -0.29225239060E+03  0.33322224897E+03  0.90095683694E+02 0.  0.
         23    2    1    2    0    0  0.11098628298E+03 -0.14401072650E+02 -0.99130514915E+02  0.17527835806E+03  0.91489332236E+02 0.  0.
        -13    1    4    4    0    0  0.76258423012E+02  0.32423337648E+02 -0.76388656067E+02  0.11270246972E+03  0.00000000000E+00 0.  1.
         13    1    4    4    0    0  0.34727859965E+02 -0.46824410299E+02 -0.22741858848E+02  0.62575888339E+02  0.00000000000E+00 0. -1.
        -13    1    3    3    0    0 -0.10521714142E+02  0.27670637502E+02 -0.32601012842E+02  0.44036311001E+02  0.00000000000E+00 0.  1.
         13    1    3    3    0    0 -0.12135256797E+03 -0.38512634196E+02 -0.25965137776E+03  0.28918593797E+03  0.00000000000E+00 0. -1.
         21    1    1    2  502  501  0.20887999136E+02  0.25243069345E+02 -0.13625086880E+03  0.14013500743E+03  0.00000000000E+00 0.  1.
<scales pt_clust_5="13000.00000" pt_clust_6="13000.00000" pt_clust_7="13000.00000" pt_clust_8="13000.00000" pt_clust_9="32.76463"></scales>
<clustering>
<clus scale="   32.765">  2  9  1 -1</clus>
<clus scale="   90.096">  7  8 -1 -1</clus>
<clus scale="   91.489">  5  6 -1 -1</clus>
<clus scale="  148.103">  2  7  1 -1</clus>
<clus scale="  148.955">  1  5  2 -1</clus>
</clustering>
</event>
<event>
 9    1  0.1266593E-005  0.1093710E+03  0.7546771E-02  0.1265114E+00
         -2   -1    0    0    0  501 -0.00000000000E+00  0.00000000000E+00  0.75448419863E+02  0.75448419863E+02  0.00000000000E+00 0.  1.
          2   -1    0    0  502    0  0.00000000000E+00 -0.00000000000E+00 -0.59434183268E+03  0.59434183268E+03  0.00000000000E+00 0. -1.
         23    2    1    2    0    0 -0.12485708647E+02 -0.67468709158E+02 -0.10093825322E+03  0.15239117539E+03  0.91250313632E+02 0.  0.
         23    2    1    2    0    0  0.55316748098E+02  0.30522545541E+02 -0.44333913001E+03  0.45540018280E+03  0.82753694076E+02 0.  0.
        -13    1    4    4    0    0 -0.20952644332E+02  0.94465559548E+01 -0.67003868494E+02  0.70836213317E+02  0.00000000000E+00 0.  1.
         13    1    4    4    0    0  0.76269392431E+02  0.21075989586E+02 -0.37633526152E+03  0.38456396948E+03  0.00000000000E+00 0. -1.
        -13    1    3    3    0    0 -0.52232507986E+02 -0.35932848051E+02 -0.54260738935E+02  0.83448380747E+02  0.00000000000E+00 0.  1.
         13    1    3    3    0    0  0.39746799339E+02 -0.31535861106E+02 -0.46677514288E+02  0.68942794645E+02  0.00000000000E+00 0. -1.
         21    1    1    2  502  501 -0.42831039452E+02  0.36946163617E+02  0.25383970422E+02  0.61998894352E+02  0.00000000000E+00 0.  1.
<scales pt_clust_5="13000.00000" pt_clust_6="13000.00000" pt_clust_7="13000.00000" pt_clust_8="13000.00000" pt_clust_9="56.56427"></scales>
<clustering>
<clus scale="   56.564">  1  9  2 -1</clus>
<clus scale="   82.754">  5  6 -1 -1</clus>
<clus scale="   91.250">  7  8 -1 -1</clus>
<clus scale="  102.389">  2  5  1 -1</clus>
<clus scale="  102.389">  2  5  1 -1</clus>
</clustering>
</event>
<event>
 9    1  0.1266593E-005  0.9369235E+02  0.7546771E-02  0.1294257E+00
         -1   -1    0    0    0  501 -0.00000000000E+00  0.00000000000E+00  0.14231716228E+03  0.14231716228E+03  0.00000000000E+00 0.  1.
          1   -1    0    0  502    0  0.00000000000E+00 -0.00000000000E+00 -0.34453200135E+03  0.34453200135E+03  0.00000000000E+00 0. -1.
         23    2    1    2    0    0  0.33302225973E+02  0.64048436470E+02  0.71653353228E+02  0.13770003928E+03  0.92821642521E+02 0.  0.
         23    2    1    2    0    0  0.60818138525E+01 -0.83685163492E+01 -0.26433338077E+03  0.28028499197E+03  0.92631096356E+02 0.  0.
        -11    1    4    4    0    0  0.35018579892E+02  0.25600011164E+02 -0.84323439285E+02  0.94826704688E+02  0.00000000000E+00 0.  1.
         11    1    4    4    0    0 -0.28936766040E+02 -0.33968527513E+02 -0.18000994148E+03  0.18545828728E+03  0.00000000000E+00 0. -1.
        -13    1    3    3    0    0  0.67904455201E+01  0.34288045539E+02  0.87949251949E+02  0.94640642093E+02  0.00000000000E+00 0. -1.
         13    1    3    3    0    0  0.26511780453E+02  0.29760390931E+02 -0.16295898721E+02  0.43059397189E+02  0.00000000000E+00 0.  1.
         21    1    1    2  502  501 -0.39384039826E+02 -0.55679920121E+02 -0.95348115265E+01  0.68864132380E+02  0.00000000000E+00 0. -1.
<scales pt_clust_5="13000.00000" pt_clust_6="13000.00000" pt_clust_7="13000.00000" pt_clust_8="13000.00000" pt_clust_9="68.20085"></scales>
<clustering>
<clus scale="   68.201">  1  9  2 -1</clus>
<clus scale="   92.631">  5  6 -1 -1</clus>
<clus scale="   92.822">  7  8 -1 -1</clus>
<clus scale="   93.504">  2  5  1 -1</clus>
<clus scale="   93.504">  2  5  1 -1</clus>
</clustering>
</event>
<event>
 9    1  0.1266593E-005  0.1318945E+03  0.7546771E-02  0.1224801E+00
         -1   -1    0    0    0  501 -0.00000000000E+00  0.00000000000E+00  0.97783154532E+02  0.97783154532E+02  0.00000000000E+00 0.  1.
          1   -1    0    0  502    0  0.00000000000E+00 -0.00000000000E+00 -0.40250145404E+03  0.40250145404E+03  0.00000000000E+00 0. -1.
         23    2    1    2    0    0 -0.58220635830E+02  0.24401796391E+02 -0.36110474826E+02  0.11728332465E+03  0.92012617318E+02 0.  0.
         23    2    1    2    0    0  0.10803439525E+03  0.51485690681E+02 -0.24759547844E+03  0.28982489197E+03  0.91502678443E+02 0.  0.
        -11    1    4    4    0    0  0.42358414596E+02  0.56455079197E+02 -0.65907365737E+02  0.96567034295E+02  0.00000000000E+00 0. -1.
         11    1    4    4    0    0  0.65675980652E+02 -0.49693885164E+01 -0.18168811270E+03  0.19325785768E+03  0.00000000000E+00 0.  1.
        -13    1    3    3    0    0 -0.35281101159E+02 -0.26967324471E+02  0.88327758136E+01  0.45277042932E+02  0.00000000000E+00 0.  1.
         13    1    3    3    0    0 -0.22939534671E+02  0.51369120862E+02 -0.44943250640E+02  0.72006281720E+02  0.00000000000E+00 0. -1.
         21    1    1    2  502  501 -0.49813759418E+02 -0.75887487072E+02 -0.21012346240E+02  0.93176391945E+02  0.00000000000E+00 0.  1.
<scales pt_clust_5="13000.00000" pt_clust_6="13000.00000" pt_clust_7="13000.00000" pt_clust_8="13000.00000" pt_clust_9="90.77622"></scales>
<clustering>
<clus scale="   90.776">  1  9  2 -1</clus>
<clus scale="   91.503">  5  6 -1 -1</clus>
<clus scale="   92.013">  7  8 -1 -1</clus>
<clus scale="  131.539">  2  5  1 -1</clus>
<clus scale="  131.539">  2  5  1 -1</clus>
</clustering>
</event>
<event>
 9    1  0.1266593E-005  0.1268357E+03  0.7546771E-02  0.1232804E+00
          1   -1    0    0  502    0  0.00000000000E+00  0.00000000000E+00  0.14538293366E+03  0.14538293366E+03  0.00000000000E+00 0. -1.
         -1   -1    0    0    0  501 -0.00000000000E+00 -0.00000000000E+00 -0.13848308421E+03  0.13848308421E+03  0.00000000000E+00 0.  1.
         23    2    1    2    0    0 -0.39842554059E+02 -0.65585853071E+02 -0.28836072704E+02  0.12120836092E+03  0.89280537812E+02 0.  0.
         23    2    1    2    0    0  0.58697126822E+02  0.75025306683E+02  0.45239502391E+02  0.13952940073E+03  0.91365703359E+02 0.  0.
        -13    1    4    4    0    0  0.70471878215E+02  0.25751475547E+02  0.56644436892E+01  0.75243006548E+02  0.00000000000E+00 0.  1.
         13    1    4    4    0    0 -0.11774751393E+02  0.49273831136E+02  0.39575058702E+02  0.64286394178E+02  0.00000000000E+00 0. -1.
        -13    1    3    3    0    0 -0.54469541467E+02 -0.21444748214E+02  0.11491202311E+02  0.59656147245E+02  0.00000000000E+00 0. -1.
         13    1    3    3    0    0  0.14626987408E+02 -0.44141104857E+02 -0.40327275015E+02  0.61552213679E+02  0.00000000000E+00 0.  1.
         21    1    1    2  502  501 -0.18854572764E+02 -0.94394536122E+01 -0.95035802391E+01  0.23128256224E+02  0.00000000000E+00 0. -1.
<scales pt_clust_5="13000.00000" pt_clust_6="13000.00000" pt_clust_7="13000.00000" pt_clust_8="13000.00000" pt_clust_9="21.08550"></scales>
<clustering>
<clus scale="   21.085">  2  9  1 -1</clus>
<clus scale="   89.281">  7  8 -1 -1</clus>
<clus scale="   91.366">  5  6 -1 -1</clus>
<clus scale="  125.342">  2  7  1 -1</clus>
<clus scale="  126.836">  1  5  2 -1</clus>
</clustering>
</event>
<event>
 9    1  0.1266593E-005  0.1263384E+03  0.7546771E-02  0.1234213E+00
         -1   -1    0    0    0  501 -0.00000000000E+00  0.00000000000E+00  0.10640816650E+03  0.10640816650E+03  0.00000000000E+00 0.  1.
          1   -1    0    0  502    0  0.00000000000E+00 -0.00000000000E+00 -0.68603173815E+03  0.68603173815E+03  0.00000000000E+00 0. -1.
         23    2    1    2    0    0 -0.10567334992E+03 -0.58947622045E+01 -0.63099440639E+02  0.15333725938E+03  0.91264289841E+02 0.  0.
         23    2    1    2    0    0  0.79366354518E+02 -0.21684193719E+01 -0.56763689072E+03  0.58105450051E+03  0.95440937649E+02 0.  0.
        -11    1    3    3    0    0 -0.80233621277E+02 -0.58085358994E+01  0.50423701782E+01  0.80601479947E+02  0.00000000000E+00 0.  1.
         11    1    3    3    0    0 -0.25439728648E+02 -0.86226305135E-01 -0.68141810817E+02  0.72735779436E+02  0.00000000000E+00 0. -1.
        -13    1    4    4    0    0 -0.22228955215E+02 -0.28554208579E+01 -0.92419471415E+02  0.95098047167E+02  0.00000000000E+00 0.  1.
         13    1    4    4    0    0  0.10159530973E+03  0.68700148597E+00 -0.47521741930E+03  0.48595645334E+03  0.00000000000E+00 0. -1.
         21    1    1    2  502  501  0.26306995407E+02  0.80631815764E+01  0.51112759710E+02  0.58048144756E+02  0.00000000000E+00 0.  1.
<scales pt_clust_5="13000.00000" pt_clust_6="13000.00000" pt_clust_7="13000.00000" pt_clust_8="13000.00000" pt_clust_9="27.51496"></scales>
<clustering>
<clus scale="   27.515">  1  9  2 -1</clus>
<clus scale="   91.264">  5  6 -1 -1</clus>
<clus scale="   95.441">  7  8 -1 -1</clus>
<clus scale="  123.214">  1  5  2 -1</clus>
<clus scale="  126.338">  2  5  1 -1</clus>
</clustering>
</event>
<event>
 9    1  0.1266593E-005  0.1618782E+03  0.7546771E-02  0.1186647E+00
          2   -1    0    0  502    0  0.00000000000E+00  0.00000000000E+00  0.13988560771E+04  0.13988560771E+04  0.00000000000E+00 0. -1.
         -2   -1    0    0    0  501 -0.00000000000E+00 -0.00000000000E+00 -0.27252345077E+02  0.27252345077E+02  0.00000000000E+00 0.  1.
         23    2    1    2    0    0  0.33672041233E+02 -0.10640149246E+03  0.46183437061E+03  0.48389544295E+03  0.91699126918E+02 0.  0.
         23    2    1    2    0    0 -0.42605437781E+02  0.16091359082E+03  0.70242616337E+03  0.72763763997E+03  0.91354327072E+02 0.  0.
        -11    1    4    4    0    0 -0.44300349066E+02  0.37120251698E+02  0.13481917102E+03  0.14668552379E+03  0.00000000000E+00 0.  1.
         11    1    4    4    0    0  0.16949112849E+01  0.12379333912E+03  0.56760699235E+03  0.58095211618E+03  0.00000000000E+00 0. -1.
        -13    1    3    3    0    0 -0.76339216457E+01 -0.85446450389E+02  0.38274922090E+03  0.39224525331E+03  0.00000000000E+00 0.  1.
         13    1    3    3    0    0  0.41305962878E+02 -0.20955042073E+02  0.79085149709E+02  0.91650189645E+02  0.00000000000E+00 0. -1.
         21    1    1    2  502  501  0.89333965484E+01 -0.54512098353E+02  0.20734319806E+03  0.21457533927E+03  0.00000000000E+00 0. -1.
<scales pt_clust_5="13000.00000" pt_clust_6="13000.00000" pt_clust_7="13000.00000" pt_clust_8="13000.00000" pt_clust_9="55.23925"></scales>
<clustering>
<clus scale="   55.239">  1  9  2 -1</clus>
<clus scale="   91.354">  5  6 -1 -1</clus>
<clus scale="   91.699">  7  8 -1 -1</clus>
<clus scale="  161.683">  1  5  2 -1</clus>
<clus scale="   55.239">  1  5  2 -1</clus>
</clustering>
</event>
<event>
 9    1  0.1266593E-005  0.1233384E+03  0.7546771E-02  0.1238393E+00
         -3   -1    0    0    0  501 -0.00000000000E+00  0.00000000000E+00  0.59220303271E+03  0.59220303271E+03  0.00000000000E+00 0.  1.
          3   -1    0    0  502    0  0.00000000000E+00 -0.00000000000E+00 -0.70717722333E+02  0.70717722333E+02  0.00000000000E+00 0. -1.
         23    2    1    2    0    0  0.70034074249E+02 -0.34468574724E+02  0.16354932570E+03  0.20259942594E+03  0.90583062751E+02 0.  0.
         23    2    1    2    0    0 -0.32191561742E+02  0.83706152134E+02  0.38294287996E+02  0.13470313391E+03  0.92927203975E+02 0.  0.
        -11    1    4    4    0    0 -0.49757295735E+02  0.11077163917E+02  0.30913337082E+02  0.59616494771E+02  0.00000000000E+00 0. -1.
         11    1    4    4    0    0  0.17565733993E+02  0.72628988218E+02  0.73809509145E+01  0.75086639135E+02  0.00000000000E+00 0.  1.
        -11    1    3    3    0    0  0.37711189460E+02 -0.64629298309E+02  0.11190491751E+03  0.13461720014E+03  0.00000000000E+00 0.  1.
         11    1    3    3    0    0  0.32322884789E+02  0.30160723586E+02  0.51644408184E+02  0.67982225802E+02  0.00000000000E+00 0. -1.
         21    1    1    2  502  501 -0.37842512508E+02 -0.49237577411E+02  0.31964169668E+03  0.32561819519E+03  0.00000000000E+00 0.  1.
<scales pt_clust_5="13000.00000" pt_clust_6="13000.00000" pt_clust_7="13000.00000" pt_clust_8="13000.00000" pt_clust_9="62.09988"></scales>
<clustering>
<clus scale="   62.100">  1  9  2 -1</clus>
<clus scale="   90.583">  7  8 -1 -1</clus>
<clus scale="   92.927">  5  6 -1 -1</clus>
<clus scale="  121.582">  1  7  2 -1</clus>
<clus scale="  123.338">  2  5  1 -1</clus>
</clustering>
</event>
<event>
 9    1  0.1266593E-005  0.1113708E+03  0.7546771E-02  0.1260314E+00
          2   -1    0    0  502    0  0.00000000000E+00  0.00000000000E+00  0.31831151768E+03  0.31831151768E+03  0.00000000000E+00 0. -1.
         -2   -1    0    0    0  501 -0.00000000000E+00 -0.00000000000E+00 -0.53787971555E+02  0.53787971555E+02  0.00000000000E+00 0.  1.
         23    2    1    2    0    0 -0.40101679290E+02 -0.29033070183E+02  0.64197307012E+02  0.11739704526E+03  0.84910000359E+02 0.  0.
         23    2    1    2    0    0  0.54916952636E+02  0.48520527310E+02  0.19831298537E+03  0.23014014563E+03  0.90919377516E+02 0.  0.
        -11    1    3    3    0    0  0.64417850435E+01 -0.46965340609E+02  0.22926309133E+02  0.52657909791E+02  0.00000000000E+00 0.  1.
         11    1    3    3    0    0 -0.46543464334E+02  0.17932270426E+02  0.41270997879E+02  0.64739135465E+02  0.00000000000E+00 0. -1.
        -13    1    4    4    0    0  0.67190033058E+02  0.11568191124E+02  0.77566895885E+02  0.10327122990E+03  0.00000000000E+00 0.  1.
         13    1    4    4    0    0 -0.12273080422E+02  0.36952336186E+02  0.12074608949E+03  0.12686891573E+03  0.00000000000E+00 0. -1.
         21    1    1    2  502  501 -0.14815273346E+02 -0.19487457127E+02  0.20132537454E+01  0.24562298350E+02  0.00000000000E+00 0.  1.
<scales pt_clust_5="13000.00000" pt_clust_6="13000.00000" pt_clust_7="13000.00000" pt_clust_8="13000.00000" pt_clust_9="24.47965"></scales>
<clustering>
<clus scale="   24.480">  2  9  1 -1</clus>
<clus scale="   84.910">  5  6 -1 -1</clus>
<clus scale="   90.919">  7  8 -1 -1</clus>
<clus scale="  106.521">  2  5  1 -1</clus>
<clus scale="  111.371">  1  5  2 -1</clus>
</clustering>
</event>
<event>
 9    1  0.1266593E-005  0.1062967E+03  0.7546771E-02  0.1267832E+00
         -1   -1    0    0    0  501 -0.00000000000E+00  0.00000000000E+00  0.57611088276E+02  0.57611088276E+02  0.00000000000E+00 0.  1.
          1   -1    0    0  502    0  0.00000000000E+00 -0.00000000000E+00 -0.41764809469E+03  0.41764809469E+03  0.00000000000E+00 0. -1.
         23    2    1    2    0    0 -0.18127088869E+01 -0.90115298208E+02 -0.12133087612E+03  0.17687255099E+03  0.91862206101E+02 0.  0.
         23    2    1    2    0    0 -0.23075174748E+02  0.34895357595E+02 -0.20689469777E+03  0.22997160561E+03  0.91276359213E+02 0.  0.
        -13    1    3    3    0    0  0.33575110238E+02 -0.82229632296E+02 -0.65734121379E+02  0.11049875641E+03  0.00000000000E+00 0.  1.
         13    1    3    3    0    0 -0.35387819124E+02 -0.78856659117E+01 -0.55596754741E+02  0.66373794580E+02  0.00000000000E+00 0. -1.
        -13    1    4    4    0    0  0.16816631986E+02  0.52539551365E+02 -0.94702993494E+02  0.10959863387E+03  0.00000000000E+00 0. -1.
         13    1    4    4    0    0 -0.39891806734E+02 -0.17644193770E+02 -0.11219170427E+03  0.12037297174E+03  0.00000000000E+00 0.  1.
         21    1    1    2  502  501  0.24887883635E+02  0.55219940613E+02 -0.31811432529E+02  0.68415026366E+02  0.00000000000E+00 0.  1.
<scales pt_clust_5="13000.00000" pt_clust_6="13000.00000" pt_clust_7="13000.00000" pt_clust_8="13000.00000" pt_clust_9="60.56937"></scales>
<clustering>
<clus scale="   60.569">  1  9  2 -1</clus>
<clus scale="   91.276">  7  8 -1 -1</clus>
<clus scale="   91.862">  5  6 -1 -1</clus>
<clus scale="  105.791">  2  7  1 -1</clus>
<clus scale="  105.791">  2  5  1 -1</clus>
</clustering>
</event>
<event>
 9    1  0.1266593E-005  0.9641576E+02  0.7546771E-02  0.1288202E+00
         -1   -1    0    0    0  501 -0.00000000000E+00  0.00000000000E+00  0.31251414705E+02  0.31251414705E+02  0.00000000000E+00 0.  1.
          1   -1    0    0  502    0  0.00000000000E+00 -0.00000000000E+00 -0.51648430070E+03  0.51648430070E+03  0.00000000000E+00 0. -1.
         23    2    1    2    0    0 -0.51082030997E+02  0.95892027532E+01 -0.12210055806E+03  0.16088854566E+03  0.90968407416E+02 0.  0.
         23    2    1    2    0    0  0.23037396804E+02 -0.10993895226E+02 -0.33121996204E+03  0.34433983196E+03  0.90618261058E+02 0.  0.
        -11    1    4    4    0    0 -0.60061338765E+01  0.37060040015E+02 -0.11651423403E+03  0.12241358969E+03  0.00000000000E+00 0. -1.
         11    1    4    4    0    0  0.29043530680E+02 -0.48053935241E+02 -0.21470572801E+03  0.22192624227E+03  0.00000000000E+00 0.  1.
        -13    1    3    3    0    0 -0.15789949426E+02 -0.33219702756E+02 -0.13950978458E+02  0.39338288651E+02  0.00000000000E+00 0.  1.
         13    1    3    3    0    0 -0.35292081572E+02  0.42808905509E+02 -0.10814957960E+03  0.12155025701E+03  0.00000000000E+00 0. -1.
         21    1    1    2  502  501  0.28044634194E+02  0.14046924724E+01 -0.31912365902E+02  0.42507337784E+02  0.00000000000E+00 0. -1.
<scales pt_clust_5="13000.00000" pt_clust_6="13000.00000" pt_clust_7="13000.00000" pt_clust_8="13000.00000" pt_clust_9="28.07979"></scales>
<clustering>
<clus scale="   28.080">  1  9  2 -1</clus>
<clus scale="   90.618">  5  6 -1 -1</clus>
<clus scale="   90.968">  7  8 -1 -1</clus>
<clus scale="   96.085">  2  5  1 -1</clus>
<clus scale="   96.085">  2  5  1 -1</clus>
</clustering>
</event>
<event>
 9    1  0.1266593E-005  0.1416231E+03  0.7546771E-02  0.1211839E+00
         -2   -1    0    0    0  501 -0.00000000000E+00  0.00000000000E+00  0.27182732780E+03  0.27182732780E+03  0.00000000000E+00 0.  1.
          2   -1    0    0  502    0  0.00000000000E+00 -0.00000000000E+00 -0.93896214829E+02  0.93896214829E+02  0.00000000000E+00 0. -1.
         23    2    1    2    0    0  0.86428763789E+02  0.82805162380E+02  0.77021660475E+02  0.16755205816E+03  0.88400960873E+02 0.  0.
         23    2    1    2    0    0 -0.81419110732E+02 -0.56321006812E+02  0.56481994299E+02  0.14620701429E+03  0.91570453453E+02 0.  0.
        -11    1    3    3    0    0  0.41380830462E+01  0.64326511444E+02  0.33184028723E+02  0.72499679779E+02  0.00000000000E+00 0. -1.
         11    1    3    3    0    0  0.82290680743E+02  0.18478650936E+02  0.43837631753E+02  0.95052378378E+02  0.00000000000E+00 0.  1.
        -13    1    4    4    0    0 -0.65167217575E+02 -0.73576948822E+02  0.68331521560E+02  0.11970601690E+03  0.00000000000E+00 0. -1.
         13    1    4    4    0    0 -0.16251893157E+02  0.17255942011E+02 -0.11849527261E+02  0.26500997381E+02  0.00000000000E+00 0.  1.
         21    1    1    2  502  501 -0.50096530572E+01 -0.26484155568E+02  0.44427458194E+02  0.51964470184E+02  0.00000000000E+00 0. -1.
<scales pt_clust_5="13000.00000" pt_clust_6="13000.00000" pt_clust_7="13000.00000" pt_clust_8="13000.00000" pt_clust_9="26.95380"></scales>
<clustering>
<clus scale="   26.954">  1  9  2 -1</clus>
<clus scale="   88.401">  5  6 -1 -1</clus>
<clus scale="   91.570">  7  8 -1 -1</clus>
<clus scale="  139.595">  1  5  2 -1</clus>
<clus scale="  141.623">  2  5  1 -1</clus>
</clustering>
</event>
<event>
 9    1  0.1266593E-005  0.1561139E+03  0.7546771E-02  0.1213215E+00
         -1   -1    0    0    0  501 -0.00000000000E+00  0.00000000000E+00  0.21865088154E+03  0.21865088154E+03  0.00000000000E+00 0.  1.
          1   -1    0    0  502    0  0.00000000000E+00 -0.00000000000E+00 -0.28725707044E+03  0.28725707044E+03  0.00000000000E+00 0. -1.
         23    2    1    2    0    0 -0.79258464557E+02  0.81342954803E+02 -0.15181311168E+03  0.21068729013E+03  0.91887609870E+02 0.  0.
         23    2    1    2    0    0 -0.37380706618E+02 -0.26274204470E+02 -0.47306897337E+02  0.11172373882E+03  0.90313898340E+02 0.  0.
        -11    1    4    4    0    0  0.23823517101E+02 -0.31827196976E+02 -0.18207637805E+02  0.43726976900E+02  0.00000000000E+00 0.  1.
         11    1    4    4    0    0 -0.61204223719E+02  0.55529925057E+01 -0.29099259532E+02  0.67996761924E+02  0.00000000000E+00 0. -1.
        -13    1    3    3    0    0 -0.17513408291E+01  0.23847966387E+02  0.69441307910E+01  0.24900073251E+02  0.00000000000E+00 0.  1.
         13    1    3    3    0    0 -0.77507123727E+02  0.57494988417E+02 -0.15875724247E+03  0.18578721688E+03  0.00000000000E+00 0. -1.
         21    1    1    2  502  501  0.11663917117E+03 -0.55068750334E+02  0.13051382012E+03  0.18349692302E+03  0.00000000000E+00 0.  1.
<scales pt_clust_5="13000.00000" pt_clust_6="13000.00000" pt_clust_7="13000.00000" pt_clust_8="13000.00000" pt_clust_9="126.20709"></scales>
<clustering>
<clus scale="   90.314">  5  6 -1 -1</clus>
<clus scale="   91.888">  7  8 -1 -1</clus>
<clus scale="  101.214">  2  5  1 -1</clus>
<clus scale="  126.207">  1  9  2 -1</clus>
<clus scale="  101.214">  2  5  1 -1</clus>
</clustering>
</event>
<event>
 9    1  0.1266593E-005  0.2449831E+03  0.7546771E-02  0.1116543E+00
          2   -1    0    0  502    0  0.00000000000E+00  0.00000000000E+00  0.65561068470E+03  0.65561068470E+03  0.00000000000E+00 0. -1.
         -2   -1    0    0    0  501 -0.00000000000E+00 -0.00000000000E+00 -0.17405620192E+03  0.17405620192E+03  0.00000000000E+00 0.  1.
         23    2    1    2    0    0  0.91301547491E+02 -0.18764130779E+03  0.17362813280E+03  0.28623658383E+03  0.90771253481E+02 0.  0.
         23    2    1    2    0    0 -0.66251848882E+02  0.23287974295E+03  0.37694098250E+03  0.45719212726E+03  0.91202274023E+02 0.  0.
        -13    1    4    4    0    0 -0.21776842296E+02  0.33503678676E+02  0.17210853367E+02  0.43507939721E+02  0.00000000000E+00 0. -1.
         13    1    4    4    0    0 -0.44475006586E+02  0.19937606427E+03  0.35973012913E+03  0.41368418754E+03  0.00000000000E+00 0.  1.
        -13    1    3    3    0    0  0.10013186194E+02 -0.12146295102E+03  0.10573979423E+03  0.16135184056E+03  0.00000000000E+00 0.  1.
         13    1    3    3    0    0  0.81288361297E+02 -0.66178356769E+02  0.67888338565E+02  0.12488474326E+03  0.00000000000E+00 0. -1.
         21    1    1    2  502  501 -0.25049698609E+02 -0.45238435158E+02 -0.69014632523E+02  0.86238175527E+02  0.00000000000E+00 0.  1.
<scales pt_clust_5="13000.00000" pt_clust_6="13000.00000" pt_clust_7="13000.00000" pt_clust_8="13000.00000" pt_clust_9="51.71077"></scales>
<clustering>
<clus scale="   51.711">  2  9  1 -1</clus>
<clus scale="   90.771">  7  8 -1 -1</clus>
<clus scale="   91.202">  5  6 -1 -1</clus>
<clus scale="  244.823">  2  7  1 -1</clus>
<clus scale="  244.983">  1  5  2 -1</clus>
</clustering>
</event>
<event>
 9    1  0.1266593E-005  0.9478537E+02  0.7546771E-02  0.1291977E+00
          2   -1    0    0  502    0  0.00000000000E+00  0.00000000000E+00  0.59723544779E+02  0.59723544779E+02  0.00000000000E+00 0. -1.
         -2   -1    0    0    0  501 -0.00000000000E+00 -0.00000000000E+00 -0.26968227456E+03  0.26968227456E+03  0.00000000000E+00 0.  1.
         23    2    1    2    0    0 -0.27092076022E+02 -0.26185988400E+02 -0.13617125434E+03  0.16885816411E+03  0.92470441246E+02 0.  0.
         23    2    1    2    0    0  0.13145726186E+02  0.76648454840E+01 -0.11219796275E+02  0.93822488434E+02  0.91897853806E+02 0.  0.
        -13    1    3    3    0    0  0.93667384914E+01  0.28059021586E+02 -0.69309279393E+02  0.75357950426E+02  0.00000000000E+00 0. -1.
         13    1    3    3    0    0 -0.36458814513E+02 -0.54245009986E+02 -0.66861974949E+02  0.93500213679E+02  0.00000000000E+00 0.  1.
        -13    1    4    4    0    0 -0.28993719931E+02  0.32634339267E+02 -0.37794667929E+00  0.43655225787E+02  0.00000000000E+00 0. -1.
         13    1    4    4    0    0  0.42139446117E+02 -0.24969493783E+02 -0.10841849596E+02  0.50167262647E+02  0.00000000000E+00 0.  1.
         21    1    1    2  502  501  0.13946349836E+02  0.18521142916E+02 -0.62567679166E+02  0.66725166803E+02  0.00000000000E+00 0.  1.
<scales pt_clust_5="13000.00000" pt_clust_6="13000.00000" pt_clust_7="13000.00000" pt_clust_8="13000.00000" pt_clust_9="23.18477"></scales>
<clustering>
<clus scale="   23.185">  2  9  1 -1</clus>
<clus scale="   91.898">  7  8 -1 -1</clus>
<clus scale="   92.470">  5  6 -1 -1</clus>
<clus scale="   94.227">  1  7  2 -1</clus>
<clus scale="   94.227">  1  5  2 -1</clus>
</clustering>
</event>
<event>
 9    1  0.2530773E-005  0.1231789E+03  0.7546771E-02  0.1243431E+00
         -2   -1    0    0    0  501 -0.00000000000E+00  0.00000000000E+00  0.33849615742E+03  0.33849615742E+03  0.00000000000E+00 0.  1.
          2   -1    0    0  502    0  0.00000000000E+00 -0.00000000000E+00 -0.63239253622E+03  0.63239253622E+03  0.00000000000E+00 0. -1.
         23    2    1    2    0    0  0.10727809521E+02  0.36820601728E+02 -0.52697464252E+02  0.12551677848E+03  0.10726880410E+03 0.  0.
         23    2    1    2    0    0 -0.40225285115E+02  0.64701465687E+02 -0.52713777897E+03  0.54051479220E+03  0.92074151358E+02 0.  0.
        -13    1    4    4    0    0  0.25622892843E+02  0.11314458101E+02 -0.66766501195E+02  0.72403834715E+02  0.00000000000E+00 0.  1.
         13    1    4    4    0    0 -0.65848177958E+02  0.53387007586E+02 -0.46037127777E+03  0.46811095748E+03  0.00000000000E+00 0. -1.
        -13    1    3    3    0    0  0.26028183423E+02  0.70464178063E+02 -0.45621413897E+02  0.87886177118E+02  0.00000000000E+00 0. -1.
         13    1    3    3    0    0 -0.15300373902E+02 -0.33643576335E+02 -0.70760503553E+01  0.37630601361E+02  0.00000000000E+00 0.  1.
         21    1    1    2  502  501  0.29497475594E+02 -0.10152206741E+03  0.28593886441E+03  0.30485712296E+03  0.00000000000E+00 0.  1.
<scales pt_clust_5="13000.00000" pt_clust_6="13000.00000" pt_clust_7="13000.00000" pt_clust_8="13000.00000" pt_clust_9="105.72053"></scales>
<clustering>
<clus scale="   92.074">  5  6 -1 -1</clus>
<clus scale="  105.721">  1  9  2 -1</clus>
<clus scale="  107.269">  7  8 -1 -1</clus>
<clus scale="  110.200">  2  5  1 -1</clus>
<clus scale="  110.200">  2  5  1 -1</clus>
</clustering>
</event>
<event>
 9    1  0.1266593E-005  0.1127275E+03  0.7546771E-02  0.1256060E+00
          2   -1    0    0  502    0  0.00000000000E+00  0.00000000000E+00  0.10515101982E+03  0.10515101982E+03  0.00000000000E+00 0. -1.
         -2   -1    0    0    0  501 -0.00000000000E+00 -0.00000000000E+00 -0.20090537670E+03  0.20090537670E+03  0.00000000000E+00 0.  1.
         23    2    1    2    0    0 -0.81661875920E+01  0.51928827874E+02 -0.68822195003E+02  0.12564771941E+03  0.91036064739E+02 0.  0.
         23    2    1    2    0    0  0.35679916508E+02 -0.65156799373E+02  0.25923404033E+02  0.11937020272E+03  0.89770582450E+02 0.  0.
        -11    1    3    3    0    0  0.32007810099E+02  0.22208290828E+02  0.19548529603E+01  0.39006788370E+02  0.00000000000E+00 0.  1.
         11    1    3    3    0    0 -0.40173997691E+02  0.29720537046E+02 -0.70777047963E+02  0.86640931038E+02  0.00000000000E+00 0. -1.
        -11    1    4    4    0    0  0.43030092133E+02 -0.84723046406E+02  0.25816533495E+02  0.98468659090E+02  0.00000000000E+00 0. -1.
         11    1    4    4    0    0 -0.73501756249E+01  0.19566247033E+02  0.10687053798E+00  0.20901543627E+02  0.00000000000E+00 0.  1.
         21    1    1    2  502  501 -0.27513728916E+02  0.13227971499E+02 -0.52855565909E+02  0.61038474394E+02  0.00000000000E+00 0.  1.
<scales pt_clust_5="13000.00000" pt_clust_6="13000.00000" pt_clust_7="13000.00000" pt_clust_8="13000.00000" pt_clust_9="30.52842"></scales>
<clustering>
<clus scale="   30.528">  2  9  1 -1</clus>
<clus scale="   89.771">  7  8 -1 -1</clus>
<clus scale="   91.036">  5  6 -1 -1</clus>
<clus scale="  111.708">  1  7  2 -1</clus>
<clus scale="  111.708">  1  5  2 -1</clus>
</clustering>
</event>
<event>
 9    1  0.1266593E-005  0.2407875E+03  0.7546771E-02  0.1119418E+00
         -1   -1    0    0    0  501 -0.00000000000E+00  0.00000000000E+00  0.47871672407E+03  0.47871672407E+03  0.00000000000E+00 0.  1.
          1   -1    0    0  502    0  0.00000000000E+00 -0.00000000000E+00 -0.23732319831E+03  0.23732319831E+03  0.00000000000E+00 0. -1.
         23    2    1    2    0    0 -0.62203822936E+02 -0.16390188971E+03  0.27349934375E+03  0.33827597686E+03  0.94316490898E+02 0.  0.
         23    2    1    2    0    0  0.93768110804E+02  0.21418045527E+03 -0.11457416222E+03  0.27615062835E+03  0.92011982206E+02 0.  0.
        -13    1    4    4    0    0  0.34859533365E+02  0.78480225300E+02  0.48740281443E+01  0.86012144374E+02  0.00000000000E+00 0.  1.
         13    1    4    4    0    0  0.58908577440E+02  0.13570022997E+03 -0.11944819036E+03  0.19013848398E+03  0.00000000000E+00 0. -1.
        -13    1    3    3    0    0 -0.26729784883E+02 -0.28265614021E+01  0.12770666881E+02  0.29758373306E+02  0.00000000000E+00 0.  1.
         13    1    3    3    0    0 -0.35474038053E+02 -0.16107532830E+03  0.26072867686E+03  0.30851760356E+03  0.00000000000E+00 0. -1.
         21    1    1    2  502  501 -0.31564287868E+02 -0.50278565565E+02  0.82468344237E+02  0.10161331716E+03  0.00000000000E+00 0.  1.
<scales pt_clust_5="13000.00000" pt_clust_6="13000.00000" pt_clust_7="13000.00000" pt_clust_8="13000.00000" pt_clust_9="59.36530"></scales>
<clustering>
<clus scale="   59.365">  1  9  2 -1</clus>
<clus scale="   92.012">  5  6 -1 -1</clus>
<clus scale="   94.316">  7  8 -1 -1</clus>
<clus scale="  239.894">  2  5  1 -1</clus>
<clus scale="  239.894">  2  5  1 -1</clus>
</clustering>
</event>
<event>
 9    1  0.1266593E-005  0.1189571E+03  0.7546771E-02  0.1244829E+00
         -1   -1    0    0    0  501 -0.00000000000E+00  0.00000000000E+00  0.13939089097E+03  0.13939089097E+03  0.00000000000E+00 0.  1.
          1   -1    0    0  502    0  0.00000000000E+00 -0.00000000000E+00 -0.13899799253E+03  0.13899799253E+03  0.00000000000E+00 0. -1.
         23    2    1    2    0    0  0.53179718397E+02  0.55153177955E+02 -0.80696738872E+01  0.12236281605E+03  0.95066206555E+02 0.  0.
         23    2    1    2    0    0 -0.32638813892E+02 -0.60059266402E+02 -0.21817550163E+02  0.11910880482E+03  0.95070995771E+02 0.  0.
        -11    1    3    3    0    0  0.20853593391E+02  0.73712737379E+02  0.15640113598E+02  0.78186016413E+02  0.00000000000E+00 0.  1.
         11    1    3    3    0    0  0.32326125006E+02 -0.18559559424E+02 -0.23709787486E+02  0.44176799641E+02  0.00000000000E+00 0. -1.
        -13    1    4    4    0    0 -0.47746943543E+02  0.69540950977E+01 -0.60636563694E+01  0.48630216788E+02  0.00000000000E+00 0.  1.
         13    1    4    4    0    0  0.15108129650E+02 -0.67013361499E+02 -0.15753893793E+02  0.70478588029E+02  0.00000000000E+00 0. -1.
         21    1    1    2  502  501 -0.20540904504E+02  0.49060884467E+01  0.30280122487E+02  0.36917262622E+02  0.00000000000E+00 0.  1.
<scales pt_clust_5="13000.00000" pt_clust_6="13000.00000" pt_clust_7="13000.00000" pt_clust_8="13000.00000" pt_clust_9="21.11868"></scales>
<clustering>
<clus scale="   21.119">  1  9  2 -1</clus>
<clus scale="   95.066">  5  6 -1 -1</clus>
<clus scale="   95.071">  7  8 -1 -1</clus>
<clus scale="  118.953">  1  5  2 -1</clus>
<clus scale="  118.957">  2  5  1 -1</clus>
</clustering>
</event>
<event>
 9    1  0.1266593E-005  0.1211045E+03  0.7546771E-02  0.1241455E+00
          1   -1    0    0  502    0  0.00000000000E+00  0.00000000000E+00  0.27217894820E+03  0.27217894820E+03  0.00000000000E+00 0. -1.
         -1   -1    0    0    0  501 -0.00000000000E+00 -0.00000000000E+00 -0.90934306077E+02  0.90934306077E+02  0.00000000000E+00 0.  1.
         23    2    1    2    0    0  0.68382352189E+02 -0.47117053195E+02  0.19925876851E+02  0.12470160231E+03  0.90869611296E+02 0.  0.
         23    2    1    2    0    0 -0.48136707491E+02  0.62878292072E+02  0.17229243076E+03  0.21050602325E+03  0.91418170544E+02 0.  0.
        -11    1    3    3    0    0  0.12032116788E+02  0.19791819206E+02  0.28592259768E+02  0.36796810467E+02  0.00000000000E+00 0. -1.
         11    1    3    3    0    0  0.56350235401E+02 -0.66908872401E+02 -0.86663829163E+01  0.87904791841E+02  0.00000000000E+00 0.  1.
        -13    1    4    4    0    0 -0.52948471981E+02  0.30307507477E+02  0.37192013682E+02  0.71451603036E+02  0.00000000000E+00 0.  1.
         13    1    4    4    0    0  0.48117644907E+01  0.32570784595E+02  0.13510041708E+03  0.13905442022E+03  0.00000000000E+00 0. -1.
         21    1    1    2  502  501 -0.20245644699E+02 -0.15761238876E+02 -0.10973665485E+02  0.27905628722E+02  0.00000000000E+00 0.  1.
<scales pt_clust_5="13000.00000" pt_clust_6="13000.00000" pt_clust_7="13000.00000" pt_clust_8="13000.00000" pt_clust_9="25.65741"></scales>
<clustering>
<clus scale="   25.657">  2  9  1 -1</clus>
<clus scale="   90.870">  5  6 -1 -1</clus>
<clus scale="   91.418">  7  8 -1 -1</clus>
<clus scale="  120.691">  2  5  1 -1</clus>
<clus scale="  121.105">  1  5  2 -1</clus>
</clustering>
</event>
<event>
 9    1  0.1266593E-005  0.9195570E+02  0.7546771E-02  0.1299102E+00
          1   -1    0    0  502    0  0.00000000000E+00  0.00000000000E+00  0.16035191758E+03  0.16035191758E+03  0.00000000000E+00 0. -1.
         -1   -1    0    0    0  501 -0.00000000000E+00 -0.00000000000E+00 -0.73491599856E+02  0.73491599856E+02  0.00000000000E+00 0.  1.
         23    2    1    2    0    0 -0.49731739173E+01  0.94838330361E+01  0.19576542306E+02  0.91411245534E+02  0.88645920682E+02 0.  0.
         23    2    1    2    0    0  0.26932077615E+02  0.10497942370E+02  0.58996753186E+02  0.11160793837E+03  0.90222898549E+02 0.  0.
        -11    1    4    4    0    0  0.22941117101E+02 -0.22087272763E+02 -0.11486952057E+02  0.33853988532E+02  0.00000000000E+00 0.  1.
         11    1    4    4    0    0  0.39909605140E+01  0.32585215133E+02  0.70483705243E+02  0.77753949840E+02  0.00000000000E+00 0. -1.
        -11    1    3    3    0    0 -0.40291568813E+02  0.18957287549E+02  0.29632178263E+02  0.53486963432E+02  0.00000000000E+00 0. -1.
         11    1    3    3    0    0  0.35318394896E+02 -0.94734545133E+01 -0.10055635957E+02  0.37924282102E+02  0.00000000000E+00 0.  1.
         21    1    1    2  502  501 -0.21958903698E+02 -0.19981775406E+02  0.82870222288E+01  0.30824333527E+02  0.00000000000E+00 0.  1.
<scales pt_clust_5="13000.00000" pt_clust_6="13000.00000" pt_clust_7="13000.00000" pt_clust_8="13000.00000" pt_clust_9="29.68947"></scales>
<clustering>
<clus scale="   29.689">  2  9  1 -1</clus>
<clus scale="   88.646">  7  8 -1 -1</clus>
<clus scale="   90.223">  5  6 -1 -1</clus>
<clus scale="   90.409">  2  7  1 -1</clus>
<clus scale="   91.956">  1  5  2 -1</clus>
</clustering>
</event>
<event>
 9    1  0.1280796E-005  0.1007305E+03  0.7546771E-02  0.1279802E+00
         -1   -1    0    0    0  501 -0.00000000000E+00  0.00000000000E+00  0.39409885420E+03  0.39409885420E+03  0.00000000000E+00 0.  1.
          1   -1    0    0  502    0  0.00000000000E+00 -0.00000000000E+00 -0.14682948457E+03  0.14682948457E+03  0.00000000000E+00 0. -1.
         23    2    1    2    0    0  0.23121463923E+02  0.72602565385E+01  0.22696532287E+03  0.24575513119E+03  0.91076963607E+02 0.  0.
         23    2    1    2    0    0 -0.42233773425E+02 -0.13916270221E+02 -0.11863303085E+03  0.15476987988E+03  0.88896375146E+02 0.  0.
        -11    1    3    3    0    0 -0.18373702056E+02 -0.27566612069E+02  0.44886046930E+02  0.55787706865E+02  0.00000000000E+00 0.  1.
         11    1    3    3    0    0  0.41495165979E+02  0.34826868607E+02  0.18207927594E+03  0.18996742432E+03  0.00000000000E+00 0. -1.
        -11    1    4    4    0    0  0.23388554401E+02 -0.23410061537E+02 -0.39758312948E+02  0.51727931590E+02  0.00000000000E+00 0.  1.
         11    1    4    4    0    0 -0.65622327826E+02  0.94937913155E+01 -0.78874717904E+02  0.10304194829E+03  0.00000000000E+00 0. -1.
         21    1    1    2  502  501  0.19112309502E+02  0.66560136829E+01  0.13893707762E+03  0.14040332770E+03  0.00000000000E+00 0. -1.
<scales pt_clust_5="13000.00000" pt_clust_6="13000.00000" pt_clust_7="13000.00000" pt_clust_8="13000.00000" pt_clust_9="20.23815"></scales>
<clustering>
<clus scale="   20.238">  1  9  2 -1</clus>
<clus scale="   88.896">  7  8 -1 -1</clus>
<clus scale="   91.077">  5  6 -1 -1</clus>
<clus scale="   98.763">  2  7  1 -1</clus>
<clus scale="   98.763">  2  5  1 -1</clus>
</clustering>
</event>
<event>
 9    1  0.1266593E-005  0.1132880E+03  0.7546771E-02  0.1255543E+00
          1   -1    0    0  502    0  0.00000000000E+00  0.00000000000E+00  0.30963001722E+03  0.30963001722E+03  0.00000000000E+00 0. -1.
         -1   -1    0    0    0  501 -0.00000000000E+00 -0.00000000000E+00 -0.43883029170E+03  0.43883029170E+03  0.00000000000E+00 0.  1.
         23    2    1    2    0    0 -0.62252128875E+02 -0.21292762215E+02 -0.39586084998E+03  0.41145435074E+03  0.90885427477E+02 0.  0.
         23    2    1    2    0    0  0.56650614893E+00  0.13181917745E+02  0.25733787916E+03  0.27409479449E+03  0.93440293410E+02 0.  0.
        -11    1    4    4    0    0  0.37947723011E+02  0.32816361275E+02  0.16706159562E+03  0.17443199242E+03  0.00000000000E+00 0. -1.
         11    1    4    4    0    0 -0.37381216862E+02 -0.19634443530E+02  0.90276283540E+02  0.99662802071E+02  0.00000000000E+00 0.  1.
        -11    1    3    3    0    0  0.14332383325E+02  0.14271818339E+02 -0.31480965543E+02  0.37418621059E+02  0.00000000000E+00 0. -1.
         11    1    3    3    0    0 -0.76584512200E+02 -0.35564580554E+02 -0.36437988443E+03  0.37403572968E+03  0.00000000000E+00 0.  1.
         21    1    1    2  502  501  0.61685622726E+02  0.81108444700E+01  0.93226963329E+01  0.62911163683E+02  0.00000000000E+00 0. -1.
<scales pt_clust_5="13000.00000" pt_clust_6="13000.00000" pt_clust_7="13000.00000" pt_clust_8="13000.00000" pt_clust_9="62.21657"></scales>
<clustering>
<clus scale="   62.217">  1  9  2 -1</clus>
<clus scale="   90.885">  7  8 -1 -1</clus>
<clus scale="   93.440">  5  6 -1 -1</clus>
<clus scale="  111.190">  2  7  1 -1</clus>
<clus scale="   62.217">  1  5  2 -1</clus>
</clustering>
</event>
<event>
 9    1  0.1266593E-005  0.1537071E+03  0.7546771E-02  0.1196169E+00
         -2   -1    0    0    0  501 -0.00000000000E+00  0.00000000000E+00  0.21364037198E+03  0.21364037198E+03  0.00000000000E+00 0.  1.
          2   -1    0    0  502    0  0.00000000000E+00 -0.00000000000E+00 -0.64579924250E+03  0.64579924250E+03  0.00000000000E+00 0. -1.
         23    2    1    2    0    0 -0.39179488279E+02 -0.15248520006E+03 -0.78093131487E+02  0.19772700995E+03  0.90612718415E+02 0.  0.
         23    2    1    2    0    0  0.12229286093E+03  0.42611111477E+02 -0.46110222370E+03  0.48725069722E+03  0.89592022972E+02 0.  0.
        -11    1    4    4    0    0  0.67316222974E+02 -0.13416102352E+02 -0.13042117270E+03  0.14738096202E+03  0.00000000000E+00 0.  1.
         11    1    4    4    0    0  0.54976637954E+02  0.56027213828E+02 -0.33068105101E+03  0.33986973520E+03  0.00000000000E+00 0. -1.
        -13    1    3    3    0    0 -0.14736486088E+02 -0.47820606365E+02 -0.75050803393E+02  0.90203090331E+02  0.00000000000E+00 0. -1.
         13    1    3    3    0    0 -0.24443002190E+02 -0.10466459370E+03 -0.30423280940E+01  0.10752391962E+03  0.00000000000E+00 0.  1.
         21    1    1    2  502  501 -0.83113372649E+02  0.10987408859E+03  0.10703648467E+03  0.17446190732E+03  0.00000000000E+00 0.  1.
<scales pt_clust_5="13000.00000" pt_clust_6="13000.00000" pt_clust_7="13000.00000" pt_clust_8="13000.00000" pt_clust_9="137.76846"></scales>
<clustering>
<clus scale="   89.592">  5  6 -1 -1</clus>
<clus scale="   90.613">  7  8 -1 -1</clus>
<clus scale="  137.768">  1  9  2 -1</clus>
<clus scale="  153.108">  2  5  1 -1</clus>
<clus scale="  153.108">  2  5  1 -1</clus>
</clustering>
</event>
<event>
 9    1  0.1266593E-005  0.1008770E+03  0.7546771E-02  0.1280023E+00
          1   -1    0    0  502    0  0.00000000000E+00  0.00000000000E+00  0.67186280241E+03  0.67186280241E+03  0.00000000000E+00 0. -1.
         -1   -1    0    0    0  501 -0.00000000000E+00 -0.00000000000E+00 -0.27901427445E+02  0.27901427445E+02  0.00000000000E+00 0.  1.
         23    2    1    2    0    0 -0.25696008558E+02  0.10482308017E+02  0.94753547476E+02  0.13263744733E+03  0.88568019274E+02 0.  0.
         23    2    1    2    0    0  0.46060558705E+02  0.22931943299E+01  0.51599289891E+03  0.52612483326E+03  0.91825021863E+02 0.  0.
        -11    1    3    3    0    0 -0.27200239912E+02  0.47812848479E+02  0.49974463978E+02  0.74319368813E+02  0.00000000000E+00 0.  1.
         11    1    3    3    0    0  0.15042313542E+01 -0.37330540462E+02  0.44779083499E+02  0.58318078519E+02  0.00000000000E+00 0. -1.
        -11    1    4    4    0    0 -0.21315485404E+02  0.22544782108E+02  0.12094247772E+03  0.12485872030E+03  0.00000000000E+00 0.  1.
         11    1    4    4    0    0  0.67376044109E+02 -0.20251587778E+02  0.39505042118E+03  0.40126611295E+03  0.00000000000E+00 0. -1.
         21    1    1    2  502  501 -0.20364550147E+02 -0.12775502347E+02  0.33214928580E+02  0.41001949264E+02  0.00000000000E+00 0.  1.
<scales pt_clust_5="13000.00000" pt_clust_6="13000.00000" pt_clust_7="13000.00000" pt_clust_8="13000.00000" pt_clust_9="24.04014"></scales>
<clustering>
<clus scale="   24.040">  2  9  1 -1</clus>
<clus scale="   88.568">  5  6 -1 -1</clus>
<clus scale="   91.825">  7  8 -1 -1</clus>
<clus scale="   97.922">  2  5  1 -1</clus>
<clus scale="  100.877">  1  5  2 -1</clus>
</clustering>
</event>
<event>
 9    1  0.1266593E-005  0.1605061E+03  0.7546771E-02  0.1188280E+00
          1   -1    0    0  502    0  0.00000000000E+00  0.00000000000E+00  0.46956488428E+03  0.46956488428E+03  0.00000000000E+00 0. -1.
         -1   -1    0    0    0  501 -0.00000000000E+00 -0.00000000000E+00 -0.98555736957E+02  0.98555736957E+02  0.00000000000E+00 0.  1.
         23    2    1    2    0    0  0.62558124272E+02 -0.85125844569E+02  0.97313565193E+02  0.17031420333E+03  0.91526332597E+02 0.  0.
         23    2    1    2    0    0 -0.13970020679E+03  0.95764120595E+02  0.12490638770E+03  0.22987101905E+03  0.92477917023E+02 0.  0.
        -11    1    3    3    0    0  0.38856461870E+02 -0.11008844636E+01  0.67806855925E+02  0.78158852896E+02  0.00000000000E+00 0.  1.
         11    1    3    3    0    0  0.23701662402E+02 -0.84024960106E+02  0.29506709268E+02  0.92155350432E+02  0.00000000000E+00 0. -1.
        -13    1    4    4    0    0 -0.21542364996E+02  0.26079240839E+02  0.77794582050E+02  0.84830403091E+02  0.00000000000E+00 0. -1.
         13    1    4    4    0    0 -0.11815784180E+03  0.69684879756E+02  0.47111805655E+02  0.14504061596E+03  0.00000000000E+00 0.  1.
         21    1    1    2  502  501  0.77142082522E+02 -0.10638276026E+02  0.14878919443E+03  0.16793539887E+03  0.00000000000E+00 0. -1.
<scales pt_clust_5="13000.00000" pt_clust_6="13000.00000" pt_clust_7="13000.00000" pt_clust_8="13000.00000" pt_clust_9="77.87216"></scales>
<clustering>
<clus scale="   77.872">  1  9  2 -1</clus>
<clus scale="   91.526">  5  6 -1 -1</clus>
<clus scale="   92.478">  7  8 -1 -1</clus>
<clus scale="  159.960">  2  5  1 -1</clus>
<clus scale="   77.872">  1  5  2 -1</clus>
</clustering>
</event>
<event>
 9    1  0.1266593E-005  0.1218708E+03  0.7546771E-02  0.1240533E+00
         -1   -1    0    0    0  501 -0.00000000000E+00  0.00000000000E+00  0.98596792855E+02  0.98596792855E+02  0.00000000000E+00 0.  1.
          1   -1    0    0  502    0  0.00000000000E+00 -0.00000000000E+00 -0.22460076457E+03  0.22460076457E+03  0.00000000000E+00 0. -1.
         23    2    1    2    0    0 -0.49877846218E+02  0.47115856588E+02 -0.37229406267E+02  0.11925699863E+03  0.90158191789E+02 0.  0.
         23    2    1    2    0    0  0.45887139087E+02 -0.77278150494E+02 -0.10811241937E+03  0.16789000664E+03  0.91767189286E+02 0.  0.
        -13    1    3    3    0    0 -0.46203687304E+00  0.56245659311E+02 -0.39855109315E+02  0.68936328651E+02  0.00000000000E+00 0. -1.
         13    1    3    3    0    0 -0.49415809345E+02 -0.91298027227E+01  0.26257030483E+01  0.50320669982E+02  0.00000000000E+00 0.  1.
        -13    1    4    4    0    0 -0.16285689263E+02 -0.61801843953E+02 -0.61132373360E+02  0.88441272398E+02  0.00000000000E+00 0.  1.
         13    1    4    4    0    0  0.62172828349E+02 -0.15476306541E+02 -0.46980046007E+02  0.79448734237E+02  0.00000000000E+00 0. -1.
         21    1    1    2  502  501  0.39907071315E+01  0.30162293906E+02  0.19337853915E+02  0.36050552161E+02  0.00000000000E+00 0. -1.
<scales pt_clust_5="13000.00000" pt_clust_6="13000.00000" pt_clust_7="13000.00000" pt_clust_8="13000.00000" pt_clust_9="30.42515"></scales>
<clustering>
<clus scale="   30.425">  1  9  2 -1</clus>
<clus scale="   90.158">  5  6 -1 -1</clus>
<clus scale="   91.767">  7  8 -1 -1</clus>
<clus scale="  120.664">  1  5  2 -1</clus>
<clus scale="  121.871">  2  5  1 -1</clus>
</clustering>
</event>
<event>
 9    1  0.1266593E-005  0.1147206E+03  0.7546771E-02  0.1252317E+00
         -1   -1    0    0    0  501 -0.00000000000E+00  0.00000000000E+00  0.49204704763E+02  0.49204704763E+02  0.00000000000E+00 0.  1.
          1   -1    0    0  502    0  0.00000000000E+00 -0.00000000000E+00 -0.43506680536E+03  0.43506680536E+03  0.00000000000E+00 0. -1.
         23    2    1    2    0    0  0.29069498558E+02 -0.56545089876E+02 -0.67581405081E+02  0.12988976912E+03  0.90894020005E+02 0.  0.
         23    2    1    2    0    0 -0.51911043930E+02  0.51328492301E+02 -0.30736361355E+03  0.32853349612E+03  0.90180355596E+02 0.  0.
        -13    1    3    3    0    0 -0.28930590760E+00 -0.62153118397E+02 -0.76623565145E+02  0.98662376618E+02  0.00000000000E+00 0. -1.
         13    1    3    3    0    0  0.29358804466E+02  0.56080285218E+01  0.90421600638E+01  0.31227392498E+02  0.00000000000E+00 0.  1.
        -13    1    4    4    0    0  0.20677713650E+02  0.26986490857E+02 -0.14631165585E+03  0.15020965071E+03  0.00000000000E+00 0.  1.
         13    1    4    4    0    0 -0.72588757580E+02  0.24342001444E+02 -0.16105195770E+03  0.17832384541E+03  0.00000000000E+00 0. -1.
         21    1    1    2  502  501  0.22841545371E+02  0.52165975745E+01 -0.10917081970E+02  0.25848244891E+02  0.00000000000E+00 0. -1.
<scales pt_clust_5="13000.00000" pt_clust_6="13000.00000" pt_clust_7="13000.00000" pt_clust_8="13000.00000" pt_clust_9="23.42966"></scales>
<clustering>
<clus scale="   23.430">  1  9  2 -1</clus>
<clus scale="   90.180">  7  8 -1 -1</clus>
<clus scale="   90.894">  5  6 -1 -1</clus>
<clus scale="  114.156">  2  7  1 -1</clus>
<clus scale="  114.156">  2  5  1 -1</clus>
</clustering>
</event>
<event>
 9    1  0.1266593E-005  0.1294063E+03  0.7546771E-02  0.1228343E+00
          1   -1    0    0  502    0  0.00000000000E+00  0.00000000000E+00  0.43610862162E+03  0.43610862162E+03  0.00000000000E+00 0. -1.
         -1   -1    0    0    0  501 -0.00000000000E+00 -0.00000000000E+00 -0.66811567483E+02  0.66811567483E+02  0.00000000000E+00 0.  1.
         23    2    1    2    0    0  0.14419661899E+02  0.10744877715E+03  0.17682214496E+03  0.22634037584E+03  0.90613069847E+02 0.  0.
         23    2    1    2    0    0 -0.11405702028E+02 -0.80971194816E+02  0.21125078745E+03  0.24398104143E+03  0.90627970014E+02 0.  0.
        -13    1    4    4    0    0  0.32812723059E+02 -0.13353653240E+02  0.33618688859E+02  0.48838622933E+02  0.00000000000E+00 0. -1.
         13    1    4    4    0    0 -0.44218425086E+02 -0.67617541576E+02  0.17763209859E+03  0.19514241849E+03  0.00000000000E+00 0.  1.
        -13    1    3    3    0    0 -0.34855810546E+02  0.45456842228E+02  0.46213868921E+02  0.73600093171E+02  0.00000000000E+00 0.  1.
         13    1    3    3    0    0  0.49275472445E+02  0.61991934921E+02  0.13060827604E+03  0.15274028267E+03  0.00000000000E+00 0. -1.
         21    1    1    2  502  501 -0.30139598715E+01 -0.26477582333E+02 -0.18775878273E+02  0.32598771836E+02  0.00000000000E+00 0.  1.
<scales pt_clust_5="13000.00000" pt_clust_6="13000.00000" pt_clust_7="13000.00000" pt_clust_8="13000.00000" pt_clust_9="26.64857"></scales>
<clustering>
<clus scale="   26.649">  2  9  1 -1</clus>
<clus scale="   90.613">  7  8 -1 -1</clus>
<clus scale="   90.628">  5  6 -1 -1</clus>
<clus scale="  129.396">  2  7  1 -1</clus>
<clus scale="  129.406">  1  5  2 -1</clus>
</clustering>
</event>
<event>
 9    1  0.1266593E-005  0.9397642E+02  0.7546771E-02  0.1294657E+00
          2   -1    0    0  502    0  0.00000000000E+00  0.00000000000E+00  0.39636027146E+03  0.39636027146E+03  0.00000000000E+00 0. -1.
         -2   -1    0    0    0  501 -0.00000000000E+00 -0.00000000000E+00 -0.80473469504E+02  0.80473469504E+02  0.00000000000E+00 0.  1.
         23    2    1    2    0    0 -0.10596979634E+02  0.42133099267E+01  0.61516388492E+02  0.11068799769E+03  0.91310014905E+02 0.  0.
         23    2    1    2    0    0  0.80752707130E+01 -0.25132951157E+02  0.30095541113E+03  0.31501696065E+03  0.89244892163E+02 0.  0.
        -11    1    3    3    0    0 -0.24708162225E+02  0.28331087055E+02 -0.55818716611E+01  0.38003961182E+02  0.00000000000E+00 0. -1.
         11    1    3    3    0    0  0.14111182591E+02 -0.24117777128E+02  0.67098260153E+02  0.72684036510E+02  0.00000000000E+00 0.  1.
        -13    1    4    4    0    0 -0.18278519760E+02 -0.51387487279E+02  0.15208782369E+03  0.16157191665E+03  0.00000000000E+00 0.  1.
         13    1    4    4    0    0  0.26353790473E+02  0.26254536123E+02  0.14886758744E+03  0.15344504400E+03  0.00000000000E+00 0. -1.
         21    1    1    2  502  501  0.25217089211E+01  0.20919641230E+02 -0.46584997665E+02  0.51128782623E+02  0.00000000000E+00 0.  1.
<scales pt_clust_5="13000.00000" pt_clust_6="13000.00000" pt_clust_7="13000.00000" pt_clust_8="13000.00000" pt_clust_9="21.07108"></scales>
<clustering>
<clus scale="   21.071">  2  9  1 -1</clus>
<clus scale="   89.245">  7  8 -1 -1</clus>
<clus scale="   91.310">  5  6 -1 -1</clus>
<clus scale="   91.971">  1  7  2 -1</clus>
<clus scale="   91.971">  1  5  2 -1</clus>
</clustering>
</event>
<event>
 9    1  0.1266593E-005  0.1445758E+03  0.7546771E-02  0.1207417E+00
          2   -1    0    0  502    0  0.00000000000E+00  0.00000000000E+00  0.53801656848E+03  0.53801656848E+03  0.00000000000E+00 0. -1.
         -2   -1    0    0    0  501 -0.00000000000E+00 -0.00000000000E+00 -0.91303884581E+02  0.91303884581E+02  0.00000000000E+00 0.  1.
         23    2    1    2    0    0 -0.21323259652E+02 -0.87813802654E+02  0.11991896674E+03  0.17593464474E+03  0.91686941798E+02 0.  0.
         23    2    1    2    0    0  0.52815345681E+02  0.11188311326E+03  0.36626315311E+03  0.39744906217E+03  0.92248403348E+02 0.  0.
        -11    1    3    3    0    0  0.21902590586E+02 -0.84504926787E-01  0.53232501473E+02  0.57562399433E+02  0.00000000000E+00 0. -1.
         11    1    3    3    0    0 -0.43225850239E+02 -0.87729297727E+02  0.66686465263E+02  0.11837224530E+03  0.00000000000E+00 0.  1.
        -11    1    4    4    0    0  0.95824341753E+01  0.41129202711E+02  0.31809455155E+02  0.52870367860E+02  0.00000000000E+00 0.  1.
         11    1    4    4    0    0  0.43232911505E+02  0.70753910546E+02  0.33445369796E+03  0.34457869431E+03  0.00000000000E+00 0. -1.
         21    1    1    2  502  501 -0.31492086028E+02 -0.24069310603E+02 -0.39469435955E+02  0.55936746151E+02  0.00000000000E+00 0.  1.
<scales pt_clust_5="13000.00000" pt_clust_6="13000.00000" pt_clust_7="13000.00000" pt_clust_8="13000.00000" pt_clust_9="39.63689"></scales>
<clustering>
<clus scale="   39.637">  2  9  1 -1</clus>
<clus scale="   91.687">  5  6 -1 -1</clus>
<clus scale="   92.248">  7  8 -1 -1</clus>
<clus scale="  144.218">  2  5  1 -1</clus>
<clus scale="  144.576">  1  5  2 -1</clus>
</clustering>
</event>
<event>
 9    1  0.1266593E-005  0.1127757E+03  0.7546771E-02  0.1256408E+00
         -2   -1    0    0    0  501 -0.00000000000E+00  0.00000000000E+00  0.80308961858E+02  0.80308961858E+02  0.00000000000E+00 0.  1.
          2   -1    0    0  502    0  0.00000000000E+00 -0.00000000000E+00 -0.28962374431E+03  0.28962374431E+03  0.00000000000E+00 0. -1.
         23    2    1    2    0    0 -0.38941473390E+02 -0.55164653779E+02 -0.13910610579E+02  0.11439682559E+03  0.91288286443E+02 0.  0.
         23    2    1    2    0    0  0.38453564004E+01  0.68173378251E+02 -0.18567585661E+03  0.21686283495E+03  0.88834504501E+02 0.  0.
        -11    1    3    3    0    0 -0.29876453074E+01  0.22399719177E+02 -0.17874691692E+02  0.28812810463E+02  0.00000000000E+00 0. -1.
         11    1    3    3    0    0 -0.35953828083E+02 -0.77564372956E+02  0.39640811132E+01  0.85584015125E+02  0.00000000000E+00 0.  1.
        -13    1    4    4    0    0  0.43255521459E+02  0.31389804810E+02 -0.12351391513E+03  0.13458100614E+03  0.00000000000E+00 0. -1.
         13    1    4    4    0    0 -0.39410165059E+02  0.36783573441E+02 -0.62161941477E+02  0.82281828816E+02  0.00000000000E+00 0.  1.
         21    1    1    2  502  501  0.35096116990E+02 -0.13008724472E+02 -0.97283152701E+01  0.38673045628E+02  0.00000000000E+00 0. -1.
<scales pt_clust_5="13000.00000" pt_clust_6="13000.00000" pt_clust_7="13000.00000" pt_clust_8="13000.00000" pt_clust_9="37.42946"></scales>
<clustering>
<clus scale="   37.429">  1  9  2 -1</clus>
<clus scale="   88.835">  7  8 -1 -1</clus>
<clus scale="   91.288">  5  6 -1 -1</clus>
<clus scale="  110.799">  2  7  1 -1</clus>
<clus scale="  110.799">  2  5  1 -1</clus>
</clustering>
</event>
<event>
 9    1  0.1266593E-005  0.1012343E+03  0.7546771E-02  0.1277963E+00
         -2   -1    0    0    0  501 -0.00000000000E+00  0.00000000000E+00  0.15683361693E+03  0.15683361693E+03  0.00000000000E+00 0.  1.
          2   -1    0    0  502    0  0.00000000000E+00 -0.00000000000E+00 -0.10999232706E+03  0.10999232706E+03  0.00000000000E+00 0. -1.
         23    2    1    2    0    0 -0.29959621259E+02  0.11945610608E+02  0.39637513486E+02  0.10467828646E+03  0.91357181772E+02 0.  0.
         23    2    1    2    0    0  0.50428553428E+02  0.14213454190E+02 -0.33055827887E+02  0.10995465425E+03  0.90842043969E+02 0.  0.
        -13    1    3    3    0    0 -0.34041824939E+02 -0.13811289576E+02 -0.18373358754E+02  0.41075270867E+02  0.00000000000E+00 0. -1.
         13    1    3    3    0    0  0.40822036805E+01  0.25756900184E+02  0.58010872240E+02  0.63603015589E+02  0.00000000000E+00 0.  1.
        -13    1    4    4    0    0  0.46785238019E+02  0.38113165182E+02 -0.51669696155E+02  0.79443246141E+02  0.00000000000E+00 0.  1.
         13    1    4    4    0    0  0.36433154087E+01 -0.23899710992E+02  0.18613868268E+02  0.30511408106E+02  0.00000000000E+00 0. -1.
         21    1    1    2  502  501 -0.20468932169E+02 -0.26159064798E+02  0.40259604279E+02  0.52193003286E+02  0.00000000000E+00 0. -1.
<scales pt_clust_5="13000.00000" pt_clust_6="13000.00000" pt_clust_7="13000.00000" pt_clust_8="13000.00000" pt_clust_9="33.21557"></scales>
<clustering>
<clus scale="   33.216">  1  9  2 -1</clus>
<clus scale="   90.842">  7  8 -1 -1</clus>
<clus scale="   91.357">  5  6 -1 -1</clus>
<clus scale="  100.770">  2  7  1 -1</clus>
<clus scale="  100.770">  2  5  1 -1</clus>
</clustering>
</event>
<event>
 9    1  0.1266593E-005  0.9962758E+02  0.7546771E-02  0.1281605E+00
          1   -1    0    0  502    0  0.00000000000E+00  0.00000000000E+00  0.55862131003E+02  0.55862131003E+02  0.00000000000E+00 0. -1.
         -1   -1    0    0    0  501 -0.00000000000E+00 -0.00000000000E+00 -0.33967720920E+03  0.33967720920E+03  0.00000000000E+00 0.  1.
         23    2    1    2    0    0 -0.39821530560E+02  0.38241244031E+02 -0.23668469454E+03  0.25991129206E+03  0.92119965627E+02 0.  0.
         23    2    1    2    0    0  0.22591698225E+02 -0.25334902279E+02 -0.17081824224E+02  0.98663785628E+02  0.91052247492E+02 0.  0.
        -11    1    3    3    0    0 -0.44562500379E+02  0.61021239889E+02 -0.21579626122E+03  0.22864259121E+03  0.00000000000E+00 0.  1.
         11    1    3    3    0    0  0.47409698190E+01 -0.22779995859E+02 -0.20888433321E+02  0.31268700848E+02  0.00000000000E+00 0. -1.
        -13    1    4    4    0    0 -0.15755145801E+02  0.26646004290E+02  0.27913648681E+01  0.31080956897E+02  0.00000000000E+00 0.  1.
         13    1    4    4    0    0  0.38346844026E+02 -0.51980906569E+02 -0.19873189093E+02  0.67582828730E+02  0.00000000000E+00 0. -1.
         21    1    1    2  502  501  0.17229832335E+02 -0.12906341751E+02 -0.30048559436E+02  0.36964262523E+02  0.00000000000E+00 0.  1.
<scales pt_clust_5="13000.00000" pt_clust_6="13000.00000" pt_clust_7="13000.00000" pt_clust_8="13000.00000" pt_clust_9="21.52767"></scales>
<clustering>
<clus scale="   21.528">  2  9  1 -1</clus>
<clus scale="   91.052">  7  8 -1 -1</clus>
<clus scale="   92.120">  5  6 -1 -1</clus>
<clus scale="   98.641">  1  7  2 -1</clus>
<clus scale="   98.641">  1  5  2 -1</clus>
</clustering>
</event>
<event>
 9    1  0.1266593E-005  0.1790367E+03  0.7546771E-02  0.1184124E+00
          1   -1    0    0  502    0  0.00000000000E+00  0.00000000000E+00  0.77499695526E+03  0.77499695526E+03  0.00000000000E+00 0. -1.
         -1   -1    0    0    0  501 -0.00000000000E+00 -0.00000000000E+00 -0.93607372922E+02  0.93607372922E+02  0.00000000000E+00 0.  1.
         23    2    1    2    0    0  0.10109769809E+02 -0.12247290188E+03  0.23574746028E+03  0.28034792782E+03  0.88973459328E+02 0.  0.
         23    2    1    2    0    0  0.82035430423E+02 -0.27791188877E+02  0.37947752606E+03  0.39998056904E+03  0.92082032996E+02 0.  0.
        -11    1    4    4    0    0  0.59558263552E+02 -0.25904349400E+02  0.36975914043E+03  0.37541982367E+03  0.00000000000E+00 0. -1.
         11    1    4    4    0    0  0.22477166871E+02 -0.18868394772E+01  0.97183856322E+01  0.24560745369E+02  0.00000000000E+00 0.  1.
        -13    1    3    3    0    0 -0.27393477721E+02 -0.51455641409E+01  0.33924419401E+02  0.43906100756E+02  0.00000000000E+00 0.  1.
         13    1    3    3    0    0  0.37503247530E+02 -0.11732733774E+03  0.20182304088E+03  0.23644182706E+03  0.00000000000E+00 0. -1.
         21    1    1    2  502  501 -0.92145200232E+02  0.15026409075E+03  0.66164595994E+02  0.18827583132E+03  0.00000000000E+00 0.  1.
<scales pt_clust_5="13000.00000" pt_clust_6="13000.00000" pt_clust_7="13000.00000" pt_clust_8="13000.00000" pt_clust_9="155.36365"></scales>
<clustering>
<clus scale="   88.973">  7  8 -1 -1</clus>
<clus scale="   92.082">  5  6 -1 -1</clus>
<clus scale="  126.417">  1  5  2 -1</clus>
<clus scale="  155.364">  2  9  1 -1</clus>
<clus scale="  126.417">  1  5  2 -1</clus>
</clustering>
</event>
<event>
 9    1  0.1266593E-005  0.1091373E+03  0.7546771E-02  0.1262771E+00
         -4   -1    0    0    0  501 -0.00000000000E+00  0.00000000000E+00  0.52111375490E+03  0.52111375490E+03  0.00000000000E+00 0.  1.
          4   -1    0    0  502    0  0.00000000000E+00 -0.00000000000E+00 -0.37744676101E+02  0.37744676101E+02  0.00000000000E+00 0. -1.
         23    2    1    2    0    0  0.73812316692E+02  0.24373407936E+02  0.28324467878E+03  0.30736926901E+03  0.90586965751E+02 0.  0.
         23    2    1    2    0    0 -0.48524007100E+02 -0.16019630035E+02  0.91073484382E+02  0.13923326501E+03  0.92088624244E+02 0.  0.
        -11    1    3    3    0    0  0.31543162885E+02 -0.34463846419E+02  0.11983560448E+03  0.12862076012E+03  0.00000000000E+00 0. -1.
         11    1    3    3    0    0  0.42269153807E+02  0.58837254355E+02  0.16340907431E+03  0.17874850889E+03  0.00000000000E+00 0.  1.
        -11    1    4    4    0    0 -0.64966753066E+02  0.17043732684E+02  0.68599999427E+02  0.96005873514E+02  0.00000000000E+00 0.  1.
         11    1    4    4    0    0  0.16442745966E+02 -0.33063362719E+02  0.22473484955E+02  0.43227391492E+02  0.00000000000E+00 0. -1.
         21    1    1    2  502  501 -0.25288309592E+02 -0.83537779008E+01  0.10905091563E+03  0.11225589699E+03  0.00000000000E+00 0.  1.
<scales pt_clust_5="13000.00000" pt_clust_6="13000.00000" pt_clust_7="13000.00000" pt_clust_8="13000.00000" pt_clust_9="26.63239"></scales>
<clustering>
<clus scale="   26.632">  1  9  2 -1</clus>
<clus scale="   90.587">  5  6 -1 -1</clus>
<clus scale="   92.089">  7  8 -1 -1</clus>
<clus scale="  107.873">  1  5  2 -1</clus>
<clus scale="  109.137">  2  5  1 -1</clus>
</clustering>
</event>
<event>
 9    1  0.1266593E-005  0.9265033E+02  0.7546771E-02  0.1297043E+00
          1   -1    0    0  502    0  0.00000000000E+00  0.00000000000E+00  0.40495358112E+02  0.40495358112E+02  0.00000000000E+00 0. -1.
         -1   -1    0    0    0  501 -0.00000000000E+00 -0.00000000000E+00 -0.30981850269E+03  0.30981850269E+03  0.00000000000E+00 0.  1.
         23    2    1    2    0    0 -0.17821138087E+01  0.45500356173E+01 -0.10879104802E+03  0.14183682671E+03  0.90875269056E+02 0.  0.
         23    2    1    2    0    0 -0.24942644519E+02 -0.15291323055E+01 -0.82240901522E+02  0.12569509293E+03  0.91712685826E+02 0.  0.
        -13    1    4    4    0    0  0.34533308881E+02  0.41191471669E+01 -0.23959062119E+02  0.42232137683E+02  0.00000000000E+00 0.  1.
         13    1    4    4    0    0 -0.59475953400E+02 -0.56482794723E+01 -0.58281839403E+02  0.83462955244E+02  0.00000000000E+00 0. -1.
        -13    1    3    3    0    0  0.12829441830E+01 -0.40201423987E+02 -0.76950890083E+02  0.86828796611E+02  0.00000000000E+00 0. -1.
         13    1    3    3    0    0 -0.30650579917E+01  0.44751459604E+02 -0.31840157942E+02  0.55008030096E+02  0.00000000000E+00 0.  1.
         21    1    1    2  502  501  0.26724758328E+02 -0.30209033119E+01 -0.78291195034E+02  0.82781941173E+02  0.00000000000E+00 0.  1.
<scales pt_clust_5="13000.00000" pt_clust_6="13000.00000" pt_clust_7="13000.00000" pt_clust_8="13000.00000" pt_clust_9="26.89495"></scales>
<clustering>
<clus scale="   26.895">  2  9  1 -1</clus>
<clus scale="   90.875">  7  8 -1 -1</clus>
<clus scale="   91.713">  5  6 -1 -1</clus>
<clus scale="   91.821">  2  7  1 -1</clus>
<clus scale="   92.650">  1  5  2 -1</clus>
</clustering>
</event>
<event>
 9    1  0.1266593E-005  0.1547905E+03  0.7546771E-02  0.1194779E+00
         -1   -1    0    0    0  501 -0.00000000000E+00  0.00000000000E+00  0.20426266429E+03  0.20426266429E+03  0.00000000000E+00 0.  1.
          1   -1    0    0  502    0  0.00000000000E+00 -0.00000000000E+00 -0.28971153660E+03  0.28971153660E+03  0.00000000000E+00 0. -1.
         23    2    1    2    0    0  0.14072894365E+03 -0.43017291249E+02  0.91594042991E+02  0.19608285831E+03  0.91672764131E+02 0.  0.
         23    2    1    2    0    0 -0.11564104309E+03  0.35200502795E+02 -0.20798879842E+03  0.25729389662E+03  0.91262712665E+02 0.  0.
        -11    1    4    4    0    0  0.78668348864E+01  0.25984811862E+02 -0.30077722674E+02  0.40518723326E+02  0.00000000000E+00 0.  1.
         11    1    4    4    0    0 -0.12350787797E+03  0.92156909326E+01 -0.17791107575E+03  0.21677517329E+03  0.00000000000E+00 0. -1.
        -13    1    3    3    0    0  0.66993028463E+02 -0.53393680404E+02  0.86036255767E+02  0.12141329530E+03  0.00000000000E+00 0.  1.
         13    1    3    3    0    0  0.73735915192E+02  0.10376389155E+02  0.55577872241E+01  0.74669563009E+02  0.00000000000E+00 0. -1.
         21    1    1    2  502  501 -0.25087900567E+02  0.78167884544E+01  0.30945883124E+02  0.40597445966E+02  0.00000000000E+00 0. -1.
<scales pt_clust_5="13000.00000" pt_clust_6="13000.00000" pt_clust_7="13000.00000" pt_clust_8="13000.00000" pt_clust_9="26.27746"></scales>
<clustering>
<clus scale="   26.277">  1  9  2 -1</clus>
<clus scale="   91.263">  5  6 -1 -1</clus>
<clus scale="   91.673">  7  8 -1 -1</clus>
<clus scale="  154.548">  2  5  1 -1</clus>
<clus scale="  154.548">  2  5  1 -1</clus>
</clustering>
</event>
<event>
 9    1  0.1266593E-005  0.1016777E+03  0.7546771E-02  0.1277137E+00
         -1   -1    0    0    0  501 -0.00000000000E+00  0.00000000000E+00  0.19397809604E+03  0.19397809604E+03  0.00000000000E+00 0.  1.
          1   -1    0    0  502    0  0.00000000000E+00 -0.00000000000E+00 -0.19700988796E+03  0.19700988796E+03  0.00000000000E+00 0. -1.
         23    2    1    2    0    0  0.26698704727E+02 -0.40725862105E+02  0.52393117356E+02  0.11457226676E+03  0.89500552435E+02 0.  0.
         23    2    1    2    0    0  0.52289571219E+01  0.48070686942E+02 -0.14701565629E+03  0.17914194390E+03  0.90222502366E+02 0.  0.
        -13    1    4    4    0    0  0.21709965512E+02 -0.20835635369E+02 -0.30993897051E+02  0.43198008729E+02  0.00000000000E+00 0.  1.
         13    1    4    4    0    0 -0.16481008390E+02  0.68906322311E+02 -0.11602175924E+03  0.13594393517E+03  0.00000000000E+00 0. -1.
        -13    1    3    3    0    0  0.48975887053E+02 -0.35382666276E+01  0.34985112726E+01  0.49228004474E+02  0.00000000000E+00 0. -1.
         13    1    3    3    0    0 -0.22277182327E+02 -0.37187595477E+02  0.48894606083E+02  0.65344262287E+02  0.00000000000E+00 0.  1.
         21    1    1    2  502  501 -0.31927661849E+02 -0.73448248370E+01  0.91590747014E+02  0.97273773349E+02  0.00000000000E+00 0. -1.
<scales pt_clust_5="13000.00000" pt_clust_6="13000.00000" pt_clust_7="13000.00000" pt_clust_8="13000.00000" pt_clust_9="32.76159"></scales>
<clustering>
<clus scale="   32.762">  1  9  2 -1</clus>
<clus scale="   89.501">  7  8 -1 -1</clus>
<clus scale="   90.223">  5  6 -1 -1</clus>
<clus scale="  101.038">  1  7  2 -1</clus>
<clus scale="  101.678">  2  5  1 -1</clus>
</clustering>
</event>
<event>
 9    1  0.1266593E-005  0.1145636E+03  0.7546771E-02  0.1252743E+00
         -1   -1    0    0    0  501 -0.00000000000E+00  0.00000000000E+00  0.11402631182E+03  0.11402631182E+03  0.00000000000E+00 0.  1.
          1   -1    0    0  502    0  0.00000000000E+00 -0.00000000000E+00 -0.20019741132E+03  0.20019741132E+03  0.00000000000E+00 0. -1.
         23    2    1    2    0    0  0.32245325886E+02  0.25903482453E+02  0.17557003573E+02  0.10123574796E+03  0.90717566354E+02 0.  0.
         23    2    1    2    0    0 -0.38920995285E+02 -0.72533488161E+02 -0.11025441283E+03  0.16543258944E+03  0.91847456799E+02 0.  0.
        -11    1    4    4    0    0 -0.20764702473E+02 -0.93297876184E+02 -0.81822622688E+02  0.12581974469E+03  0.00000000000E+00 0.  1.
         11    1    4    4    0    0 -0.18156292812E+02  0.20764388022E+02 -0.28431790142E+02  0.39612844751E+02  0.00000000000E+00 0. -1.
        -11    1    3    3    0    0  0.53488727558E+02  0.45219729651E+02  0.18718182406E+02  0.72499919159E+02  0.00000000000E+00 0.  1.
         11    1    3    3    0    0 -0.21243401672E+02 -0.19316247198E+02 -0.11611788327E+01  0.28735828797E+02  0.00000000000E+00 0. -1.
         21    1    1    2  502  501  0.66756693986E+01  0.46630005708E+02  0.65263097510E+01  0.47555385743E+02  0.00000000000E+00 0. -1.
<scales pt_clust_5="13000.00000" pt_clust_6="13000.00000" pt_clust_7="13000.00000" pt_clust_8="13000.00000" pt_clust_9="47.10543"></scales>
<clustering>
<clus scale="   47.105">  1  9  2 -1</clus>
<clus scale="   90.718">  7  8 -1 -1</clus>
<clus scale="   91.847">  5  6 -1 -1</clus>
<clus scale="  113.660">  1  7  2 -1</clus>
<clus scale="  114.564">  2  5  1 -1</clus>
</clustering>
</event>
<event>
 9    1  0.1266593E-005  0.9569058E+02  0.7546771E-02  0.1289792E+00
         -2   -1    0    0    0  501 -0.00000000000E+00  0.00000000000E+00  0.60789309601E+02  0.60789309601E+02  0.00000000000E+00 0.  1.
          2   -1    0    0  502    0  0.00000000000E+00 -0.00000000000E+00 -0.34421439794E+03  0.34421439794E+03  0.00000000000E+00 0. -1.
         23    2    1    2    0    0  0.31204478818E+02  0.13079858899E+02 -0.93579279289E+01  0.96813375213E+02  0.90224478928E+02 0.  0.
         23    2    1    2    0    0 -0.14961740712E+02 -0.27903088340E+02 -0.26905212327E+03  0.28563583677E+03  0.90533696442E+02 0.  0.
        -13    1    4    4    0    0 -0.45349943250E+02 -0.10682295096E+01 -0.77147858011E+02  0.89496091885E+02  0.00000000000E+00 0.  1.
         13    1    4    4    0    0  0.30388202537E+02 -0.26834858830E+02 -0.19190426526E+03  0.19613974489E+03  0.00000000000E+00 0. -1.
        -13    1    3    3    0    0  0.40591755331E+02  0.45944329651E+02  0.25748236973E+00  0.61307734627E+02  0.00000000000E+00 0. -1.
         13    1    3    3    0    0 -0.93872765138E+01 -0.32864470752E+02 -0.96154102986E+01  0.35505640585E+02  0.00000000000E+00 0.  1.
         21    1    1    2  502  501 -0.16242738105E+02  0.14823229441E+02 -0.50150371455E+01  0.22554495556E+02  0.00000000000E+00 0.  1.
<scales pt_clust_5="13000.00000" pt_clust_6="13000.00000" pt_clust_7="13000.00000" pt_clust_8="13000.00000" pt_clust_9="21.98988"></scales>
<clustering>
<clus scale="   21.990">  1  9  2 -1</clus>
<clus scale="   90.224">  7  8 -1 -1</clus>
<clus scale="   90.534">  5  6 -1 -1</clus>
<clus scale="   95.398">  1  7  2 -1</clus>
<clus scale="   95.691">  2  5  1 -1</clus>
</clustering>
</event>
<event>
 9    1  0.1266593E-005  0.1149558E+03  0.7546771E-02  0.1251971E+00
          1   -1    0    0  502    0  0.00000000000E+00  0.00000000000E+00  0.86418794513E+03  0.86418794513E+03  0.00000000000E+00 0. -1.
         -1   -1    0    0    0  501 -0.00000000000E+00 -0.00000000000E+00 -0.22605380274E+02  0.22605380274E+02  0.00000000000E+00 0.  1.
         23    2    1    2    0    0  0.62313569240E+02  0.66325549218E+02  0.33680597831E+03  0.36071784430E+03  0.91635346783E+02 0.  0.
         23    2    1    2    0    0 -0.48879519689E+02 -0.30920835246E+02  0.41313934325E+03  0.42692230760E+03  0.90737171436E+02 0.  0.
        -13    1    3    3    0    0  0.16992267443E+02  0.27785946780E+02  0.19667288065E+02  0.38047315426E+02  0.00000000000E+00 0.  1.
         13    1    3    3    0    0  0.45321301798E+02  0.38539602437E+02  0.31713869025E+03  0.32267052888E+03  0.00000000000E+00 0. -1.
        -13    1    4    4    0    0  0.11058377312E+02  0.23776882552E+02  0.11353576051E+03  0.11652466163E+03  0.00000000000E+00 0.  1.
         13    1    4    4    0    0 -0.59937897002E+02 -0.54697717798E+02  0.29960358274E+03  0.31039764597E+03  0.00000000000E+00 0. -1.
         21    1    1    2  502  501 -0.13434049551E+02 -0.35404713972E+02  0.91637243287E+02  0.99153173505E+02  0.00000000000E+00 0.  1.
<scales pt_clust_5="13000.00000" pt_clust_6="13000.00000" pt_clust_7="13000.00000" pt_clust_8="13000.00000" pt_clust_9="37.86776"></scales>
<clustering>
<clus scale="   37.868">  2  9  1 -1</clus>
<clus scale="   90.737">  7  8 -1 -1</clus>
<clus scale="   91.635">  5  6 -1 -1</clus>
<clus scale="  114.241">  1  7  2 -1</clus>
<clus scale="  114.241">  1  5  2 -1</clus>
</clustering>
</event>
<event>
 9    1  0.1266593E-005  0.9336341E+02  0.7546771E-02  0.1295845E+00
         -1   -1    0    0    0  501 -0.00000000000E+00  0.00000000000E+00  0.33788196153E+02  0.33788196153E+02  0.00000000000E+00 0.  1.
          1   -1    0    0  502    0  0.00000000000E+00 -0.00000000000E+00 -0.36227797089E+03  0.36227797089E+03  0.00000000000E+00 0. -1.
         23    2    1    2    0    0 -0.13073300590E+02 -0.12365850439E+02 -0.12991874140E+03  0.16026182918E+03  0.92093154354E+02 0.  0.
         23    2    1    2    0    0 -0.77838901263E+01  0.17385929559E+02 -0.19244359483E+03  0.21349359826E+03  0.90455070701E+02 0.  0.
        -11    1    3    3    0    0  0.17066547850E+02  0.22247730267E+02 -0.67801048567E+01  0.28847848783E+02  0.00000000000E+00 0.  1.
         11    1    3    3    0    0 -0.30139848440E+02 -0.34613580706E+02 -0.12313863654E+03  0.13141398039E+03  0.00000000000E+00 0. -1.
        -11    1    4    4    0    0 -0.35761819505E+02 -0.12706104701E+00 -0.16965659703E+03  0.17338478825E+03  0.00000000000E+00 0. -1.
         11    1    4    4    0    0  0.27977929379E+02  0.17512990606E+02 -0.22786997801E+02  0.40108810018E+02  0.00000000000E+00 0.  1.
         21    1    1    2  502  501  0.20857190717E+02 -0.50200791198E+01 -0.61274385061E+01  0.22310739602E+02  0.00000000000E+00 0. -1.
<scales pt_clust_5="13000.00000" pt_clust_6="13000.00000" pt_clust_7="13000.00000" pt_clust_8="13000.00000" pt_clust_9="21.45282"></scales>
<clustering>
<clus scale="   21.453">  1  9  2 -1</clus>
<clus scale="   90.455">  7  8 -1 -1</clus>
<clus scale="   91.748">  2  7  1 -1</clus>
<clus scale="   92.093">  5  6 -1 -1</clus>
<clus scale="   91.748">  2  5  1 -1</clus>
</clustering>
</event>
<event>
 9    1  0.1266593E-005  0.1251252E+03  0.7546771E-02  0.1241588E+00
          1   -1    0    0  502    0  0.00000000000E+00  0.00000000000E+00  0.41123718936E+03  0.41123718936E+03  0.00000000000E+00 0. -1.
         -1   -1    0    0    0  501 -0.00000000000E+00 -0.00000000000E+00 -0.75267122493E+02  0.75267122493E+02  0.00000000000E+00 0.  1.
         23    2    1    2    0    0 -0.37871320799E+02 -0.55020368973E+02  0.16586264133E+03  0.21127717662E+03  0.11254399864E+03 0.  0.
         23    2    1    2    0    0  0.52904346025E+02  0.10692024691E+02  0.19419447014E+03  0.22258513991E+03  0.94442908975E+02 0.  0.
        -11    1    3    3    0    0 -0.72983947531E+02 -0.28190195416E+02  0.67071172721E+02  0.10305283075E+03  0.00000000000E+00 0.  1.
         11    1    3    3    0    0  0.35112626732E+02 -0.26830173557E+02  0.98791468610E+02  0.10822434587E+03  0.00000000000E+00 0. -1.
        -13    1    4    4    0    0  0.45774981664E+02  0.50171271927E+02  0.13430923247E+03  0.15050407104E+03  0.00000000000E+00 0. -1.
         13    1    4    4    0    0  0.71293643604E+01 -0.39479247237E+02  0.59885237667E+02  0.72081068867E+02  0.00000000000E+00 0.  1.
         21    1    1    2  502  501 -0.15033025226E+02  0.44328344282E+02 -0.24087044602E+02  0.52641995326E+02  0.00000000000E+00 0. -1.
<scales pt_clust_5="13000.00000" pt_clust_6="13000.00000" pt_clust_7="13000.00000" pt_clust_8="13000.00000" pt_clust_9="46.80805"></scales>
<clustering>
<clus scale="   46.808">  2  9  1 -1</clus>
<clus scale="   94.443">  7  8 -1 -1</clus>
<clus scale="  109.131">  1  7  2 -1</clus>
<clus scale="  112.544">  5  6 -1 -1</clus>
<clus scale="  109.131">  1  5  2 -1</clus>
</clustering>
</event>
<event>
 9    1  0.1266593E-005  0.9751365E+02  0.7546771E-02  0.1287331E+00
          4   -1    0    0  502    0  0.00000000000E+00  0.00000000000E+00  0.18842034855E+03  0.18842034855E+03  0.00000000000E+00 0. -1.
         -4   -1    0    0    0  501 -0.00000000000E+00 -0.00000000000E+00 -0.11681106036E+03  0.11681106036E+03  0.00000000000E+00 0.  1.
         23    2    1    2    0    0  0.11103490873E+02  0.23533075301E+02 -0.60763818226E+02  0.11311952408E+03  0.91797015090E+02 0.  0.
         23    2    1    2    0    0  0.17299229255E+02 -0.16908751327E+02  0.13005299772E+03  0.16285476462E+03  0.94988014724E+02 0.  0.
        -13    1    3    3    0    0  0.39620802564E+02  0.24394949172E+01  0.33612354681E+01  0.39837884421E+02  0.00000000000E+00 0.  1.
         13    1    3    3    0    0 -0.28517311691E+02  0.21093580384E+02 -0.64125053695E+02  0.73281639657E+02  0.00000000000E+00 0. -1.
        -13    1    4    4    0    0  0.38250374969E+02  0.27838465298E+02  0.76878292307E+02  0.90268173591E+02  0.00000000000E+00 0.  1.
         13    1    4    4    0    0 -0.20951145713E+02 -0.44747216625E+02  0.53174705410E+02  0.72586591033E+02  0.00000000000E+00 0. -1.
         21    1    1    2  502  501 -0.28402720128E+02 -0.66243239738E+01  0.23201086996E+01  0.29257120213E+02  0.00000000000E+00 0. -1.
<scales pt_clust_5="13000.00000" pt_clust_6="13000.00000" pt_clust_7="13000.00000" pt_clust_8="13000.00000" pt_clust_9="29.16498"></scales>
<clustering>
<clus scale="   29.165">  2  9  1 -1</clus>
<clus scale="   91.797">  5  6 -1 -1</clus>
<clus scale="   94.408">  2  5  1 -1</clus>
<clus scale="   94.988">  7  8 -1 -1</clus>
<clus scale="   97.514">  1  5  2 -1</clus>
</clustering>
</event>
<event>
 9    1  0.1266593E-005  0.1155556E+03  0.7546771E-02  0.1259916E+00
          1   -1    0    0  502    0  0.00000000000E+00  0.00000000000E+00  0.17573223990E+03  0.17573223990E+03  0.00000000000E+00 0. -1.
         -1   -1    0    0    0  501 -0.00000000000E+00 -0.00000000000E+00 -0.15579275389E+03  0.15579275389E+03  0.00000000000E+00 0.  1.
         23    2    1    2    0    0  0.11557443656E+02  0.27119661611E+02 -0.89605582570E+02  0.13183439830E+03  0.92098303996E+02 0.  0.
         23    2    1    2    0    0  0.30434548413E+02 -0.25482847741E+02  0.10246472998E+03  0.15707442775E+03  0.11223955495E+03 0.  0.
        -13    1    3    3    0    0 -0.73055132663E+01 -0.26126641821E+02 -0.64587086709E+02  0.70053291903E+02  0.00000000000E+00 0. -1.
         13    1    3    3    0    0  0.18862956922E+02  0.53246303432E+02 -0.25018495861E+02  0.61781106402E+02  0.00000000000E+00 0.  1.
        -13    1    4    4    0    0 -0.17997490373E+02 -0.25490123046E+02 -0.11492305734E+02  0.33252505526E+02  0.00000000000E+00 0.  1.
         13    1    4    4    0    0  0.48432038787E+02  0.72753048264E-02  0.11395703571E+03  0.12382192222E+03  0.00000000000E+00 0. -1.
         21    1    1    2  502  501 -0.41991992069E+02 -0.16368138699E+01  0.70803385981E+01  0.42616167733E+02  0.00000000000E+00 0.  1.
<scales pt_clust_5="13000.00000" pt_clust_6="13000.00000" pt_clust_7="13000.00000" pt_clust_8="13000.00000" pt_clust_9="42.02388"></scales>
<clustering>
<clus scale="   42.024">  1  9  2 -1</clus>
<clus scale="   92.098">  5  6 -1 -1</clus>
<clus scale="   96.112">  2  5  1 -1</clus>
<clus scale="  112.240">  7  8 -1 -1</clus>
<clus scale="   42.024">  1  5  2 -1</clus>
</clustering>
</event>
<event>
 9    1  0.1266593E-005  0.1126731E+03  0.7546771E-02  0.1256300E+00
          1   -1    0    0  502    0  0.00000000000E+00  0.00000000000E+00  0.31084337365E+03  0.31084337365E+03  0.00000000000E+00 0. -1.
         -1   -1    0    0    0  501 -0.00000000000E+00 -0.00000000000E+00 -0.60498783751E+02  0.60498783751E+02  0.00000000000E+00 0.  1.
         23    2    1    2    0    0 -0.11432178584E+02  0.81508943675E+02  0.11584854393E+03  0.16815054155E+03  0.89885020354E+02 0.  0.
         23    2    1    2    0    0 -0.11319879438E+02 -0.53980041517E+02  0.12824699126E+03  0.16693492981E+03  0.91531390642E+02 0.  0.
        -11    1    4    4    0    0 -0.51555578229E+02 -0.26881615580E+02  0.64668197017E+02  0.86963064620E+02  0.00000000000E+00 0.  1.
         11    1    4    4    0    0  0.40235698791E+02 -0.27098425937E+02  0.63578794240E+02  0.79971865193E+02  0.00000000000E+00 0. -1.
        -13    1    3    3    0    0 -0.37484575703E+02  0.60523391009E+01  0.58951939431E+02  0.70121718368E+02  0.00000000000E+00 0.  1.
         13    1    3    3    0    0  0.26052397119E+02  0.75456604574E+02  0.56896604503E+02  0.98028823177E+02  0.00000000000E+00 0. -1.
         21    1    1    2  502  501  0.22752058022E+02 -0.27528902158E+02  0.62490547115E+01  0.36256686046E+02  0.00000000000E+00 0.  1.
<scales pt_clust_5="13000.00000" pt_clust_6="13000.00000" pt_clust_7="13000.00000" pt_clust_8="13000.00000" pt_clust_9="35.71410"></scales>
<clustering>
<clus scale="   35.714">  2  9  1 -1</clus>
<clus scale="   89.885">  7  8 -1 -1</clus>
<clus scale="   91.531">  5  6 -1 -1</clus>
<clus scale="  111.340">  2  7  1 -1</clus>
<clus scale="  112.673">  1  5  2 -1</clus>
</clustering>
</event>
<event>
 9    1  0.1266593E-005  0.1529378E+03  0.7546771E-02  0.1198983E+00
         -2   -1    0    0    0  501 -0.00000000000E+00  0.00000000000E+00  0.11375931328E+03  0.11375931328E+03  0.00000000000E+00 0.  1.
          2   -1    0    0  502    0  0.00000000000E+00 -0.00000000000E+00 -0.37131968104E+03  0.37131968104E+03  0.00000000000E+00 0. -1.
         23    2    1    2    0    0  0.64909952923E+02 -0.39797923458E+02 -0.19521790066E+01  0.11794221275E+03  0.90052084065E+02 0.  0.
         23    2    1    2    0    0 -0.11571001364E+03  0.61812323562E+02 -0.26362944213E+03  0.31119377051E+03  0.10065539948E+03 0.  0.
        -11    1    3    3    0    0  0.38172987937E+02  0.24952764452E+01 -0.39800536513E+02  0.55204040787E+02  0.00000000000E+00 0. -1.
         11    1    3    3    0    0  0.26736964986E+02 -0.42293199903E+02  0.37848357506E+02  0.62738171958E+02  0.00000000000E+00 0.  1.
        -13    1    4    4    0    0 -0.50083749603E+02  0.75178340216E+02 -0.19699099794E+03  0.21671552340E+03  0.00000000000E+00 0. -1.
         13    1    4    4    0    0 -0.65626264040E+02 -0.13366016654E+02 -0.66638444190E+02  0.94478247111E+02  0.00000000000E+00 0.  1.
         21    1    1    2  502  501  0.50800060720E+02 -0.22014400105E+02  0.80212533792E+01  0.55943011064E+02  0.00000000000E+00 0. -1.
<scales pt_clust_5="13000.00000" pt_clust_6="13000.00000" pt_clust_7="13000.00000" pt_clust_8="13000.00000" pt_clust_9="55.36497"></scales>
<clustering>
<clus scale="   55.365">  1  9  2 -1</clus>
<clus scale="   90.052">  5  6 -1 -1</clus>
<clus scale="  100.655">  7  8 -1 -1</clus>
<clus scale="  146.177">  1  5  2 -1</clus>
<clus scale="  152.938">  2  5  1 -1</clus>
</clustering>
</event>
<event>
 9    1  0.1266593E-005  0.9196353E+02  0.7546771E-02  0.1299520E+00
         -3   -1    0    0    0  501 -0.00000000000E+00  0.00000000000E+00  0.70535307522E+02  0.70535307522E+02  0.00000000000E+00 0.  1.
          3   -1    0    0  502    0  0.00000000000E+00 -0.00000000000E+00 -0.46662766027E+03  0.46662766027E+03  0.00000000000E+00 0. -1.
         23    2    1    2    0    0  0.34679210353E+02 -0.22583635818E+01 -0.36839958724E+02  0.10078565633E+03  0.87136778262E+02 0.  0.
         23    2    1    2    0    0 -0.17263010140E+02 -0.95361610007E+01 -0.38916758769E+03  0.39980746525E+03  0.89474287204E+02 0.  0.
        -13    1    3    3    0    0  0.48080682915E+01 -0.42655689057E+02 -0.11117577676E+02  0.44342145449E+02  0.00000000000E+00 0. -1.
         13    1    3    3    0    0  0.29871142061E+02  0.40397325475E+02 -0.25722381048E+02  0.56443510879E+02  0.00000000000E+00 0.  1.
        -13    1    4    4    0    0  0.31190475019E+02 -0.24184431126E+02 -0.13513441194E+03  0.14078011838E+03  0.00000000000E+00 0.  1.
         13    1    4    4    0    0 -0.48453485158E+02  0.14648270125E+02 -0.25403317575E+03  0.25902734686E+03  0.00000000000E+00 0. -1.
         21    1    1    2  502  501 -0.17416200213E+02  0.11794524583E+02  0.29915193669E+02  0.36569846216E+02  0.00000000000E+00 0. -1.
<scales pt_clust_5="13000.00000" pt_clust_6="13000.00000" pt_clust_7="13000.00000" pt_clust_8="13000.00000" pt_clust_9="21.03414"></scales>
<clustering>
<clus scale="   21.034">  1  9  2 -1</clus>
<clus scale="   87.137">  5  6 -1 -1</clus>
<clus scale="   89.474">  7  8 -1 -1</clus>
<clus scale="   89.691">  1  5  2 -1</clus>
<clus scale="   91.964">  2  5  1 -1</clus>
</clustering>
</event>
<event>
 9    1  0.1266593E-005  0.1576915E+03  0.7546771E-02  0.1191989E+00
         -1   -1    0    0    0  501 -0.00000000000E+00  0.00000000000E+00  0.63870800517E+02  0.63870800517E+02  0.00000000000E+00 0.  1.
          1   -1    0    0  502    0  0.00000000000E+00 -0.00000000000E+00 -0.78919490419E+03  0.78919490419E+03  0.00000000000E+00 0. -1.
         23    2    1    2    0    0 -0.12500775070E+03 -0.26801066633E+02 -0.10004543410E+03  0.18496485777E+03  0.88643526650E+02 0.  0.
         23    2    1    2    0    0  0.12827950752E+03 -0.67631743735E+01 -0.61150453597E+03  0.63167298091E+03  0.92582853276E+02 0.  0.
        -11    1    4    4    0    0  0.13502948775E+02 -0.35640025939E+02 -0.11083105444E+03  0.11720095436E+03  0.00000000000E+00 0.  1.
         11    1    4    4    0    0  0.11477655875E+03  0.28876851566E+02 -0.50067348153E+03  0.51447202655E+03  0.00000000000E+00 0. -1.
        -13    1    3    3    0    0 -0.13090513529E+03 -0.43693899060E+01 -0.93296901304E+02  0.16080907252E+03  0.00000000000E+00 0.  1.
         13    1    3    3    0    0  0.58973845904E+01 -0.22431676727E+02 -0.67485327964E+01  0.24155785243E+02  0.00000000000E+00 0. -1.
         21    1    1    2  502  501 -0.32717568256E+01  0.33564241007E+02 -0.13774133600E+02  0.36427866030E+02  0.00000000000E+00 0.  1.
<scales pt_clust_5="13000.00000" pt_clust_6="13000.00000" pt_clust_7="13000.00000" pt_clust_8="13000.00000" pt_clust_9="33.72333"></scales>
<clustering>
<clus scale="   33.723">  1  9  2 -1</clus>
<clus scale="   88.644">  7  8 -1 -1</clus>
<clus scale="   92.583">  5  6 -1 -1</clus>
<clus scale="  155.411">  1  7  2 -1</clus>
<clus scale="  157.692">  2  5  1 -1</clus>
</clustering>
</event>
<event>
 9    1  0.1266593E-005  0.1017563E+03  0.7546771E-02  0.1278698E+00
         -1   -1    0    0    0  501 -0.00000000000E+00  0.00000000000E+00  0.34710724660E+03  0.34710724660E+03  0.00000000000E+00 0.  1.
          1   -1    0    0  502    0  0.00000000000E+00 -0.00000000000E+00 -0.46197476205E+02  0.46197476205E+02  0.00000000000E+00 0. -1.
         23    2    1    2    0    0 -0.31104395947E+02  0.26291998874E+02  0.13532981557E+03  0.16789706411E+03  0.90644980564E+02 0.  0.
         23    2    1    2    0    0  0.41117414961E+02  0.16856635797E+02  0.91448275968E+02  0.13905042950E+03  0.94854872223E+02 0.  0.
        -11    1    4    4    0    0 -0.23908878977E+02 -0.29134873392E+01 -0.12357052345E+01  0.24117418391E+02  0.00000000000E+00 0.  1.
         11    1    4    4    0    0  0.65026293938E+02  0.19770123136E+02  0.92683981202E+02  0.11493301111E+03  0.00000000000E+00 0. -1.
        -13    1    3    3    0    0 -0.38202291227E+02 -0.81741198935E+00  0.13454186614E+03  0.13986277905E+03  0.00000000000E+00 0.  1.
         13    1    3    3    0    0  0.70978952796E+01  0.27109410863E+02  0.78794943108E+00  0.28034285064E+02  0.00000000000E+00 0. -1.
         21    1    1    2  502  501 -0.10013019014E+02 -0.43148634670E+02  0.74131678855E+02  0.86357229191E+02  0.00000000000E+00 0.  1.
<scales pt_clust_5="13000.00000" pt_clust_6="13000.00000" pt_clust_7="13000.00000" pt_clust_8="13000.00000" pt_clust_9="44.29521"></scales>
<clustering>
<clus scale="   44.295">  1  9  2 -1</clus>
<clus scale="   90.645">  7  8 -1 -1</clus>
<clus scale="   94.855">  5  6 -1 -1</clus>
<clus scale="   97.844">  1  7  2 -1</clus>
<clus scale="  101.756">  2  5  1 -1</clus>
</clustering>
</event>
<event>
 9    1  0.1266593E-005  0.9121907E+02  0.7546771E-02  0.1300611E+00
         -1   -1    0    0    0  501 -0.00000000000E+00  0.00000000000E+00  0.90921587943E+02  0.90921587943E+02  0.00000000000E+00 0.  1.
          1   -1    0    0  502    0  0.00000000000E+00 -0.00000000000E+00 -0.14276398585E+03  0.14276398585E+03  0.00000000000E+00 0. -1.
         23    2    1    2    0    0  0.23748501887E+02 -0.14317985231E+02 -0.17872186505E+02  0.94592476141E+02  0.88652836666E+02 0.  0.
         23    2    1    2    0    0  0.13014790323E+02  0.16694782283E+02 -0.42006647734E+02  0.10138669068E+03  0.89814264292E+02 0.  0.
        -11    1    3    3    0    0  0.23084845811E+02  0.35212057873E+02 -0.15938104272E+02  0.45020243153E+02  0.00000000000E+00 0.  1.
         11    1    3    3    0    0  0.66365607620E+00 -0.49530043104E+02 -0.19340822334E+01  0.49572232988E+02  0.00000000000E+00 0. -1.
        -13    1    4    4    0    0  0.51703838902E+02  0.12352175761E+02 -0.21071087411E+02  0.57182636595E+02  0.00000000000E+00 0. -1.
         13    1    4    4    0    0 -0.38689048579E+02  0.43426065223E+01 -0.20935560323E+02  0.44204054084E+02  0.00000000000E+00 0.  1.
         21    1    1    2  502  501 -0.36763292210E+02 -0.23767970521E+01  0.80364363279E+01  0.37706406978E+02  0.00000000000E+00 0.  1.
<scales pt_clust_5="13000.00000" pt_clust_6="13000.00000" pt_clust_7="13000.00000" pt_clust_8="13000.00000" pt_clust_9="36.84004"></scales>
<clustering>
<clus scale="   36.840">  1  9  2 -1</clus>
<clus scale="   88.653">  5  6 -1 -1</clus>
<clus scale="   89.814">  7  8 -1 -1</clus>
<clus scale="   90.076">  1  5  2 -1</clus>
<clus scale="   91.219">  2  5  1 -1</clus>
</clustering>
</event>
<event>
 9    1  0.1266593E-005  0.1017830E+03  0.7546771E-02  0.1277084E+00
          3   -1    0    0  502    0  0.00000000000E+00  0.00000000000E+00  0.32487865837E+03  0.32487865837E+03  0.00000000000E+00 0. -1.
         -3   -1    0    0    0  501 -0.00000000000E+00 -0.00000000000E+00 -0.10299923364E+03  0.10299923364E+03  0.00000000000E+00 0.  1.
         23    2    1    2    0    0  0.19310214304E+02 -0.51453290915E+02  0.42515315867E+02  0.11633492211E+03  0.93305608072E+02 0.  0.
         23    2    1    2    0    0  0.66055905063E+01  0.34431112135E+02  0.23062842515E+03  0.25163125456E+03  0.94338128440E+02 0.  0.
        -11    1    3    3    0    0  0.28029292854E+01 -0.71807734210E+02  0.51741410020E+02  0.88551570375E+02  0.00000000000E+00 0.  1.
         11    1    3    3    0    0  0.16507285019E+02  0.20354443296E+02 -0.92260941532E+01  0.27783351740E+02  0.00000000000E+00 0. -1.
        -13    1    4    4    0    0  0.42600004128E+02  0.44600588532E+02  0.16412445584E+03  0.17533057307E+03  0.00000000000E+00 0. -1.
         13    1    4    4    0    0 -0.35994413621E+02 -0.10169476397E+02  0.66503969311E+02  0.76300681493E+02  0.00000000000E+00 0.  1.
         21    1    1    2  502  501 -0.25915804810E+02  0.17022178780E+02 -0.51264316285E+02  0.59911715328E+02  0.00000000000E+00 0.  1.
<scales pt_clust_5="13000.00000" pt_clust_6="13000.00000" pt_clust_7="13000.00000" pt_clust_8="13000.00000" pt_clust_9="31.00619"></scales>
<clustering>
<clus scale="   31.006">  2  9  1 -1</clus>
<clus scale="   93.306">  5  6 -1 -1</clus>
<clus scale="   94.338">  7  8 -1 -1</clus>
<clus scale="  100.827">  2  5  1 -1</clus>
<clus scale="  101.783">  1  5  2 -1</clus>
</clustering>
</event>
<event>
 9    1  0.1266593E-005  0.1168804E+03  0.7546771E-02  0.1250021E+00
         -2   -1    0    0    0  501 -0.00000000000E+00  0.00000000000E+00  0.65285909467E+02  0.65285909467E+02  0.00000000000E+00 0.  1.
          2   -1    0    0  502    0  0.00000000000E+00 -0.00000000000E+00 -0.29596660325E+03  0.29596660325E+03  0.00000000000E+00 0. -1.
         23    2    1    2    0    0 -0.29580572233E+02 -0.81159963598E+02 -0.71180945831E+02  0.14709314143E+03  0.95434350528E+02 0.  0.
         23    2    1    2    0    0  0.25690979016E+02  0.52938627486E+02 -0.14841567474E+03  0.18359093289E+03  0.90641565777E+02 0.  0.
        -11    1    3    3    0    0 -0.39966761618E+01 -0.90802019297E+02 -0.77021645903E+02  0.11913569602E+03  0.00000000000E+00 0.  1.
         11    1    3    3    0    0 -0.25583896071E+02  0.96420556988E+01  0.58407000726E+01  0.27957445406E+02  0.00000000000E+00 0. -1.
        -13    1    4    4    0    0  0.11024234073E+02  0.29200951399E+02  0.13560813459E+01  0.31242091097E+02  0.00000000000E+00 0.  1.
         13    1    4    4    0    0  0.14666744943E+02  0.23737676087E+02 -0.14977175609E+03  0.15234884179E+03  0.00000000000E+00 0. -1.
         21    1    1    2  502  501  0.38895932169E+01  0.28221336113E+02 -0.11084073209E+02  0.30568438401E+02  0.00000000000E+00 0. -1.
<scales pt_clust_5="13000.00000" pt_clust_6="13000.00000" pt_clust_7="13000.00000" pt_clust_8="13000.00000" pt_clust_9="28.48812"></scales>
<clustering>
<clus scale="   28.488">  1  9  2 -1</clus>
<clus scale="   90.642">  7  8 -1 -1</clus>
<clus scale="   95.434">  5  6 -1 -1</clus>
<clus scale="  113.001">  2  7  1 -1</clus>
<clus scale="  113.001">  2  5  1 -1</clus>
</clustering>
</event>
<event>
 9    1  0.1266593E-005  0.2009128E+03  0.7546771E-02  0.1149314E+00
         -2   -1    0    0    0  501 -0.00000000000E+00  0.00000000000E+00  0.12914709253E+03  0.12914709253E+03  0.00000000000E+00 0.  1.
          2   -1    0    0  502    0  0.00000000000E+00 -0.00000000000E+00 -0.37644855738E+03  0.37644855738E+03  0.00000000000E+00 0. -1.
         23    2    1    2    0    0 -0.10311748470E+03 -0.13983615360E+03 -0.62500744198E+02  0.20683756608E+03  0.93209818217E+02 0.  0.
         23    2    1    2    0    0  0.12867160240E+03  0.12795598089E+03 -0.17853185891E+03  0.26988854863E+03  0.89649817209E+02 0.  0.
        -13    1    4    4    0    0  0.10222702834E+03  0.87698532015E+02 -0.71439667618E+02  0.15246318884E+03  0.00000000000E+00 0.  1.
         13    1    4    4    0    0  0.26444574060E+02  0.40257448879E+02 -0.10709219129E+03  0.11742535979E+03  0.00000000000E+00 0. -1.
        -13    1    3    3    0    0 -0.12002337889E+03 -0.12692752141E+03 -0.62600111931E+02  0.18556664891E+03  0.00000000000E+00 0.  1.
         13    1    3    3    0    0  0.16905894194E+02 -0.12908632191E+02  0.99367733138E-01  0.21270917175E+02  0.00000000000E+00 0. -1.
         21    1    1    2  502  501 -0.25554117705E+02  0.11880172710E+02 -0.62688617390E+01  0.28869535202E+02  0.00000000000E+00 0.  1.
<scales pt_clust_5="13000.00000" pt_clust_6="13000.00000" pt_clust_7="13000.00000" pt_clust_8="13000.00000" pt_clust_9="28.18069"></scales>
<clustering>
<clus scale="   28.181">  1  9  2 -1</clus>
<clus scale="   89.650">  5  6 -1 -1</clus>
<clus scale="   93.210">  7  8 -1 -1</clus>
<clus scale="  199.286">  2  5  1 -1</clus>
<clus scale="  199.286">  2  5  1 -1</clus>
</clustering>
</event>
<event>
 9    1  0.1266593E-005  0.1096842E+03  0.7546771E-02  0.1264449E+00
         -1   -1    0    0    0  501 -0.00000000000E+00  0.00000000000E+00  0.29083570640E+02  0.29083570640E+02  0.00000000000E+00 0.  1.
          1   -1    0    0  502    0  0.00000000000E+00 -0.00000000000E+00 -0.77434175349E+03  0.77434175349E+03  0.00000000000E+00 0. -1.
         23    2    1    2    0    0  0.77240949894E+01  0.36305866125E+02 -0.14635265075E+03  0.18015231097E+03  0.98275018230E+02 0.  0.
         23    2    1    2    0    0 -0.41085964719E+02 -0.72377245352E+02 -0.44731015450E+03  0.46391393039E+03  0.90571730410E+02 0.  0.
        -11    1    3    3    0    0  0.58160365073E+01  0.63170274368E+02 -0.51985087598E+02  0.82016822524E+02  0.00000000000E+00 0.  1.
         11    1    3    3    0    0  0.19080584822E+01 -0.26864408243E+02 -0.94367563150E+02  0.98135488445E+02  0.00000000000E+00 0. -1.
        -13    1    4    4    0    0  0.28348291004E+02 -0.20786291573E+02 -0.10019139365E+03  0.10617914523E+03  0.00000000000E+00 0.  1.
         13    1    4    4    0    0 -0.69434255723E+02 -0.51590953779E+02 -0.34711876084E+03  0.35773478515E+03  0.00000000000E+00 0. -1.
         21    1    1    2  502  501  0.33361869730E+02  0.36071379227E+02 -0.15159537761E+03  0.15935908277E+03  0.00000000000E+00 0.  1.
<scales pt_clust_5="13000.00000" pt_clust_6="13000.00000" pt_clust_7="13000.00000" pt_clust_8="13000.00000" pt_clust_9="49.13409"></scales>
<clustering>
<clus scale="   49.134">  2  9  1 -1</clus>
<clus scale="   90.572">  7  8 -1 -1</clus>
<clus scale="   98.275">  5  6 -1 -1</clus>
<clus scale="  102.839">  2  7  1 -1</clus>
<clus scale="   49.134">  2  5  1 -1</clus>
</clustering>
</event>
<event>
 9    1  0.1266593E-005  0.9125693E+02  0.7546771E-02  0.1303550E+00
         -2   -1    0    0    0  501 -0.00000000000E+00  0.00000000000E+00  0.20432663724E+03  0.20432663724E+03  0.00000000000E+00 0.  1.
          2   -1    0    0  502    0  0.00000000000E+00 -0.00000000000E+00 -0.53975900551E+03  0.53975900551E+03  0.00000000000E+00 0. -1.
         23    2    1    2    0    0 -0.19170045909E+02 -0.35273594300E+02  0.11871333208E+03  0.15060163704E+03  0.83524132735E+02 0.  0.
         23    2    1    2    0    0  0.15702601394E+02 -0.74588887358E+01 -0.51277843926E+03  0.52084870886E+03  0.89662941321E+02 0.  0.
        -13    1    3    3    0    0  0.14285388915E+02  0.15622645115E+02  0.68399606061E+02  0.71600596968E+02  0.00000000000E+00 0.  1.
         13    1    3    3    0    0 -0.33455434824E+02 -0.50896239416E+02  0.50313726021E+02  0.79001040069E+02  0.00000000000E+00 0. -1.
        -13    1    4    4    0    0 -0.24139744307E+02 -0.35175279452E+02 -0.25411601785E+03  0.25767222991E+03  0.00000000000E+00 0. -1.
         13    1    4    4    0    0  0.39842345701E+02  0.27716390717E+02 -0.25866242141E+03  0.26317647895E+03  0.00000000000E+00 0.  1.
         21    1    1    2  502  501  0.34674445144E+01  0.42732483036E+02  0.58632738904E+02  0.72635296855E+02  0.00000000000E+00 0.  1.
<scales pt_clust_5="13000.00000" pt_clust_6="13000.00000" pt_clust_7="13000.00000" pt_clust_8="13000.00000" pt_clust_9="42.87293"></scales>
<clustering>
<clus scale="   42.873">  1  9  2 -1</clus>
<clus scale="   83.524">  5  6 -1 -1</clus>
<clus scale="   85.233">  1  5  2 -1</clus>
<clus scale="   89.663">  7  8 -1 -1</clus>
<clus scale="   91.257">  2  5  1 -1</clus>
</clustering>
</event>
<event>
 9    1  0.1266593E-005  0.1311009E+03  0.7546771E-02  0.1226373E+00
          1   -1    0    0  502    0  0.00000000000E+00  0.00000000000E+00  0.56166154101E+03  0.56166154101E+03  0.00000000000E+00 0. -1.
         -1   -1    0    0    0  501 -0.00000000000E+00 -0.00000000000E+00 -0.12163639698E+03  0.12163639698E+03  0.00000000000E+00 0.  1.
         23    2    1    2    0    0  0.79553019661E+02  0.76726219833E+02 -0.49427424777E+02  0.15096534999E+03  0.90176886337E+02 0.  0.
         23    2    1    2    0    0 -0.58052510557E+02 -0.71011177904E+02  0.49293372781E+03  0.50981477141E+03  0.92275455925E+02 0.  0.
        -11    1    4    4    0    0  0.17513655117E+02 -0.43354939272E+02  0.13251796947E+03  0.14052541090E+03  0.00000000000E+00 0.  1.
         11    1    4    4    0    0 -0.75566165674E+02 -0.27656238632E+02  0.36041575833E+03  0.36928936051E+03  0.00000000000E+00 0. -1.
        -13    1    3    3    0    0  0.39780493218E+02  0.46427069304E+02 -0.73390749885E+02  0.95520482482E+02  0.00000000000E+00 0.  1.
         13    1    3    3    0    0  0.39772526443E+02  0.30299150529E+02  0.23963325108E+02  0.55444867505E+02  0.00000000000E+00 0. -1.
         21    1    1    2  502  501 -0.21500509104E+02 -0.57150419289E+01 -0.34811589984E+01  0.22517816589E+02  0.00000000000E+00 0.  1.
<scales pt_clust_5="13000.00000" pt_clust_6="13000.00000" pt_clust_7="13000.00000" pt_clust_8="13000.00000" pt_clust_9="22.24710"></scales>
<clustering>
<clus scale="   22.247">  2  9  1 -1</clus>
<clus scale="   90.177">  7  8 -1 -1</clus>
<clus scale="   92.275">  5  6 -1 -1</clus>
<clus scale="  129.632">  2  7  1 -1</clus>
<clus scale="  131.101">  1  5  2 -1</clus>
</clustering>
</event>
<event>
 9    1  0.1266593E-005  0.1216172E+03  0.7546771E-02  0.1240634E+00
          1   -1    0    0  502    0  0.00000000000E+00  0.00000000000E+00  0.47343672008E+03  0.47343672008E+03  0.00000000000E+00 0. -1.
         -1   -1    0    0    0  501 -0.00000000000E+00 -0.00000000000E+00 -0.34216977560E+03  0.34216977560E+03  0.00000000000E+00 0.  1.
         23    2    1    2    0    0 -0.48465731062E+02 -0.86317519645E+01 -0.27892674061E+03  0.29871929272E+03  0.94919202414E+02 0.  0.
         23    2    1    2    0    0  0.76054831690E+02  0.13858104992E+01  0.45092601136E+03  0.46716010225E+03  0.95488405167E+02 0.  0.
        -13    1    3    3    0    0 -0.67426546176E+02  0.12260529935E+02 -0.24595419341E+03  0.25532356918E+03  0.00000000000E+00 0.  1.
         13    1    3    3    0    0  0.18960815114E+02 -0.20892281900E+02 -0.32972547208E+02  0.43395723546E+02  0.00000000000E+00 0. -1.
        -13    1    4    4    0    0  0.81061823557E+02 -0.19066417349E+02  0.42802459994E+03  0.43605000362E+03  0.00000000000E+00 0. -1.
         13    1    4    4    0    0 -0.50069918669E+01  0.20452227848E+02  0.22901411422E+02  0.31110098628E+02  0.00000000000E+00 0.  1.
         21    1    1    2  502  501 -0.27589100628E+02  0.72459414652E+01 -0.40732326267E+02  0.49727100703E+02  0.00000000000E+00 0.  1.
<scales pt_clust_5="13000.00000" pt_clust_6="13000.00000" pt_clust_7="13000.00000" pt_clust_8="13000.00000" pt_clust_9="28.52476"></scales>
<clustering>
<clus scale="   28.525">  2  9  1 -1</clus>
<clus scale="   94.919">  5  6 -1 -1</clus>
<clus scale="   95.488">  7  8 -1 -1</clus>
<clus scale="  121.171">  2  5  1 -1</clus>
<clus scale="  121.617">  1  5  2 -1</clus>
</clustering>
</event>
<event>
 9    1  0.1266593E-005  0.9571958E+02  0.7546771E-02  0.1294204E+00
         -4   -1    0    0    0  501 -0.00000000000E+00  0.00000000000E+00  0.80957649513E+02  0.80957649513E+02  0.00000000000E+00 0.  1.
          4   -1    0    0  502    0  0.00000000000E+00 -0.00000000000E+00 -0.22398245569E+03  0.22398245569E+03  0.00000000000E+00 0. -1.
         23    2    1    2    0    0 -0.12126788995E+02  0.30929152650E+02 -0.29457339206E+02  0.10425664474E+03  0.94329431485E+02 0.  0.
         23    2    1    2    0    0  0.13073845107E+02 -0.28937475597E+01 -0.13812901153E+03  0.16339874074E+03  0.86256741475E+02 0.  0.
        -11    1    4    4    0    0  0.44134688136E+02 -0.17698613508E+02 -0.51036966516E+02  0.69755885544E+02  0.00000000000E+00 0.  1.
         11    1    4    4    0    0 -0.31060843029E+02  0.14804865948E+02 -0.87092045010E+02  0.93642855197E+02  0.00000000000E+00 0. -1.
        -13    1    3    3    0    0  0.81570465427E+00  0.64137519420E+02 -0.22263155451E+02  0.67896501103E+02  0.00000000000E+00 0.  1.
         13    1    3    3    0    0 -0.12942493649E+02 -0.33208366770E+02 -0.71941837559E+01  0.36360143637E+02  0.00000000000E+00 0. -1.
         21    1    1    2  502  501 -0.94705611206E+00 -0.28035405090E+02  0.24561544555E+02  0.37284719722E+02  0.00000000000E+00 0.  1.
<scales pt_clust_5="13000.00000" pt_clust_6="13000.00000" pt_clust_7="13000.00000" pt_clust_8="13000.00000" pt_clust_9="28.05140"></scales>
<clustering>
<clus scale="   28.051">  1  9  2 -1</clus>
<clus scale="   86.257">  5  6 -1 -1</clus>
<clus scale="   87.775">  2  5  1 -1</clus>
<clus scale="   94.329">  7  8 -1 -1</clus>
<clus scale="   87.775">  2  5  1 -1</clus>
</clustering>
</event>
<event>
 9    1  0.1266593E-005  0.1006645E+03  0.7546771E-02  0.1279784E+00
         -3   -1    0    0    0  501 -0.00000000000E+00  0.00000000000E+00  0.84203370238E+02  0.84203370238E+02  0.00000000000E+00 0.  1.
          3   -1    0    0  502    0  0.00000000000E+00 -0.00000000000E+00 -0.26062999257E+03  0.26062999257E+03  0.00000000000E+00 0. -1.
         23    2    1    2    0    0  0.48841018231E+01  0.51113204547E+01 -0.92495155812E+01  0.92604382231E+02  0.91869679560E+02 0.  0.
         23    2    1    2    0    0 -0.39996510425E+01 -0.53419532507E+02 -0.17432763500E+03  0.20338642066E+03  0.90034816169E+02 0.  0.
        -13    1    4    4    0    0 -0.27380560043E+02 -0.63801352136E+02 -0.15916453615E+03  0.17364808427E+03  0.00000000000E+00 0. -1.
         13    1    4    4    0    0  0.23380909001E+02  0.10381819629E+02 -0.15163098848E+02  0.29738336389E+02  0.00000000000E+00 0.  1.
        -13    1    3    3    0    0  0.12650397974E+02 -0.39509997873E+02  0.11108482043E+02  0.42947303456E+02  0.00000000000E+00 0. -1.
         13    1    3    3    0    0 -0.77662961511E+01  0.44621318328E+02 -0.20357997624E+02  0.49657078775E+02  0.00000000000E+00 0.  1.
         21    1    1    2  502  501 -0.88445078059E+00  0.48308212052E+02  0.71505282504E+01  0.48842559916E+02  0.00000000000E+00 0.  1.
<scales pt_clust_5="13000.00000" pt_clust_6="13000.00000" pt_clust_7="13000.00000" pt_clust_8="13000.00000" pt_clust_9="48.31631"></scales>
<clustering>
<clus scale="   48.316">  1  9  2 -1</clus>
<clus scale="   90.035">  5  6 -1 -1</clus>
<clus scale="   91.870">  7  8 -1 -1</clus>
<clus scale="   98.993">  2  5  1 -1</clus>
<clus scale="   98.993">  2  5  1 -1</clus>
</clustering>
</event>
<event>
 9    1  0.1266593E-005  0.2761583E+03  0.7546771E-02  0.1098087E+00
         -1   -1    0    0    0  501 -0.00000000000E+00  0.00000000000E+00  0.23711500992E+03  0.23711500992E+03  0.00000000000E+00 0.  1.
          1   -1    0    0  502    0  0.00000000000E+00 -0.00000000000E+00 -0.40675411359E+03  0.40675411359E+03  0.00000000000E+00 0. -1.
         23    2    1    2    0    0  0.90737316656E+02 -0.22320588242E+03  0.43335508660E+02  0.26224137042E+03  0.94012996288E+02 0.  0.
         23    2    1    2    0    0 -0.10551520303E+03  0.24666189071E+03 -0.21340417877E+03  0.35390132565E+03  0.87916200895E+02 0.  0.
        -11    1    4    4    0    0  0.13017786036E+02  0.48705614140E+02 -0.26430621569E+02  0.56923434178E+02  0.00000000000E+00 0.  1.
         11    1    4    4    0    0 -0.11853298906E+03  0.19795627657E+03 -0.18697355720E+03  0.29697789147E+03  0.00000000000E+00 0. -1.
        -13    1    3    3    0    0  0.69676391540E+02 -0.12968480035E+03  0.69606590443E+02  0.16284355810E+03  0.00000000000E+00 0. -1.
         13    1    3    3    0    0  0.21060925117E+02 -0.93521082065E+02 -0.26271081783E+02  0.99397812327E+02  0.00000000000E+00 0.  1.
         21    1    1    2  502  501  0.14777886369E+02 -0.23456008297E+02  0.42956643638E+00  0.27726427431E+02  0.00000000000E+00 0. -1.
<scales pt_clust_5="13000.00000" pt_clust_6="13000.00000" pt_clust_7="13000.00000" pt_clust_8="13000.00000" pt_clust_9="27.72310"></scales>
<clustering>
<clus scale="   27.723">  1  9  2 -1</clus>
<clus scale="   87.916">  5  6 -1 -1</clus>
<clus scale="   94.013">  7  8 -1 -1</clus>
<clus scale="  274.143">  2  5  1 -1</clus>
<clus scale="  274.143">  2  5  1 -1</clus>
</clustering>
</event>
<event>
 9    1  0.1266593E-005  0.2113650E+03  0.7546771E-02  0.1140736E+00
          1   -1    0    0  502    0  0.00000000000E+00  0.00000000000E+00  0.48979770225E+03  0.48979770225E+03  0.00000000000E+00 0. -1.
         -1   -1    0    0    0  501 -0.00000000000E+00 -0.00000000000E+00 -0.17288844212E+03  0.17288844212E+03  0.00000000000E+00 0.  1.
         23    2    1    2    0    0  0.18297873789E+03 -0.11374335327E+03  0.20566475407E+03  0.31022689302E+03  0.86740792891E+02 0.  0.
         23    2    1    2    0    0 -0.12913572785E+03  0.11513932101E+03  0.17987593548E+03  0.26521653497E+03  0.89729364249E+02 0.  0.
        -11    1    4    4    0    0 -0.23815656927E+02 -0.62317824384E+01  0.82864780336E+00  0.24631428793E+02  0.00000000000E+00 0.  1.
         11    1    4    4    0    0 -0.10532007093E+03  0.12137110345E+03  0.17904728768E+03  0.24058510618E+03  0.00000000000E+00 0. -1.
        -13    1    3    3    0    0  0.58478411621E+01 -0.39017916433E+02  0.43408594931E+02  0.58659195041E+02  0.00000000000E+00 0. -1.
         13    1    3    3    0    0  0.17713089673E+03 -0.74725436839E+02  0.16225615914E+03  0.25156769798E+03  0.00000000000E+00 0.  1.
         21    1    1    2  502  501 -0.53843010040E+02 -0.13959677349E+01 -0.68631429425E+02  0.87242716378E+02  0.00000000000E+00 0. -1.
<scales pt_clust_5="13000.00000" pt_clust_6="13000.00000" pt_clust_7="13000.00000" pt_clust_8="13000.00000" pt_clust_9="53.86110"></scales>
<clustering>
<clus scale="   53.861">  2  9  1 -1</clus>
<clus scale="   86.741">  7  8 -1 -1</clus>
<clus scale="   89.729">  5  6 -1 -1</clus>
<clus scale="  210.114">  2  7  1 -1</clus>
<clus scale="  211.365">  1  5  2 -1</clus>
</clustering>
</event>
<event>
 9    1  0.1266593E-005  0.1038870E+03  0.7546771E-02  0.1272400E+00
          3   -1    0    0  502    0  0.00000000000E+00  0.00000000000E+00  0.11393827662E+03  0.11393827662E+03  0.00000000000E+00 0. -1.
         -3   -1    0    0    0  501 -0.00000000000E+00 -0.00000000000E+00 -0.13926095099E+03  0.13926095099E+03  0.00000000000E+00 0.  1.
         23    2    1    2    0    0  0.28094904402E+02 -0.26351160846E+02 -0.97771969678E+01  0.99291649114E+02  0.90991926411E+02 0.  0.
         23    2    1    2    0    0 -0.59026541473E+02  0.20435354637E+02  0.13512121579E+02  0.11105775944E+03  0.90826825247E+02 0.  0.
        -13    1    4    4    0    0 -0.21542873235E+02 -0.32681885884E+02  0.22934359183E+02  0.45367233587E+02  0.00000000000E+00 0. -1.
         13    1    4    4    0    0 -0.37483668237E+02  0.53117240521E+02 -0.94222376039E+01  0.65690525851E+02  0.00000000000E+00 0.  1.
        -13    1    3    3    0    0  0.24718755300E+01 -0.53017190545E+02  0.14541608982E+02  0.55030819126E+02  0.00000000000E+00 0. -1.
         13    1    3    3    0    0  0.25623028872E+02  0.26666029699E+02 -0.24318805950E+02  0.44260829988E+02  0.00000000000E+00 0.  1.
         21    1    1    2  502  501  0.30931637071E+02  0.59158062092E+01 -0.29057598978E+02  0.42849819059E+02  0.00000000000E+00 0.  1.
<scales pt_clust_5="13000.00000" pt_clust_6="13000.00000" pt_clust_7="13000.00000" pt_clust_8="13000.00000" pt_clust_9="31.49227"></scales>
<clustering>
<clus scale="   31.492">  2  9  1 -1</clus>
<clus scale="   90.827">  5  6 -1 -1</clus>
<clus scale="   90.992">  7  8 -1 -1</clus>
<clus scale="  103.742">  1  5  2 -1</clus>
<clus scale="  103.742">  1  5  2 -1</clus>
</clustering>
</event>
<event>
 9    1  0.1266593E-005  0.3014388E+03  0.7546771E-02  0.1084985E+00
          1   -1    0    0  502    0  0.00000000000E+00  0.00000000000E+00  0.13462363258E+03  0.13462363258E+03  0.00000000000E+00 0. -1.
         -1   -1    0    0    0  501 -0.00000000000E+00 -0.00000000000E+00 -0.11052302415E+04  0.11052302415E+04  0.00000000000E+00 0.  1.
         23    2    1    2    0    0 -0.14584901394E+03 -0.24152660978E+03 -0.71749241853E+03  0.77661698259E+03  0.93442650376E+02 0.  0.
         23    2    1    2    0    0  0.13123292634E+03  0.25638635176E+03 -0.11014667021E+03  0.31875798723E+03  0.80736132779E+02 0.  0.
        -11    1    4    4    0    0  0.10772366781E+03  0.17589505078E+03 -0.41512521354E+02  0.21039664191E+03  0.00000000000E+00 0. -1.
         11    1    4    4    0    0  0.23509258529E+02  0.80491300980E+02 -0.68634148859E+02  0.10836134532E+03  0.00000000000E+00 0.  1.
        -13    1    3    3    0    0 -0.11382259286E+03 -0.22808835389E+03 -0.55922036980E+03  0.61457896305E+03  0.00000000000E+00 0.  1.
         13    1    3    3    0    0 -0.32026421075E+02 -0.13438255885E+02 -0.15827204873E+03  0.16203801954E+03  0.00000000000E+00 0. -1.
         21    1    1    2  502  501  0.14616087598E+02 -0.14859741986E+02 -0.14296752015E+03  0.14447890422E+03  0.00000000000E+00 0. -1.
<scales pt_clust_5="13000.00000" pt_clust_6="13000.00000" pt_clust_7="13000.00000" pt_clust_8="13000.00000" pt_clust_9="20.84327"></scales>
<clustering>
<clus scale="   20.843">  2  9  1 -1</clus>
<clus scale="   80.736">  5  6 -1 -1</clus>
<clus scale="   93.443">  7  8 -1 -1</clus>
<clus scale="  297.745">  1  5  2 -1</clus>
<clus scale="  297.745">  1  5  2 -1</clus>
</clustering>
</event>
<event>
 9    1  0.1266593E-005  0.1102701E+03  0.7546771E-02  0.1260309E+00
          2   -1    0    0  502    0  0.00000000000E+00  0.00000000000E+00  0.51460411254E+03  0.51460411254E+03  0.00000000000E+00 0. -1.
         -2   -1    0    0    0  501 -0.00000000000E+00 -0.00000000000E+00 -0.46946064409E+02  0.46946064409E+02  0.00000000000E+00 0.  1.
         23    2    1    2    0    0 -0.91983572202E+01  0.37807127270E+02  0.67581608460E+02  0.11993341733E+03  0.91119493762E+02 0.  0.
         23    2    1    2    0    0  0.67269840803E+01 -0.69052779239E+02  0.39336952331E+03  0.40956397223E+03  0.90496004568E+02 0.  0.
        -11    1    4    4    0    0 -0.26453470193E+02 -0.62460090473E+02  0.33751531480E+03  0.34426390562E+03  0.00000000000E+00 0. -1.
         11    1    4    4    0    0  0.33180454274E+02 -0.65926887659E+01  0.55854208511E+02  0.65300066611E+02  0.00000000000E+00 0.  1.
        -13    1    3    3    0    0 -0.30985815035E+02  0.32605702959E+02  0.81835855937E+02  0.93382867357E+02  0.00000000000E+00 0. -1.
         13    1    3    3    0    0  0.21787457815E+02  0.52014243109E+01 -0.14254247477E+02  0.26550549977E+02  0.00000000000E+00 0.  1.
         21    1    1    2  502  501  0.24713731398E+01  0.31245651969E+02  0.67069163587E+01  0.32052787386E+02  0.00000000000E+00 0.  1.
<scales pt_clust_5="13000.00000" pt_clust_6="13000.00000" pt_clust_7="13000.00000" pt_clust_8="13000.00000" pt_clust_9="31.34324"></scales>
<clustering>
<clus scale="   31.343">  2  9  1 -1</clus>
<clus scale="   90.496">  5  6 -1 -1</clus>
<clus scale="   91.119">  7  8 -1 -1</clus>
<clus scale="  109.755">  1  5  2 -1</clus>
<clus scale="  109.755">  1  5  2 -1</clus>
</clustering>
</event>
<event>
 9    1  0.1266593E-005  0.1393039E+03  0.7546771E-02  0.1233710E+00
          1   -1    0    0  502    0  0.00000000000E+00  0.00000000000E+00  0.14139218673E+03  0.14139218673E+03  0.00000000000E+00 0. -1.
         -1   -1    0    0    0  501 -0.00000000000E+00 -0.00000000000E+00 -0.34004466935E+03  0.34004466935E+03  0.00000000000E+00 0.  1.
         23    2    1    2    0    0 -0.12003680429E+02 -0.89402422356E+01 -0.21504246989E+03  0.23423743669E+03  0.91650949882E+02 0.  0.
         23    2    1    2    0    0 -0.51031716149E+02 -0.83431649009E+02 -0.61231429119E+01  0.13312545855E+03  0.90110036758E+02 0.  0.
        -11    1    4    4    0    0 -0.23844314443E+02 -0.42280065797E+02 -0.48117417228E+02  0.68347941708E+02  0.00000000000E+00 0.  1.
         11    1    4    4    0    0 -0.27187401706E+02 -0.41151583212E+02  0.41994274316E+02  0.64777516838E+02  0.00000000000E+00 0. -1.
        -11    1    3    3    0    0 -0.31872189795E+02  0.33318940525E+02 -0.11104025256E+03  0.12023279906E+03  0.00000000000E+00 0. -1.
         11    1    3    3    0    0  0.19868509366E+02 -0.42259182761E+02 -0.10400221733E+03  0.11400463763E+03  0.00000000000E+00 0.  1.
         21    1    1    2  502  501  0.63035396578E+02  0.92371891245E+02  0.22513130175E+02  0.11407396085E+03  0.00000000000E+00 0. -1.
<scales pt_clust_5="13000.00000" pt_clust_6="13000.00000" pt_clust_7="13000.00000" pt_clust_8="13000.00000" pt_clust_9="106.23443"></scales>
<clustering>
<clus scale="   90.110">  5  6 -1 -1</clus>
<clus scale="   91.651">  7  8 -1 -1</clus>
<clus scale="   92.865">  2  7  1 -1</clus>
<clus scale="  106.234">  1  9  2 -1</clus>
<clus scale="  106.234">  1  5  2 -1</clus>
</clustering>
</event>
<event>
 9    1  0.1266593E-005  0.1105267E+03  0.7546771E-02  0.1259881E+00
         -1   -1    0    0    0  501 -0.00000000000E+00  0.00000000000E+00  0.85799414928E+02  0.85799414928E+02  0.00000000000E+00 0.  1.
          1   -1    0    0  502    0  0.00000000000E+00 -0.00000000000E+00 -0.25757213307E+03  0.25757213307E+03  0.00000000000E+00 0. -1.
         23    2    1    2    0    0 -0.49264700164E+02 -0.68397480338E+01 -0.31664633772E+01  0.10591480118E+03  0.93456544890E+02 0.  0.
         23    2    1    2    0    0  0.85414288366E+02 -0.11072713735E+02 -0.12156963203E+03  0.17548826377E+03  0.92729443229E+02 0.  0.
        -11    1    3    3    0    0 -0.29583302208E+02  0.26820110454E+02  0.33702171894E+02  0.52252526108E+02  0.00000000000E+00 0.  1.
         11    1    3    3    0    0 -0.19681397956E+02 -0.33659858488E+02 -0.36868635271E+02  0.53662275070E+02  0.00000000000E+00 0. -1.
        -13    1    4    4    0    0  0.30006656063E+02  0.10823197557E+02  0.79922487476E+01  0.32884906165E+02  0.00000000000E+00 0.  1.
         13    1    4    4    0    0  0.55407632303E+02 -0.21895911292E+02 -0.12956188078E+03  0.14260335760E+03  0.00000000000E+00 0. -1.
         21    1    1    2  502  501 -0.36149588202E+02  0.17912461768E+02 -0.47036622737E+02  0.61968483056E+02  0.00000000000E+00 0.  1.
<scales pt_clust_5="13000.00000" pt_clust_6="13000.00000" pt_clust_7="13000.00000" pt_clust_8="13000.00000" pt_clust_9="40.34413"></scales>
<clustering>
<clus scale="   40.344">  2  9  1 -1</clus>
<clus scale="   92.729">  7  8 -1 -1</clus>
<clus scale="   93.457">  5  6 -1 -1</clus>
<clus scale="  109.913">  2  7  1 -1</clus>
<clus scale="   40.344">  2  5  1 -1</clus>
</clustering>
</event>
<event>
 9    1  0.1266593E-005  0.9987529E+02  0.7546771E-02  0.1282018E+00
         -1   -1    0    0    0  501 -0.00000000000E+00  0.00000000000E+00  0.17920707743E+03  0.17920707743E+03  0.00000000000E+00 0.  1.
          1   -1    0    0  502    0  0.00000000000E+00 -0.00000000000E+00 -0.67992698648E+02  0.67992698648E+02  0.00000000000E+00 0. -1.
         23    2    1    2    0    0  0.29665833480E+02 -0.21080759427E+02  0.70630645060E+02  0.12167124974E+03  0.92145238058E+02 0.  0.
         23    2    1    2    0    0 -0.95799340853E+01  0.23992889795E+02  0.34563628120E+02  0.10435860595E+03  0.95019157800E+02 0.  0.
        -13    1    3    3    0    0  0.53248820861E+02 -0.59336298554E+01  0.76144638048E+02  0.93105589466E+02  0.00000000000E+00 0.  1.
         13    1    3    3    0    0 -0.23582987380E+02 -0.15147129572E+02 -0.55139929876E+01  0.28565660271E+02  0.00000000000E+00 0. -1.
        -13    1    4    4    0    0  0.34838875054E+02 -0.14123734250E+02  0.24754114282E+02  0.45011034848E+02  0.00000000000E+00 0.  1.
         13    1    4    4    0    0 -0.44418809139E+02  0.38116624045E+02  0.98095138375E+01  0.59347571101E+02  0.00000000000E+00 0. -1.
         21    1    1    2  502  501 -0.20085899395E+02 -0.29121303676E+01  0.60201055975E+01  0.21169920387E+02  0.00000000000E+00 0.  1.
<scales pt_clust_5="13000.00000" pt_clust_6="13000.00000" pt_clust_7="13000.00000" pt_clust_8="13000.00000" pt_clust_9="20.29591"></scales>
<clustering>
<clus scale="   20.296">  2  9  1 -1</clus>
<clus scale="   92.145">  5  6 -1 -1</clus>
<clus scale="   95.019">  7  8 -1 -1</clus>
<clus scale="   97.145">  1  5  2 -1</clus>
<clus scale="   20.296">  2  5  1 -1</clus>
</clustering>
</event>
<event>
 9    1  0.1266593E-005  0.9569374E+02  0.7546771E-02  0.1293530E+00
          1   -1    0    0  502    0  0.00000000000E+00  0.00000000000E+00  0.13344931183E+03  0.13344931183E+03  0.00000000000E+00 0. -1.
         -1   -1    0    0    0  501 -0.00000000000E+00 -0.00000000000E+00 -0.11486001296E+03  0.11486001296E+03  0.00000000000E+00 0.  1.
         23    2    1    2    0    0  0.51910765221E-02 -0.12241036400E+02 -0.24999311045E+01  0.95310735821E+02  0.94488325777E+02 0.  0.
         23    2    1    2    0    0 -0.22355579208E+02 -0.17644523289E+01  0.58117432190E+02  0.10753672228E+03  0.87656291848E+02 0.  0.
        -11    1    3    3    0    0 -0.12094983007E+02  0.35485301269E+02 -0.20691814151E+02  0.42821097521E+02  0.00000000000E+00 0.  1.
         11    1    3    3    0    0  0.12100174084E+02 -0.47726337668E+02  0.18191883046E+02  0.52489638300E+02  0.00000000000E+00 0. -1.
        -13    1    4    4    0    0 -0.21499367869E+02  0.39211838630E+02  0.12972718999E+02  0.46562673310E+02  0.00000000000E+00 0.  1.
         13    1    4    4    0    0 -0.85621133889E+00 -0.40976290959E+02  0.45144713191E+02  0.60974048969E+02  0.00000000000E+00 0. -1.
         21    1    1    2  502  501  0.22350388131E+02  0.14005488729E+02 -0.37028202213E+02  0.45461866694E+02  0.00000000000E+00 0.  1.
<scales pt_clust_5="13000.00000" pt_clust_6="13000.00000" pt_clust_7="13000.00000" pt_clust_8="13000.00000" pt_clust_9="26.37600"></scales>
<clustering>
<clus scale="   26.376">  2  9  1 -1</clus>
<clus scale="   87.656">  7  8 -1 -1</clus>
<clus scale="   88.954">  1  7  2 -1</clus>
<clus scale="   94.488">  5  6 -1 -1</clus>
<clus scale="   88.954">  1  5  2 -1</clus>
</clustering>
</event>
<event>
 9    1  0.1266593E-005  0.1167950E+03  0.7546771E-02  0.1248560E+00
          1   -1    0    0  502    0  0.00000000000E+00  0.00000000000E+00  0.19857468835E+03  0.19857468835E+03  0.00000000000E+00 0. -1.
         -1   -1    0    0    0  501 -0.00000000000E+00 -0.00000000000E+00 -0.16203079902E+03  0.16203079902E+03  0.00000000000E+00 0.  1.
         23    2    1    2    0    0 -0.12257916762E+02 -0.89786542584E+02 -0.15497955505E+02  0.12929020278E+03  0.90905941269E+02 0.  0.
         23    2    1    2    0    0  0.28792875442E+02  0.61865593207E+02  0.11415922306E+03  0.16123281209E+03  0.91144446824E+02 0.  0.
        -11    1    3    3    0    0  0.25070090675E+02  0.54449228676E+01 -0.73170768935E+01  0.26677635685E+02  0.00000000000E+00 0. -1.
         11    1    3    3    0    0 -0.37328007437E+02 -0.95231465452E+02 -0.81808786116E+01  0.10261256710E+03  0.00000000000E+00 0.  1.
        -13    1    4    4    0    0 -0.30320961003E+02  0.24239119506E+02  0.64740587256E+02  0.75486682460E+02  0.00000000000E+00 0. -1.
         13    1    4    4    0    0  0.59113836445E+02  0.37626473700E+02  0.49418635806E+02  0.85746129634E+02  0.00000000000E+00 0.  1.
         21    1    1    2  502  501 -0.16534958679E+02  0.27920949378E+02 -0.62117378232E+02  0.70082472496E+02  0.00000000000E+00 0.  1.
<scales pt_clust_5="13000.00000" pt_clust_6="13000.00000" pt_clust_7="13000.00000" pt_clust_8="13000.00000" pt_clust_9="32.44972"></scales>
<clustering>
<clus scale="   32.450">  2  9  1 -1</clus>
<clus scale="   90.906">  5  6 -1 -1</clus>
<clus scale="   91.144">  7  8 -1 -1</clus>
<clus scale="  116.609">  2  5  1 -1</clus>
<clus scale="  116.795">  1  5  2 -1</clus>
</clustering>
</event>
<event>
 9    1  0.1266593E-005  0.1534443E+03  0.7546771E-02  0.1196623E+00
         -3   -1    0    0    0  501 -0.00000000000E+00  0.00000000000E+00  0.10708302387E+03  0.10708302387E+03  0.00000000000E+00 0.  1.
          3   -1    0    0  502    0  0.00000000000E+00 -0.00000000000E+00 -0.30506285242E+03  0.30506285242E+03  0.00000000000E+00 0. -1.
         23    2    1    2    0    0  0.16984652752E+02  0.10642517233E+03 -0.10770972967E+02  0.14144957082E+03  0.90978961814E+02 0.  0.
         23    2    1    2    0    0 -0.27156668076E+01 -0.12906315551E+03 -0.18490123245E+03  0.24383727781E+03  0.92754942365E+02 0.  0.
        -13    1    4    4    0    0  0.32299098752E+02 -0.11752793459E+03 -0.14710498141E+03  0.19103906078E+03  0.00000000000E+00 0.  1.
         13    1    4    4    0    0 -0.35014765559E+02 -0.11535220920E+02 -0.37796251042E+02  0.52798217031E+02  0.00000000000E+00 0. -1.
        -13    1    3    3    0    0  0.47791340961E+02  0.39779406675E+02  0.14413025052E+02  0.63829058879E+02  0.00000000000E+00 0.  1.
         13    1    3    3    0    0 -0.30806688209E+02  0.66645765655E+02 -0.25183998019E+02  0.77620511943E+02  0.00000000000E+00 0. -1.
         21    1    1    2  502  501 -0.14268985945E+02  0.22637983178E+02 -0.23076231319E+01  0.26859027659E+02  0.00000000000E+00 0. -1.
<scales pt_clust_5="13000.00000" pt_clust_6="13000.00000" pt_clust_7="13000.00000" pt_clust_8="13000.00000" pt_clust_9="26.75971"></scales>
<clustering>
<clus scale="   26.760">  1  9  2 -1</clus>
<clus scale="   90.979">  7  8 -1 -1</clus>
<clus scale="   92.755">  5  6 -1 -1</clus>
<clus scale="  152.377">  1  7  2 -1</clus>
<clus scale="  153.444">  2  5  1 -1</clus>
</clustering>
</event>
<event>
 9    1  0.1266593E-005  0.9319351E+02  0.7546771E-02  0.1295447E+00
          1   -1    0    0  502    0  0.00000000000E+00  0.00000000000E+00  0.19240497687E+03  0.19240497687E+03  0.00000000000E+00 0. -1.
         -1   -1    0    0    0  501 -0.00000000000E+00 -0.00000000000E+00 -0.66389083818E+02  0.66389083818E+02  0.00000000000E+00 0.  1.
         23    2    1    2    0    0  0.10707103608E+02  0.21884370677E+01  0.39357131311E+02  0.10048981457E+03  0.91813875438E+02 0.  0.
         23    2    1    2    0    0  0.24650443445E+00  0.24702693469E+02  0.87292870541E+02  0.12926089017E+03  0.92076319705E+02 0.  0.
        -11    1    3    3    0    0 -0.15948004301E+02  0.37971097682E+02  0.29137626436E+00  0.41185288642E+02  0.00000000000E+00 0.  1.
         11    1    3    3    0    0  0.26655107909E+02 -0.35782660614E+02  0.39065755047E+02  0.59304525929E+02  0.00000000000E+00 0. -1.
        -13    1    4    4    0    0 -0.27772357186E+02 -0.25584402238E+02  0.33865724737E+02  0.50722310412E+02  0.00000000000E+00 0. -1.
         13    1    4    4    0    0  0.28018861620E+02  0.50287095707E+02  0.53427145804E+02  0.78538579755E+02  0.00000000000E+00 0.  1.
         21    1    1    2  502  501 -0.10953608042E+02 -0.26891130537E+02 -0.63410880302E+00  0.29043355947E+02  0.00000000000E+00 0. -1.
<scales pt_clust_5="13000.00000" pt_clust_6="13000.00000" pt_clust_7="13000.00000" pt_clust_8="13000.00000" pt_clust_9="29.03643"></scales>
<clustering>
<clus scale="   29.036">  2  9  1 -1</clus>
<clus scale="   91.814">  5  6 -1 -1</clus>
<clus scale="   92.076">  7  8 -1 -1</clus>
<clus scale="   92.934">  2  5  1 -1</clus>
<clus scale="   93.194">  1  5  2 -1</clus>
</clustering>
</event>
<event>
 9    1  0.1266593E-005  0.9467885E+02  0.7546771E-02  0.1293331E+00
         -1   -1    0    0    0  501 -0.00000000000E+00  0.00000000000E+00  0.16246584777E+03  0.16246584777E+03  0.00000000000E+00 0.  1.
          1   -1    0    0  502    0  0.00000000000E+00 -0.00000000000E+00 -0.82628021104E+02  0.82628021104E+02  0.00000000000E+00 0. -1.
         23    2    1    2    0    0  0.35942986968E+01  0.35199208864E+02  0.66793431309E+02  0.11768759442E+03  0.90205898515E+02 0.  0.
         23    2    1    2    0    0  0.91219714826E+00 -0.11634238490E+02 -0.10154302683E+02  0.94032693219E+02  0.92751549433E+02 0.  0.
        -11    1    3    3    0    0  0.67005274894E+01  0.61643401466E+02  0.66688604947E+02  0.91061386124E+02  0.00000000000E+00 0.  1.
         11    1    3    3    0    0 -0.31062287926E+01 -0.26444192603E+02  0.10482636186E+00  0.26626208297E+02  0.00000000000E+00 0. -1.
        -11    1    4    4    0    0  0.26450258207E+02  0.17393243961E+02  0.26101897689E+02  0.41029869092E+02  0.00000000000E+00 0.  1.
         11    1    4    4    0    0 -0.25538061059E+02 -0.29027482451E+02 -0.36256200371E+02  0.53002824127E+02  0.00000000000E+00 0. -1.
         21    1    1    2  502  501 -0.45064958450E+01 -0.23564970374E+02  0.23198698037E+02  0.33373581230E+02  0.00000000000E+00 0. -1.
<scales pt_clust_5="13000.00000" pt_clust_6="13000.00000" pt_clust_7="13000.00000" pt_clust_8="13000.00000" pt_clust_9="23.99201"></scales>
<clustering>
<clus scale="   23.992">  1  9  2 -1</clus>
<clus scale="   90.206">  5  6 -1 -1</clus>
<clus scale="   92.186">  1  5  2 -1</clus>
<clus scale="   92.752">  7  8 -1 -1</clus>
<clus scale="   94.679">  2  5  1 -1</clus>
</clustering>
</event>
<event>
 9    1  0.1266593E-005  0.1153902E+03  0.7546771E-02  0.1251460E+00
          1   -1    0    0  502    0  0.00000000000E+00  0.00000000000E+00  0.37719051793E+02  0.37719051793E+02  0.00000000000E+00 0. -1.
         -1   -1    0    0    0  501 -0.00000000000E+00 -0.00000000000E+00 -0.55923303872E+03  0.55923303872E+03  0.00000000000E+00 0.  1.
         23    2    1    2    0    0  0.50607177467E+02  0.77177265562E+02 -0.26351082217E+03  0.29380211908E+03  0.91456629296E+02 0.  0.
         23    2    1    2    0    0 -0.41181902110E+02 -0.42998948346E+02 -0.12286243528E+03  0.16343594226E+03  0.89840250452E+02 0.  0.
        -11    1    3    3    0    0  0.30529697743E+02  0.82835488518E+02 -0.25732051325E+03  0.27204342878E+03  0.00000000000E+00 0.  1.
         11    1    3    3    0    0  0.20077479724E+02 -0.56582229555E+01 -0.61903089242E+01  0.21758690302E+02  0.00000000000E+00 0. -1.
        -11    1    4    4    0    0 -0.57342654494E+02 -0.66347472578E+01 -0.10499078919E+03  0.11981346214E+03  0.00000000000E+00 0.  1.
         11    1    4    4    0    0  0.16160752383E+02 -0.36364201088E+02 -0.17871646091E+02  0.43622480126E+02  0.00000000000E+00 0. -1.
         21    1    1    2  502  501 -0.94252753568E+01 -0.34178317216E+02 -0.13514072947E+03  0.13971402916E+03  0.00000000000E+00 0.  1.
<scales pt_clust_5="13000.00000" pt_clust_6="13000.00000" pt_clust_7="13000.00000" pt_clust_8="13000.00000" pt_clust_9="35.45410"></scales>
<clustering>
<clus scale="   35.454">  2  9  1 -1</clus>
<clus scale="   89.840">  7  8 -1 -1</clus>
<clus scale="   91.457">  5  6 -1 -1</clus>
<clus scale="  114.113">  1  7  2 -1</clus>
<clus scale="  114.113">  1  5  2 -1</clus>
</clustering>
</event>
<event>
 9    1  0.1266593E-005  0.1466239E+03  0.7546771E-02  0.1204700E+00
          2   -1    0    0  502    0  0.00000000000E+00  0.00000000000E+00  0.42534634908E+03  0.42534634908E+03  0.00000000000E+00 0. -1.
         -2   -1    0    0    0  501 -0.00000000000E+00 -0.00000000000E+00 -0.65179657536E+02  0.65179657536E+02  0.00000000000E+00 0.  1.
         23    2    1    2    0    0 -0.42588800752E+02 -0.10406744480E+03  0.10279594896E+03  0.17707102013E+03  0.90240235101E+02 0.  0.
         23    2    1    2    0    0  0.18547809898E+02  0.11694000639E+03  0.23485587549E+03  0.27809128584E+03  0.90324385741E+02 0.  0.
        -11    1    4    4    0    0 -0.24828328405E+02  0.97191634316E+02  0.17333489482E+03  0.20026893277E+03  0.00000000000E+00 0.  1.
         11    1    4    4    0    0  0.43376138303E+02  0.19748372079E+02  0.61520980672E+02  0.77822353066E+02  0.00000000000E+00 0. -1.
        -13    1    3    3    0    0 -0.15019575554E+02 -0.85747830805E+02  0.11280543833E+03  0.14248980685E+03  0.00000000000E+00 0. -1.
         13    1    3    3    0    0 -0.27569225197E+02 -0.18319613992E+02 -0.10009489370E+02  0.34581213285E+02  0.00000000000E+00 0.  1.
         21    1    1    2  502  501  0.24040990854E+02 -0.12872561597E+02  0.22514867090E+02  0.35363700646E+02  0.00000000000E+00 0.  1.
<scales pt_clust_5="13000.00000" pt_clust_6="13000.00000" pt_clust_7="13000.00000" pt_clust_8="13000.00000" pt_clust_9="27.27035"></scales>
<clustering>
<clus scale="   27.270">  2  9  1 -1</clus>
<clus scale="   90.240">  7  8 -1 -1</clus>
<clus scale="   90.324">  5  6 -1 -1</clus>
<clus scale="  146.572">  2  7  1 -1</clus>
<clus scale="  146.624">  1  5  2 -1</clus>
</clustering>
</event>
<event>
 9    1  0.1266593E-005  0.3374927E+03  0.7546771E-02  0.1068002E+00
         -1   -1    0    0    0  501 -0.00000000000E+00  0.00000000000E+00  0.57363588358E+03  0.57363588358E+03  0.00000000000E+00 0.  1.
          1   -1    0    0  502    0  0.00000000000E+00 -0.00000000000E+00 -0.36558744600E+03  0.36558744600E+03  0.00000000000E+00 0. -1.
         23    2    1    2    0    0  0.15162076314E+03  0.23900084480E+03  0.35822998982E+03  0.46544377612E+03  0.90547907183E+02 0.  0.
         23    2    1    2    0    0 -0.19346439969E+03 -0.27207161565E+03 -0.20016128155E+03  0.40068687841E+03  0.95047345607E+02 0.  0.
        -11    1    4    4    0    0 -0.18033939309E+03 -0.21684582182E+03 -0.19662914286E+03  0.34381306980E+03  0.00000000000E+00 0. -1.
         11    1    4    4    0    0 -0.13125006603E+02 -0.55225793827E+02 -0.35321386879E+01  0.56873808611E+02  0.00000000000E+00 0.  1.
        -13    1    3    3    0    0  0.13584746749E+03  0.20177412898E+03  0.24513073927E+03  0.34533521813E+03  0.00000000000E+00 0.  1.
         13    1    3    3    0    0  0.15773295644E+02  0.37226715815E+02  0.11309925055E+03  0.12010855799E+03  0.00000000000E+00 0. -1.
         21    1    1    2  502  501  0.41843636552E+02  0.33070770856E+02  0.49979729304E+02  0.73092675052E+02  0.00000000000E+00 0.  1.
<scales pt_clust_5="13000.00000" pt_clust_6="13000.00000" pt_clust_7="13000.00000" pt_clust_8="13000.00000" pt_clust_9="53.33447"></scales>
<clustering>
<clus scale="   53.334">  1  9  2 -1</clus>
<clus scale="   90.548">  7  8 -1 -1</clus>
<clus scale="   95.047">  5  6 -1 -1</clus>
<clus scale="  336.253">  1  7  2 -1</clus>
<clus scale="  337.493">  2  5  1 -1</clus>
</clustering>
</event>
<event>
 9    1  0.1266593E-005  0.1172688E+03  0.7546771E-02  0.1247937E+00
         -2   -1    0    0    0  501 -0.00000000000E+00  0.00000000000E+00  0.51095961286E+03  0.51095961286E+03  0.00000000000E+00 0.  1.
          2   -1    0    0  502    0  0.00000000000E+00 -0.00000000000E+00 -0.39342432897E+02  0.39342432897E+02  0.00000000000E+00 0. -1.
         23    2    1    2    0    0 -0.78009864904E+02  0.13092696663E+02  0.32626887796E+03  0.34773832090E+03  0.90628921260E+02 0.  0.
         23    2    1    2    0    0  0.55467210653E+02 -0.29949831251E+02  0.10144319121E+03  0.15041017271E+03  0.91426993625E+02 0.  0.
        -11    1    4    4    0    0 -0.20037094819E+01 -0.33091270734E+02  0.83942218385E+02  0.90251554435E+02  0.00000000000E+00 0.  1.
         11    1    4    4    0    0  0.57470920135E+02  0.31414394836E+01  0.17500972821E+02  0.60158618276E+02  0.00000000000E+00 0. -1.
        -13    1    3    3    0    0 -0.88142072570E+02  0.35978541069E+02  0.25368480342E+03  0.27096025513E+03  0.00000000000E+00 0. -1.
         13    1    3    3    0    0  0.10132207666E+02 -0.22885844406E+02  0.72584074541E+02  0.76778065770E+02  0.00000000000E+00 0.  1.
         21    1    1    2  502  501  0.22542654250E+02  0.16857134588E+02  0.43905110790E+02  0.52153552138E+02  0.00000000000E+00 0. -1.
<scales pt_clust_5="13000.00000" pt_clust_6="13000.00000" pt_clust_7="13000.00000" pt_clust_8="13000.00000" pt_clust_9="28.14843"></scales>
<clustering>
<clus scale="   28.148">  2  9  1 -1</clus>
<clus scale="   90.629">  7  8 -1 -1</clus>
<clus scale="   91.427">  5  6 -1 -1</clus>
<clus scale="  116.648">  1  7  2 -1</clus>
<clus scale="   28.148">  2  5  1 -1</clus>
</clustering>
</event>
<event>
 9    1  0.1266593E-005  0.9825417E+02  0.7546771E-02  0.1285214E+00
         -1   -1    0    0    0  501 -0.00000000000E+00  0.00000000000E+00  0.15467122221E+03  0.15467122221E+03  0.00000000000E+00 0.  1.
          1   -1    0    0  502    0  0.00000000000E+00 -0.00000000000E+00 -0.12332577050E+03  0.12332577050E+03  0.00000000000E+00 0. -1.
         23    2    1    2    0    0 -0.43148521470E+02 -0.66739618918E+00 -0.86862761275E+01  0.10149463228E+03  0.91452001981E+02 0.  0.
         23    2    1    2    0    0  0.29072743490E+02 -0.14517280555E+02 -0.33151571595E+02  0.10044647802E+03  0.89075767741E+02 0.  0.
        -11    1    4    4    0    0 -0.19744853617E+02 -0.11270690500E+02  0.18493091115E+02  0.29306690835E+02  0.00000000000E+00 0.  1.
         11    1    4    4    0    0  0.48817597108E+02 -0.32465900553E+01 -0.51644662710E+02  0.71139787185E+02  0.00000000000E+00 0. -1.
        -13    1    3    3    0    0 -0.31948709911E+02 -0.43118950297E+02  0.85236023863E+01  0.54337976934E+02  0.00000000000E+00 0.  1.
         13    1    3    3    0    0 -0.11199811559E+02  0.42451554107E+02 -0.17209878514E+02  0.47156655347E+02  0.00000000000E+00 0. -1.
         21    1    1    2  502  501  0.14075777980E+02  0.15184676744E+02  0.73183299430E+02  0.76055882409E+02  0.00000000000E+00 0.  1.
<scales pt_clust_5="13000.00000" pt_clust_6="13000.00000" pt_clust_7="13000.00000" pt_clust_8="13000.00000" pt_clust_9="20.70512"></scales>
<clustering>
<clus scale="   20.705">  1  9  2 -1</clus>
<clus scale="   89.076">  5  6 -1 -1</clus>
<clus scale="   91.452">  7  8 -1 -1</clus>
<clus scale="   96.046">  2  5  1 -1</clus>
<clus scale="   96.046">  2  5  1 -1</clus>
</clustering>
</event>
<event>
 9    1  0.1266593E-005  0.9495948E+02  0.7546771E-02  0.1291768E+00
         -1   -1    0    0    0  501 -0.00000000000E+00  0.00000000000E+00  0.96835174053E+02  0.96835174053E+02  0.00000000000E+00 0.  1.
          1   -1    0    0  502    0  0.00000000000E+00 -0.00000000000E+00 -0.38693935013E+03  0.38693935013E+03  0.00000000000E+00 0. -1.
         23    2    1    2    0    0 -0.26737028028E+01  0.41860973030E+02  0.59705426400E+01  0.10042116672E+03  0.91045447968E+02 0.  0.
         23    2    1    2    0    0  0.26360518590E+02  0.88487324765E+01 -0.31094037267E+03  0.32544371110E+03  0.91959321068E+02 0.  0.
        -11    1    4    4    0    0  0.54913792972E+02 -0.24019884047E+01 -0.26179347124E+03  0.26750161830E+03  0.00000000000E+00 0. -1.
         11    1    4    4    0    0 -0.28553274382E+02  0.11250720881E+02 -0.49146901427E+02  0.57942092801E+02  0.00000000000E+00 0.  1.
        -13    1    3    3    0    0  0.24692112289E+02  0.54793967599E+02 -0.16960312289E+02  0.62447830126E+02  0.00000000000E+00 0. -1.
         13    1    3    3    0    0 -0.27365815092E+02 -0.12932994568E+02  0.22930854929E+02  0.37973336592E+02  0.00000000000E+00 0.  1.
         21    1    1    2  502  501 -0.23686815787E+02 -0.50709705507E+02  0.14865653953E+02  0.57909646366E+02  0.00000000000E+00 0.  1.
<scales pt_clust_5="13000.00000" pt_clust_6="13000.00000" pt_clust_7="13000.00000" pt_clust_8="13000.00000" pt_clust_9="55.96909"></scales>
<clustering>
<clus scale="   55.969">  1  9  2 -1</clus>
<clus scale="   91.045">  7  8 -1 -1</clus>
<clus scale="   91.959">  5  6 -1 -1</clus>
<clus scale="   94.075">  1  7  2 -1</clus>
<clus scale="   94.959">  2  5  1 -1</clus>
</clustering>
</event>
<event>
 9    1  0.1266593E-005  0.1248816E+03  0.7546771E-02  0.1236412E+00
          1   -1    0    0  502    0  0.00000000000E+00  0.00000000000E+00  0.23917423514E+03  0.23917423514E+03  0.00000000000E+00 0. -1.
         -1   -1    0    0    0  501 -0.00000000000E+00 -0.00000000000E+00 -0.88399912169E+02  0.88399912169E+02  0.00000000000E+00 0.  1.
         23    2    1    2    0    0  0.44470170264E+02  0.64645165126E+02  0.80561045706E+02  0.14904210583E+03  0.97810397239E+02 0.  0.
         23    2    1    2    0    0 -0.60036262917E+02 -0.50221643688E+02  0.88100314672E+02  0.15077799099E+03  0.94051957777E+02 0.  0.
        -11    1    3    3    0    0 -0.30574654777E+02  0.26908273409E+02  0.33649987662E+02  0.52831679533E+02  0.00000000000E+00 0.  1.
         11    1    3    3    0    0  0.75044825041E+02  0.37736891717E+02  0.46911058045E+02  0.96210426300E+02  0.00000000000E+00 0. -1.
        -13    1    4    4    0    0 -0.40661610918E+02  0.16804741865E+02  0.82919144547E+01  0.44771886233E+02  0.00000000000E+00 0.  1.
         13    1    4    4    0    0 -0.19374651999E+02 -0.67026385552E+02  0.79808400217E+02  0.10600610476E+03  0.00000000000E+00 0. -1.
         21    1    1    2  502  501  0.15566092652E+02 -0.14423521438E+02 -0.17887037409E+02  0.27754050486E+02  0.00000000000E+00 0.  1.
<scales pt_clust_5="13000.00000" pt_clust_6="13000.00000" pt_clust_7="13000.00000" pt_clust_8="13000.00000" pt_clust_9="21.22124"></scales>
<clustering>
<clus scale="   21.221">  2  9  1 -1</clus>
<clus scale="   94.052">  7  8 -1 -1</clus>
<clus scale="   97.810">  5  6 -1 -1</clus>
<clus scale="  121.960">  1  7  2 -1</clus>
<clus scale="  121.960">  1  5  2 -1</clus>
</clustering>
</event>
<event>
 9    1  0.1266593E-005  0.2823916E+03  0.7546771E-02  0.1094434E+00
          2   -1    0    0  502    0  0.00000000000E+00  0.00000000000E+00  0.75446817346E+03  0.75446817346E+03  0.00000000000E+00 0. -1.
         -2   -1    0    0    0  501 -0.00000000000E+00 -0.00000000000E+00 -0.23715140277E+03  0.23715140277E+03  0.00000000000E+00 0.  1.
         23    2    1    2    0    0 -0.28645076482E+03  0.59895321318E+01 -0.49374094720E+02  0.30456324160E+03  0.90725143942E+02 0.  0.
         23    2    1    2    0    0  0.26344065211E+03 -0.10421358932E+02  0.59080452259E+03  0.65343231288E+03  0.91729066844E+02 0.  0.
        -13    1    3    3    0    0 -0.94039768974E+02  0.44876673406E+02 -0.19313727238E+02  0.10597364778E+03  0.00000000000E+00 0. -1.
         13    1    3    3    0    0 -0.19241099585E+03 -0.38887141275E+02 -0.30060367482E+02  0.19858959382E+03  0.00000000000E+00 0.  1.
        -13    1    4    4    0    0  0.10665173291E+03 -0.27240271921E+02  0.15607255138E+03  0.19098498852E+03  0.00000000000E+00 0.  1.
         13    1    4    4    0    0  0.15678891920E+03  0.16818912988E+02  0.43473197121E+03  0.46244732437E+03  0.00000000000E+00 0. -1.
         21    1    1    2  502  501  0.23010112715E+02  0.44318268006E+01 -0.24113657173E+02  0.33624021744E+02  0.00000000000E+00 0.  1.
<scales pt_clust_5="13000.00000" pt_clust_6="13000.00000" pt_clust_7="13000.00000" pt_clust_8="13000.00000" pt_clust_9="23.43302"></scales>
<clustering>
<clus scale="   23.433">  2  9  1 -1</clus>
<clus scale="   90.725">  5  6 -1 -1</clus>
<clus scale="   91.729">  7  8 -1 -1</clus>
<clus scale="  282.067">  2  5  1 -1</clus>
<clus scale="  282.392">  1  5  2 -1</clus>
</clustering>
</event>
<event>
 9    1  0.1266593E-005  0.1335766E+03  0.7546771E-02  0.1222728E+00
          1   -1    0    0  502    0  0.00000000000E+00  0.00000000000E+00  0.11188840133E+03  0.11188840133E+03  0.00000000000E+00 0. -1.
         -1   -1    0    0    0  501 -0.00000000000E+00 -0.00000000000E+00 -0.28039940712E+03  0.28039940712E+03  0.00000000000E+00 0.  1.
         23    2    1    2    0    0 -0.17577846241E+02  0.58903195108E+02 -0.13289944197E+03  0.17369089352E+03  0.93422148046E+02 0.  0.
         23    2    1    2    0    0  0.23580368465E+01 -0.11046615203E+03  0.15665358934E+02  0.14430220493E+03  0.91484380058E+02 0.  0.
        -11    1    3    3    0    0  0.63593679177E+01 -0.22439974623E+02 -0.12593020635E+02  0.26506191543E+02  0.00000000000E+00 0. -1.
         11    1    3    3    0    0 -0.23937214159E+02  0.81343169731E+02 -0.12030642133E+03  0.14718470198E+03  0.00000000000E+00 0.  1.
        -13    1    4    4    0    0 -0.11943127759E+02 -0.27485431167E+02 -0.34963652384E+02  0.46049367152E+02  0.00000000000E+00 0.  1.
         13    1    4    4    0    0  0.14301164606E+02 -0.82980720867E+02  0.50629011318E+02  0.98252837780E+02  0.00000000000E+00 0. -1.
         21    1    1    2  502  501  0.15219809395E+02  0.51562956927E+02 -0.51276922758E+02  0.74294709991E+02  0.00000000000E+00 0.  1.
<scales pt_clust_5="13000.00000" pt_clust_6="13000.00000" pt_clust_7="13000.00000" pt_clust_8="13000.00000" pt_clust_9="53.76226"></scales>
<clustering>
<clus scale="   53.762">  2  9  1 -1</clus>
<clus scale="   91.484">  7  8 -1 -1</clus>
<clus scale="   93.422">  5  6 -1 -1</clus>
<clus scale="  132.229">  1  7  2 -1</clus>
<clus scale="  132.229">  1  5  2 -1</clus>
</clustering>
</event>
<event>
 9    1  0.1266593E-005  0.1412817E+03  0.7546771E-02  0.1211994E+00
          1   -1    0    0  502    0  0.00000000000E+00  0.00000000000E+00  0.38325071568E+03  0.38325071568E+03  0.00000000000E+00 0. -1.
         -1   -1    0    0    0  501 -0.00000000000E+00 -0.00000000000E+00 -0.28802868393E+03  0.28802868393E+03  0.00000000000E+00 0.  1.
         23    2    1    2    0    0  0.10989481237E+03  0.63302308033E+02 -0.89266686650E+02  0.17975021063E+03  0.90871034372E+02 0.  0.
         23    2    1    2    0    0 -0.91940133212E+02 -0.49741873145E+02  0.32263404508E+03  0.35156352468E+03  0.92611785465E+02 0.  0.
        -13    1    3    3    0    0  0.71085898126E+02 -0.11149767756E+02 -0.44459445908E+02  0.84582294624E+02  0.00000000000E+00 0.  1.
         13    1    3    3    0    0  0.38808914246E+02  0.74452075789E+02 -0.44807240742E+02  0.95167916007E+02  0.00000000000E+00 0. -1.
        -13    1    4    4    0    0 -0.28546364408E+02  0.25648795444E+02  0.61753497951E+02  0.72706603124E+02  0.00000000000E+00 0.  1.
         13    1    4    4    0    0 -0.63393768804E+02 -0.75390668590E+02  0.26088054712E+03  0.27885692156E+03  0.00000000000E+00 0. -1.
         21    1    1    2  502  501 -0.17954679161E+02 -0.13560434888E+02 -0.13814532668E+03  0.13996566430E+03  0.00000000000E+00 0.  1.
<scales pt_clust_5="13000.00000" pt_clust_6="13000.00000" pt_clust_7="13000.00000" pt_clust_8="13000.00000" pt_clust_9="22.50013"></scales>
<clustering>
<clus scale="   22.500">  2  9  1 -1</clus>
<clus scale="   90.871">  5  6 -1 -1</clus>
<clus scale="   92.612">  7  8 -1 -1</clus>
<clus scale="  140.147">  2  5  1 -1</clus>
<clus scale="  141.282">  1  5  2 -1</clus>
</clustering>
</event>
<event>
 9    1  0.1486767E-005  0.9739456E+02  0.7546771E-02  0.1290197E+00
          1   -1    0    0  502    0  0.00000000000E+00  0.00000000000E+00  0.34300453964E+03  0.34300453964E+03  0.00000000000E+00 0. -1.
         -1   -1    0    0    0  501 -0.00000000000E+00 -0.00000000000E+00 -0.14331227024E+03  0.14331227024E+03  0.00000000000E+00 0.  1.
         23    2    1    2    0    0  0.33579199723E+01  0.16116148198E+02 -0.46576065395E+02  0.10069127500E+03  0.87740510223E+02 0.  0.
         23    2    1    2    0    0  0.17306167160E+02 -0.10817831831E+02  0.30652347027E+03  0.32170560055E+03  0.95505636949E+02 0.  0.
        -11    1    3    3    0    0  0.14748341987E+02  0.48153385347E+02 -0.43506195945E+02  0.66551117176E+02  0.00000000000E+00 0.  1.
         11    1    3    3    0    0 -0.11390422015E+02 -0.32037237149E+02 -0.30698694509E+01  0.34140157824E+02  0.00000000000E+00 0. -1.
        -11    1    4    4    0    0 -0.29433294012E+02  0.17245325828E+02  0.19027061633E+03  0.19330449425E+03  0.00000000000E+00 0. -1.
         11    1    4    4    0    0  0.46739461172E+02 -0.28063157659E+02  0.11625285394E+03  0.12840110630E+03  0.00000000000E+00 0.  1.
         21    1    1    2  502  501 -0.20664087133E+02 -0.52983163668E+01 -0.60255135482E+02  0.63919934334E+02  0.00000000000E+00 0.  1.
<scales pt_clust_5="13000.00000" pt_clust_6="13000.00000" pt_clust_7="13000.00000" pt_clust_8="13000.00000" pt_clust_9="21.33253"></scales>
<clustering>
<clus scale="   21.333">  2  9  1 -1</clus>
<clus scale="   87.741">  5  6 -1 -1</clus>
<clus scale="   89.793">  2  5  1 -1</clus>
<clus scale="   95.506">  7  8 -1 -1</clus>
<clus scale="   97.395">  1  5  2 -1</clus>
</clustering>
</event>
<event>
 9    1  0.1266593E-005  0.1017306E+03  0.7546771E-02  0.1278514E+00
         -1   -1    0    0    0  501 -0.00000000000E+00  0.00000000000E+00  0.11455698134E+03  0.11455698134E+03  0.00000000000E+00 0.  1.
          1   -1    0    0  502    0  0.00000000000E+00 -0.00000000000E+00 -0.23503993654E+03  0.23503993654E+03  0.00000000000E+00 0. -1.
         23    2    1    2    0    0 -0.79095677830E+01 -0.43625471011E+02 -0.48911944787E+02  0.10980981465E+03  0.87750065907E+02 0.  0.
         23    2    1    2    0    0  0.49834878761E+02  0.19310830454E+02 -0.12745371080E+03  0.16581542185E+03  0.91618133646E+02 0.  0.
        -11    1    3    3    0    0  0.10570930527E+02 -0.60441325974E+02 -0.56795102035E+02  0.83609700830E+02  0.00000000000E+00 0. -1.
         11    1    3    3    0    0 -0.18480498310E+02  0.16815854962E+02  0.78831572471E+01  0.26200113818E+02  0.00000000000E+00 0.  1.
        -11    1    4    4    0    0  0.54499988496E+02  0.44166375794E+02 -0.55199007820E+02  0.89262802786E+02  0.00000000000E+00 0.  1.
         11    1    4    4    0    0 -0.46651097349E+01 -0.24855545341E+02 -0.72254702976E+02  0.76552619062E+02  0.00000000000E+00 0. -1.
         21    1    1    2  502  501 -0.41925310978E+02  0.24314640558E+02  0.55882700381E+02  0.73971681392E+02  0.00000000000E+00 0.  1.
<scales pt_clust_5="13000.00000" pt_clust_6="13000.00000" pt_clust_7="13000.00000" pt_clust_8="13000.00000" pt_clust_9="48.46580"></scales>
<clustering>
<clus scale="   48.466">  1  9  2 -1</clus>
<clus scale="   87.750">  5  6 -1 -1</clus>
<clus scale="   91.618">  7  8 -1 -1</clus>
<clus scale="   98.261">  1  5  2 -1</clus>
<clus scale="  101.731">  2  5  1 -1</clus>
</clustering>
</event>
<event>
 9    1  0.1266593E-005  0.1324437E+03  0.7546771E-02  0.1224148E+00
         -1   -1    0    0    0  501 -0.00000000000E+00  0.00000000000E+00  0.11947716408E+03  0.11947716408E+03  0.00000000000E+00 0.  1.
          1   -1    0    0  502    0  0.00000000000E+00 -0.00000000000E+00 -0.23799656950E+03  0.23799656950E+03  0.00000000000E+00 0. -1.
         23    2    1    2    0    0  0.90935407466E+02 -0.68233440378E+02 -0.40588159847E+02  0.15136670793E+03  0.91320484193E+02 0.  0.
         23    2    1    2    0    0 -0.56178005793E+02  0.66917158868E+02 -0.10365518852E+03  0.16284583278E+03  0.90224678767E+02 0.  0.
        -11    1    3    3    0    0  0.67884430038E+02 -0.13856101653E+02  0.14292944690E+02  0.70743025540E+02  0.00000000000E+00 0.  1.
         11    1    3    3    0    0  0.23050977428E+02 -0.54377338725E+02 -0.54881104536E+02  0.80623682391E+02  0.00000000000E+00 0. -1.
        -11    1    4    4    0    0 -0.76790567669E+02  0.32992337903E+02 -0.54998572907E+02  0.10005063051E+03  0.00000000000E+00 0. -1.
         11    1    4    4    0    0  0.20612561876E+02  0.33924820965E+02 -0.48656615616E+02  0.62795202267E+02  0.00000000000E+00 0.  1.
         21    1    1    2  502  501 -0.34757401673E+02  0.13162815107E+01  0.25723942949E+02  0.43261192874E+02  0.00000000000E+00 0. -1.
<scales pt_clust_5="13000.00000" pt_clust_6="13000.00000" pt_clust_7="13000.00000" pt_clust_8="13000.00000" pt_clust_9="34.78232"></scales>
<clustering>
<clus scale="   34.782">  1  9  2 -1</clus>
<clus scale="   90.225">  7  8 -1 -1</clus>
<clus scale="   91.320">  5  6 -1 -1</clus>
<clus scale="  131.691">  2  7  1 -1</clus>
<clus scale="  131.691">  2  5  1 -1</clus>
</clustering>
</event>
<event>
 9    1  0.1266593E-005  0.1033450E+03  0.7546771E-02  0.1276715E+00
         -1   -1    0    0    0  501 -0.00000000000E+00  0.00000000000E+00  0.37705695444E+02  0.37705695444E+02  0.00000000000E+00 0.  1.
          1   -1    0    0  502    0  0.00000000000E+00 -0.00000000000E+00 -0.34400303022E+03  0.34400303022E+03  0.00000000000E+00 0. -1.
         23    2    1    2    0    0  0.30424057684E+02 -0.47027142846E+02 -0.12887342957E+03  0.16400272786E+03  0.84565704900E+02 0.  0.
         23    2    1    2    0    0 -0.33464303523E+02  0.25222998506E+02 -0.16193323671E+03  0.19078714539E+03  0.91767654587E+02 0.  0.
        -11    1    3    3    0    0  0.34342613369E+02 -0.20689600857E+02 -0.13128085706E+03  0.13726666787E+03  0.00000000000E+00 0. -1.
         11    1    3    3    0    0 -0.39185556841E+01 -0.26337541990E+02  0.24074274902E+01  0.26736059991E+02  0.00000000000E+00 0.  1.
        -13    1    4    4    0    0 -0.19535979392E+02  0.54835307141E+02 -0.59440610584E+02  0.83197064772E+02  0.00000000000E+00 0.  1.
         13    1    4    4    0    0 -0.13928324131E+02 -0.29612308635E+02 -0.10249262613E+03  0.10759008062E+03  0.00000000000E+00 0. -1.
         21    1    1    2  502  501  0.30402458380E+01  0.21804144341E+02 -0.15490668489E+02  0.26918852416E+02  0.00000000000E+00 0. -1.
<scales pt_clust_5="13000.00000" pt_clust_6="13000.00000" pt_clust_7="13000.00000" pt_clust_8="13000.00000" pt_clust_9="22.01508"></scales>
<clustering>
<clus scale="   22.015">  1  9  2 -1</clus>
<clus scale="   84.566">  5  6 -1 -1</clus>
<clus scale="   91.768">  7  8 -1 -1</clus>
<clus scale="   97.006">  1  5  2 -1</clus>
<clus scale="  103.345">  2  5  1 -1</clus>
</clustering>
</event>
<event>
 9    1  0.1266593E-005  0.1004054E+03  0.7546771E-02  0.1279507E+00
         -2   -1    0    0    0  501 -0.00000000000E+00  0.00000000000E+00  0.44291246838E+02  0.44291246838E+02  0.00000000000E+00 0.  1.
          2   -1    0    0  502    0  0.00000000000E+00 -0.00000000000E+00 -0.33343898591E+03  0.33343898591E+03  0.00000000000E+00 0. -1.
         23    2    1    2    0    0  0.55956811405E+02 -0.69744361176E+01 -0.85127602595E+02  0.13731612282E+03  0.91810682168E+02 0.  0.
         23    2    1    2    0    0 -0.32721395096E+02 -0.66902166464E+01 -0.17709895606E+03  0.20231742686E+03  0.91939394583E+02 0.  0.
        -13    1    4    4    0    0  0.32425742573E+02 -0.15775553749E+01 -0.59852040640E+02  0.68089530995E+02  0.00000000000E+00 0. -1.
         13    1    4    4    0    0 -0.65147137669E+02 -0.51126612715E+01 -0.11724691542E+03  0.13422789586E+03  0.00000000000E+00 0.  1.
        -13    1    3    3    0    0  0.54661559817E+02  0.34819917550E+02 -0.61203493600E+02  0.89141350722E+02  0.00000000000E+00 0. -1.
         13    1    3    3    0    0  0.12952515885E+01 -0.41794353667E+02 -0.23924108996E+02  0.48174772095E+02  0.00000000000E+00 0.  1.
         21    1    1    2  502  501 -0.23235416310E+02  0.13664652764E+02 -0.26921180416E+02  0.38096683074E+02  0.00000000000E+00 0.  1.
<scales pt_clust_5="13000.00000" pt_clust_6="13000.00000" pt_clust_7="13000.00000" pt_clust_8="13000.00000" pt_clust_9="26.95565"></scales>
<clustering>
<clus scale="   26.956">  1  9  2 -1</clus>
<clus scale="   91.811">  7  8 -1 -1</clus>
<clus scale="   91.939">  5  6 -1 -1</clus>
<clus scale="  100.288">  1  7  2 -1</clus>
<clus scale="  100.405">  2  5  1 -1</clus>
</clustering>
</event>
<event>
 9    1  0.1266593E-005  0.9825008E+02  0.7546771E-02  0.1284419E+00
         -3   -1    0    0    0  501 -0.00000000000E+00  0.00000000000E+00  0.57818578331E+03  0.57818578331E+03  0.00000000000E+00 0.  1.
          3   -1    0    0  502    0  0.00000000000E+00 -0.00000000000E+00 -0.23813672829E+02  0.23813672829E+02  0.00000000000E+00 0. -1.
         23    2    1    2    0    0  0.86863697572E+01 -0.25406840923E+02  0.21949758482E+03  0.23853287499E+03  0.89430319941E+02 0.  0.
         23    2    1    2    0    0 -0.18973202587E+02  0.49441813880E+02  0.18983396554E+03  0.21608862169E+03  0.88616491543E+02 0.  0.
        -11    1    4    4    0    0 -0.24336374503E+02 -0.16714006276E+02  0.10081719091E+03  0.10505105003E+03  0.00000000000E+00 0.  1.
         11    1    4    4    0    0  0.53631719161E+01  0.66155820156E+02  0.89016774633E+02  0.11103757166E+03  0.00000000000E+00 0. -1.
        -13    1    3    3    0    0  0.16479162086E+02  0.30715823036E+02  0.10763722158E+03  0.11314060295E+03  0.00000000000E+00 0. -1.
         13    1    3    3    0    0 -0.77927923286E+01 -0.56122663958E+02  0.11186036324E+03  0.12539227204E+03  0.00000000000E+00 0.  1.
         21    1    1    2  502  501  0.10286832830E+02 -0.24034972957E+02  0.14504056011E+03  0.14737795945E+03  0.00000000000E+00 0. -1.
<scales pt_clust_5="13000.00000" pt_clust_6="13000.00000" pt_clust_7="13000.00000" pt_clust_8="13000.00000" pt_clust_9="26.14381"></scales>
<clustering>
<clus scale="   26.144">  1  9  2 -1</clus>
<clus scale="   88.616">  5  6 -1 -1</clus>
<clus scale="   89.430">  7  8 -1 -1</clus>
<clus scale="   97.510">  2  5  1 -1</clus>
<clus scale="   97.510">  2  5  1 -1</clus>
</clustering>
</event>
<event>
 9    1  0.1266593E-005  0.1187864E+03  0.7546771E-02  0.1245748E+00
         -1   -1    0    0    0  501 -0.00000000000E+00  0.00000000000E+00  0.90354559738E+02  0.90354559738E+02  0.00000000000E+00 0.  1.
          1   -1    0    0  502    0  0.00000000000E+00 -0.00000000000E+00 -0.36863880122E+03  0.36863880122E+03  0.00000000000E+00 0. -1.
         23    2    1    2    0    0  0.53299418865E+02 -0.85675340651E+01 -0.68694656294E+02  0.12692564419E+03  0.92070259359E+02 0.  0.
         23    2    1    2    0    0 -0.75409850363E+02  0.34424044016E+02 -0.24975360086E+03  0.27943143230E+03  0.93986189805E+02 0.  0.
        -11    1    4    4    0    0 -0.74456616408E+02  0.28885568232E+01 -0.91199172490E+02  0.11776850407E+03  0.00000000000E+00 0.  1.
         11    1    4    4    0    0 -0.95323395457E+00  0.31535487192E+02 -0.15855442837E+03  0.16166292823E+03  0.00000000000E+00 0. -1.
        -11    1    3    3    0    0  0.48473057386E+02 -0.46826159518E+02 -0.36229810228E+02  0.76517485954E+02  0.00000000000E+00 0.  1.
         11    1    3    3    0    0  0.48263614790E+01  0.38258625453E+02 -0.32464846066E+02  0.50408158236E+02  0.00000000000E+00 0. -1.
         21    1    1    2  502  501  0.22110431498E+02 -0.25856509950E+02  0.40164015673E+02  0.52636284470E+02  0.00000000000E+00 0.  1.
<scales pt_clust_5="13000.00000" pt_clust_6="13000.00000" pt_clust_7="13000.00000" pt_clust_8="13000.00000" pt_clust_9="34.02103"></scales>
<clustering>
<clus scale="   34.021">  1  9  2 -1</clus>
<clus scale="   92.070">  7  8 -1 -1</clus>
<clus scale="   93.986">  5  6 -1 -1</clus>
<clus scale="  117.276">  1  7  2 -1</clus>
<clus scale="  118.786">  2  5  1 -1</clus>
</clustering>
</event>
<event>
 9    1  0.1266593E-005  0.1075563E+03  0.7546771E-02  0.1272163E+00
          1   -1    0    0  502    0  0.00000000000E+00  0.00000000000E+00  0.53708304683E+03  0.53708304683E+03  0.00000000000E+00 0. -1.
         -1   -1    0    0    0  501 -0.00000000000E+00 -0.00000000000E+00 -0.30730912906E+02  0.30730912906E+02  0.00000000000E+00 0.  1.
         23    2    1    2    0    0  0.10597092908E+02  0.53272944726E+02  0.18771849950E+03  0.21957101056E+03  0.10011437761E+03 0.  0.
         23    2    1    2    0    0 -0.20970952850E+02 -0.27181267943E+02  0.30182782827E+03  0.31551944557E+03  0.85287047240E+02 0.  0.
        -11    1    3    3    0    0  0.41246355030E+02 -0.96670760715E+01  0.53989093780E+02  0.68626062179E+02  0.00000000000E+00 0.  1.
         11    1    3    3    0    0 -0.30649262122E+02  0.62940020798E+02  0.13372940572E+03  0.15094494838E+03  0.00000000000E+00 0. -1.
        -13    1    4    4    0    0  0.24953043391E+02  0.13962877250E+02  0.12567929291E+03  0.12889104307E+03  0.00000000000E+00 0.  1.
         13    1    4    4    0    0 -0.45923996241E+02 -0.41144145192E+02  0.17614853536E+03  0.18662840251E+03  0.00000000000E+00 0. -1.
         21    1    1    2  502  501  0.10373859941E+02 -0.26091676784E+02  0.16805806149E+02  0.32723503599E+02  0.00000000000E+00 0.  1.
<scales pt_clust_5="13000.00000" pt_clust_6="13000.00000" pt_clust_7="13000.00000" pt_clust_8="13000.00000" pt_clust_9="28.07833"></scales>
<clustering>
<clus scale="   28.078">  2  9  1 -1</clus>
<clus scale="   85.287">  7  8 -1 -1</clus>
<clus scale="   93.911">  1  7  2 -1</clus>
<clus scale="  100.114">  5  6 -1 -1</clus>
<clus scale="   93.911">  1  5  2 -1</clus>
</clustering>
</event>
<event>
 9    1  0.1266593E-005  0.1462303E+03  0.7546771E-02  0.1205463E+00
          3   -1    0    0  502    0  0.00000000000E+00  0.00000000000E+00  0.77731232279E+02  0.77731232279E+02  0.00000000000E+00 0. -1.
         -3   -1    0    0    0  501 -0.00000000000E+00 -0.00000000000E+00 -0.43351490864E+03  0.43351490864E+03  0.00000000000E+00 0.  1.
         23    2    1    2    0    0  0.89913753372E+02 -0.60914986335E+02 -0.14284066587E+03  0.20319647255E+03  0.95342708295E+02 0.  0.
         23    2    1    2    0    0 -0.11835791769E+03  0.57578905847E+01 -0.11200486001E+03  0.18955964382E+03  0.96674815306E+02 0.  0.
        -11    1    3    3    0    0  0.67637011483E+02 -0.72558280968E+02 -0.58432755741E+02  0.11512539426E+03  0.00000000000E+00 0. -1.
         11    1    3    3    0    0  0.22276741890E+02  0.11643294633E+02 -0.84407910134E+02  0.88071078296E+02  0.00000000000E+00 0.  1.
        -13    1    4    4    0    0 -0.90302879193E+02  0.82005188248E+01 -0.19345229557E+02  0.92715135799E+02  0.00000000000E+00 0. -1.
         13    1    4    4    0    0 -0.28055038501E+02 -0.24426282402E+01 -0.92659630457E+02  0.96844508024E+02  0.00000000000E+00 0.  1.
         21    1    1    2  502  501  0.28444164321E+02  0.55157095750E+02 -0.10093815047E+03  0.11849002454E+03  0.00000000000E+00 0.  1.
<scales pt_clust_5="13000.00000" pt_clust_6="13000.00000" pt_clust_7="13000.00000" pt_clust_8="13000.00000" pt_clust_9="62.05945"></scales>
<clustering>
<clus scale="   62.059">  2  9  1 -1</clus>
<clus scale="   95.343">  5  6 -1 -1</clus>
<clus scale="   96.675">  7  8 -1 -1</clus>
<clus scale="  145.353">  2  5  1 -1</clus>
<clus scale="  146.230">  1  5  2 -1</clus>
</clustering>
</event>
<event>
 9    1  0.1266593E-005  0.1421706E+03  0.7546771E-02  0.1214010E+00
         -2   -1    0    0    0  501 -0.00000000000E+00  0.00000000000E+00  0.59138994436E+02  0.59138994436E+02  0.00000000000E+00 0.  1.
          2   -1    0    0  502    0  0.00000000000E+00 -0.00000000000E+00 -0.53901660852E+03  0.53901660852E+03  0.00000000000E+00 0. -1.
         23    2    1    2    0    0 -0.40844589184E+02 -0.97897750039E+02 -0.15901224894E+03  0.21996621118E+03  0.10884846724E+03 0.  0.
         23    2    1    2    0    0  0.32235995390E+02  0.79458173079E+02 -0.33144321900E+03  0.35525433394E+03  0.94859230960E+02 0.  0.
        -13    1    3    3    0    0 -0.73362652194E+02 -0.93249285176E+02 -0.11695792330E+03  0.16660331253E+03  0.00000000000E+00 0.  1.
         13    1    3    3    0    0  0.32518063010E+02 -0.46484648631E+01 -0.42054325637E+02  0.53362898650E+02  0.00000000000E+00 0. -1.
        -13    1    4    4    0    0  0.15758574867E+02  0.92162332084E+02 -0.31543983663E+03  0.32900534748E+03  0.00000000000E+00 0.  1.
         13    1    4    4    0    0  0.16477420522E+02 -0.12704159005E+02 -0.16003382362E+02  0.26248986459E+02  0.00000000000E+00 0. -1.
         21    1    1    2  502  501  0.86085937945E+01  0.18439576960E+02  0.10577853855E+02  0.22935057832E+02  0.00000000000E+00 0.  1.
<scales pt_clust_5="13000.00000" pt_clust_6="13000.00000" pt_clust_7="13000.00000" pt_clust_8="13000.00000" pt_clust_9="20.35008"></scales>
<clustering>
<clus scale="   20.350">  1  9  2 -1</clus>
<clus scale="   94.859">  7  8 -1 -1</clus>
<clus scale="  108.848">  5  6 -1 -1</clus>
<clus scale="  131.768">  2  7  1 -1</clus>
<clus scale="  131.768">  2  5  1 -1</clus>
</clustering>
</event>
<event>
 9    1  0.1938407E-005  0.1698994E+03  0.7546771E-02  0.1178792E+00
          1   -1    0    0  502    0  0.00000000000E+00  0.00000000000E+00  0.65348357734E+03  0.65348357734E+03  0.00000000000E+00 0. -1.
         -1   -1    0    0    0  501 -0.00000000000E+00 -0.00000000000E+00 -0.96952092753E+02  0.96952092753E+02  0.00000000000E+00 0.  1.
         23    2    1    2    0    0 -0.32132676594E+02 -0.12863989927E+03  0.16817885947E+02  0.16393011534E+03  0.94918432558E+02 0.  0.
         23    2    1    2    0    0  0.33643305123E+01  0.14286090144E+03  0.52472706252E+03  0.55108732634E+03  0.89096550046E+02 0.  0.
        -13    1    4    4    0    0  0.29688137392E+02  0.12863905554E+03  0.47544133341E+03  0.49343069789E+03  0.00000000000E+00 0. -1.
         13    1    4    4    0    0 -0.26323806880E+02  0.14221845894E+02  0.49285729115E+02  0.57656628445E+02  0.00000000000E+00 0.  1.
        -13    1    3    3    0    0 -0.52806875008E+02 -0.81975848906E+02 -0.21810462910E+02  0.99921479895E+02  0.00000000000E+00 0.  1.
         13    1    3    3    0    0  0.20674198415E+02 -0.46664050364E+02  0.38628348857E+02  0.64008635448E+02  0.00000000000E+00 0. -1.
         21    1    1    2  502  501  0.28768346081E+02 -0.14221002166E+02  0.14986536117E+02  0.35418228409E+02  0.00000000000E+00 0.  1.
<scales pt_clust_5="13000.00000" pt_clust_6="13000.00000" pt_clust_7="13000.00000" pt_clust_8="13000.00000" pt_clust_9="32.09135"></scales>
<clustering>
<clus scale="   32.091">  2  9  1 -1</clus>
<clus scale="   89.097">  5  6 -1 -1</clus>
<clus scale="   94.918">  7  8 -1 -1</clus>
<clus scale="  166.717">  1  5  2 -1</clus>
<clus scale="  166.717">  1  5  2 -1</clus>
</clustering>
</event>
<event>
 9    1  0.1266593E-005  0.1165661E+03  0.7546771E-02  0.1249095E+00
          1   -1    0    0  502    0  0.00000000000E+00  0.00000000000E+00  0.43849738231E+03  0.43849738231E+03  0.00000000000E+00 0. -1.
         -1   -1    0    0    0  501 -0.00000000000E+00 -0.00000000000E+00 -0.70868058197E+02  0.70868058197E+02  0.00000000000E+00 0.  1.
         23    2    1    2    0    0 -0.15751908451E+02  0.47435273979E+02  0.26596387732E+02  0.10801085881E+03  0.91982334950E+02 0.  0.
         23    2    1    2    0    0  0.26808418801E+02 -0.72000318863E+02  0.35244194513E+03  0.37209961063E+03  0.91323919678E+02 0.  0.
        -11    1    3    3    0    0  0.14021549910E+02 -0.21863366270E+02 -0.46223855646E+01  0.26381377804E+02  0.00000000000E+00 0. -1.
         11    1    3    3    0    0 -0.29773458360E+02  0.69298640248E+02  0.31218773296E+02  0.81629481005E+02  0.00000000000E+00 0.  1.
        -13    1    4    4    0    0  0.54019386469E+02 -0.36178397938E+02  0.27462203261E+03  0.28221309570E+03  0.00000000000E+00 0. -1.
         13    1    4    4    0    0 -0.27210967668E+02 -0.35821920925E+02  0.77819912526E+02  0.89886514927E+02  0.00000000000E+00 0.  1.
         21    1    1    2  502  501 -0.11056510350E+02  0.24565044884E+02 -0.11409008756E+02  0.29254971066E+02  0.00000000000E+00 0.  1.
<scales pt_clust_5="13000.00000" pt_clust_6="13000.00000" pt_clust_7="13000.00000" pt_clust_8="13000.00000" pt_clust_9="26.93859"></scales>
<clustering>
<clus scale="   26.939">  2  9  1 -1</clus>
<clus scale="   91.324">  7  8 -1 -1</clus>
<clus scale="   91.982">  5  6 -1 -1</clus>
<clus scale="  116.047">  1  7  2 -1</clus>
<clus scale="  116.047">  1  5  2 -1</clus>
</clustering>
</event>
<event>
 9    1  0.1266593E-005  0.9716910E+02  0.7546771E-02  0.1287184E+00
          2   -1    0    0  502    0  0.00000000000E+00  0.00000000000E+00  0.80539583299E+02  0.80539583299E+02  0.00000000000E+00 0. -1.
         -2   -1    0    0    0  501 -0.00000000000E+00 -0.00000000000E+00 -0.44518675364E+03  0.44518675364E+03  0.00000000000E+00 0.  1.
         23    2    1    2    0    0  0.21940246743E+02  0.81421055390E+02 -0.15814727922E+03  0.20096994869E+03  0.90926319971E+02 0.  0.
         23    2    1    2    0    0  0.17432767763E+02 -0.15280537668E+02  0.91418858015E+01  0.95788752305E+02  0.92490619896E+02 0.  0.
        -11    1    3    3    0    0  0.52850357581E+02  0.74206355726E+02 -0.10450150835E+03  0.13863732821E+03  0.00000000000E+00 0.  1.
         11    1    3    3    0    0 -0.30910110838E+02  0.72146996643E+01 -0.53645770866E+02  0.62332620473E+02  0.00000000000E+00 0. -1.
        -11    1    4    4    0    0 -0.15306489467E+02 -0.33966666399E+02 -0.25050789406E+02  0.44895045338E+02  0.00000000000E+00 0.  1.
         11    1    4    4    0    0  0.32739257230E+02  0.18686128731E+02  0.34192675207E+02  0.50893706966E+02  0.00000000000E+00 0. -1.
         21    1    1    2  502  501 -0.39373014506E+02 -0.66140517722E+02 -0.21564177693E+03  0.22896763595E+03  0.00000000000E+00 0.  1.
<scales pt_clust_5="13000.00000" pt_clust_6="13000.00000" pt_clust_7="13000.00000" pt_clust_8="13000.00000" pt_clust_9="76.97274"></scales>
<clustering>
<clus scale="   76.973">  2  9  1 -1</clus>
<clus scale="   90.926">  5  6 -1 -1</clus>
<clus scale="   92.491">  7  8 -1 -1</clus>
<clus scale="   95.681">  2  5  1 -1</clus>
<clus scale="   97.169">  1  5  2 -1</clus>
</clustering>
</event>
<event>
 9    1  0.1266593E-005  0.4539773E+03  0.7546771E-02  0.1027155E+00
          1   -1    0    0  502    0  0.00000000000E+00  0.00000000000E+00  0.57054690746E+03  0.57054690746E+03  0.00000000000E+00 0. -1.
         -1   -1    0    0    0  501 -0.00000000000E+00 -0.00000000000E+00 -0.49552925281E+03  0.49552925281E+03  0.00000000000E+00 0.  1.
         23    2    1    2    0    0  0.44154118468E+03 -0.84385389248E+02 -0.76336954245E+02  0.46496583688E+03  0.91029595174E+02 0.  0.
         23    2    1    2    0    0 -0.42665777072E+03  0.54240221213E+02  0.23864873241E+03  0.50756615644E+03  0.12526504211E+03 0.  0.
        -11    1    3    3    0    0  0.37668561913E+03 -0.10162314117E+03 -0.52101574007E+02  0.39361642813E+03  0.00000000000E+00 0.  1.
         11    1    3    3    0    0  0.64855565552E+02  0.17237751919E+02 -0.24235380238E+02  0.71349408754E+02  0.00000000000E+00 0. -1.
        -13    1    4    4    0    0 -0.20579378241E+03  0.87390845471E+02  0.10207461958E+03  0.24577930897E+03  0.00000000000E+00 0.  1.
         13    1    4    4    0    0 -0.22086398830E+03 -0.33150624258E+02  0.13657411283E+03  0.26178684748E+03  0.00000000000E+00 0. -1.
         21    1    1    2  502  501 -0.14883413964E+02  0.30145168034E+02 -0.87294123521E+02  0.93544166940E+02  0.00000000000E+00 0. -1.
<scales pt_clust_5="13000.00000" pt_clust_6="13000.00000" pt_clust_7="13000.00000" pt_clust_8="13000.00000" pt_clust_9="33.61915"></scales>
<clustering>
<clus scale="   33.619">  2  9  1 -1</clus>
<clus scale="   91.030">  5  6 -1 -1</clus>
<clus scale="  125.265">  7  8 -1 -1</clus>
<clus scale="  445.747">  2  5  1 -1</clus>
<clus scale="  453.977">  1  5  2 -1</clus>
</clustering>
</event>
<event>
 9    1  0.1266593E-005  0.3485550E+03  0.7546771E-02  0.1063360E+00
          1   -1    0    0  502    0  0.00000000000E+00  0.00000000000E+00  0.63134069925E+03  0.63134069925E+03  0.00000000000E+00 0. -1.
         -1   -1    0    0    0  501 -0.00000000000E+00 -0.00000000000E+00 -0.42097551496E+03  0.42097551496E+03  0.00000000000E+00 0.  1.
         23    2    1    2    0    0  0.29343884109E+03  0.15530275519E+03 -0.26453150861E+03  0.43391047684E+03  0.89867033079E+02 0.  0.
         23    2    1    2    0    0 -0.32067994130E+03 -0.15329641767E+03  0.45123397838E+03  0.58226674196E+03  0.95325962514E+02 0.  0.
        -11    1    4    4    0    0 -0.12770947481E+03 -0.64572079837E+02  0.25847725510E+03  0.29544839626E+03  0.00000000000E+00 0. -1.
         11    1    4    4    0    0 -0.19297046648E+03 -0.88724337828E+02  0.19275672328E+03  0.28681834569E+03  0.00000000000E+00 0.  1.
        -13    1    3    3    0    0  0.98963552556E+02  0.89346808056E+02 -0.68014200874E+02  0.14967487553E+03  0.00000000000E+00 0.  1.
         13    1    3    3    0    0  0.19447528854E+03  0.65955947133E+02 -0.19651730773E+03  0.28423560131E+03  0.00000000000E+00 0. -1.
         21    1    1    2  502  501  0.27241100203E+02 -0.20063375232E+01  0.23662714527E+02  0.36138995411E+02  0.00000000000E+00 0.  1.
<scales pt_clust_5="13000.00000" pt_clust_6="13000.00000" pt_clust_7="13000.00000" pt_clust_8="13000.00000" pt_clust_9="27.31488"></scales>
<clustering>
<clus scale="   27.315">  1  9  2 -1</clus>
<clus scale="   89.867">  7  8 -1 -1</clus>
<clus scale="   95.326">  5  6 -1 -1</clus>
<clus scale="  347.102">  2  7  1 -1</clus>
<clus scale="   27.315">  1  5  2 -1</clus>
</clustering>
</event>
<event>
 9    1  0.1266593E-005  0.9883036E+02  0.7546771E-02  0.1283636E+00
         -1   -1    0    0    0  501 -0.00000000000E+00  0.00000000000E+00  0.10180743001E+03  0.10180743001E+03  0.00000000000E+00 0.  1.
          1   -1    0    0  502    0  0.00000000000E+00 -0.00000000000E+00 -0.20148924961E+03  0.20148924961E+03  0.00000000000E+00 0. -1.
         23    2    1    2    0    0  0.17602116767E+02  0.24153903842E+02  0.29307456154E+02  0.99095253298E+02  0.89820357684E+02 0.  0.
         23    2    1    2    0    0 -0.58372298299E+02 -0.35466437203E+02 -0.10704041193E+03  0.15653662026E+03  0.91547093457E+02 0.  0.
        -11    1    3    3    0    0  0.36384660334E+02 -0.23585283926E+02  0.13629962750E+02  0.45452007767E+02  0.00000000000E+00 0. -1.
         11    1    3    3    0    0 -0.18782543567E+02  0.47739187768E+02  0.15677493404E+02  0.53643245530E+02  0.00000000000E+00 0.  1.
        -11    1    4    4    0    0 -0.55359676092E+02 -0.64163705675E+02 -0.86666956673E+02  0.12121401009E+03  0.00000000000E+00 0. -1.
         11    1    4    4    0    0 -0.30126222066E+01  0.28697268472E+02 -0.20373455261E+02  0.35322610176E+02  0.00000000000E+00 0.  1.
         21    1    1    2  502  501  0.40770181531E+02  0.11312533361E+02 -0.21948863827E+02  0.47664806057E+02  0.00000000000E+00 0. -1.
<scales pt_clust_5="13000.00000" pt_clust_6="13000.00000" pt_clust_7="13000.00000" pt_clust_8="13000.00000" pt_clust_9="42.31053"></scales>
<clustering>
<clus scale="   42.311">  2  9  1 -1</clus>
<clus scale="   89.820">  5  6 -1 -1</clus>
<clus scale="   91.547">  7  8 -1 -1</clus>
<clus scale="   97.233">  1  5  2 -1</clus>
<clus scale="   42.311">  2  5  1 -1</clus>
</clustering>
</event>
<event>
 9    1  0.1266593E-005  0.9937926E+02  0.7546771E-02  0.1282056E+00
         -2   -1    0    0    0  501 -0.00000000000E+00  0.00000000000E+00  0.19694679104E+02  0.19694679104E+02  0.00000000000E+00 0.  1.
          2   -1    0    0  502    0  0.00000000000E+00 -0.00000000000E+00 -0.10683852886E+04  0.10683852886E+04  0.00000000000E+00 0. -1.
         23    2    1    2    0    0  0.35637642685E+02 -0.29897412249E+02 -0.22513466831E+03  0.24788569467E+03  0.92724332883E+02 0.  0.
         23    2    1    2    0    0  0.27099908251E+02  0.37508107785E+02 -0.48274513679E+03  0.49357354750E+03  0.91818933323E+02 0.  0.
        -11    1    4    4    0    0  0.32465127010E+02 -0.24382085906E+02 -0.20134960302E+03  0.20540236907E+03  0.00000000000E+00 0. -1.
         11    1    4    4    0    0 -0.53652187589E+01  0.61890193691E+02 -0.28139553377E+03  0.28817117843E+03  0.00000000000E+00 0.  1.
        -13    1    3    3    0    0 -0.22526010001E+02 -0.38219114562E+02 -0.83652886376E+02  0.94688580323E+02  0.00000000000E+00 0. -1.
         13    1    3    3    0    0  0.58163652686E+02  0.83217023128E+01 -0.14148178194E+03  0.15319711434E+03  0.00000000000E+00 0.  1.
         21    1    1    2  502  501 -0.62737550935E+02 -0.76106955362E+01 -0.34081080440E+03  0.34662072555E+03  0.00000000000E+00 0. -1.
<scales pt_clust_5="13000.00000" pt_clust_6="13000.00000" pt_clust_7="13000.00000" pt_clust_8="13000.00000" pt_clust_9="63.19749"></scales>
<clustering>
<clus scale="   63.197">  2  9  1 -1</clus>
<clus scale="   91.819">  5  6 -1 -1</clus>
<clus scale="   92.724">  7  8 -1 -1</clus>
<clus scale="   98.535">  2  5  1 -1</clus>
<clus scale="   63.197">  2  5  1 -1</clus>
</clustering>
</event>
<event>
 9    1  0.1266593E-005  0.9204956E+02  0.7546771E-02  0.1299094E+00
         -1   -1    0    0    0  501 -0.00000000000E+00  0.00000000000E+00  0.79925622408E+02  0.79925622408E+02  0.00000000000E+00 0.  1.
          1   -1    0    0  502    0  0.00000000000E+00 -0.00000000000E+00 -0.21433629075E+03  0.21433629075E+03  0.00000000000E+00 0. -1.
         23    2    1    2    0    0 -0.18502420454E+02 -0.18524546694E+02  0.10619192119E+02  0.93634041069E+02  0.89269636567E+02 0.  0.
         23    2    1    2    0    0  0.10891547746E+02 -0.21801394169E+01 -0.15190419903E+03  0.17752233290E+03  0.91191634354E+02 0.  0.
        -11    1    4    4    0    0  0.41457514129E+02 -0.29141347296E+02 -0.92671315714E+02  0.10562157145E+03  0.00000000000E+00 0.  1.
         11    1    4    4    0    0 -0.30565966383E+02  0.26961207879E+02 -0.59232883316E+02  0.71900761450E+02  0.00000000000E+00 0. -1.
        -13    1    3    3    0    0  0.29053098344E+01  0.20858210030E+02  0.36305171287E+02  0.41971075910E+02  0.00000000000E+00 0.  1.
         13    1    3    3    0    0 -0.21407730288E+02 -0.39382756723E+02 -0.25685979168E+02  0.51662965159E+02  0.00000000000E+00 0. -1.
         21    1    1    2  502  501  0.76108727072E+01  0.20704686111E+02  0.68743385683E+01  0.23105539186E+02  0.00000000000E+00 0.  1.
<scales pt_clust_5="13000.00000" pt_clust_6="13000.00000" pt_clust_7="13000.00000" pt_clust_8="13000.00000" pt_clust_9="22.05923"></scales>
<clustering>
<clus scale="   22.059">  1  9  2 -1</clus>
<clus scale="   89.270">  7  8 -1 -1</clus>
<clus scale="   90.146">  1  7  2 -1</clus>
<clus scale="   91.192">  5  6 -1 -1</clus>
<clus scale="   92.050">  2  5  1 -1</clus>
</clustering>
</event>
<event>
 9    1  0.1266593E-005  0.1779233E+03  0.7546771E-02  0.1169960E+00
         -2   -1    0    0    0  501 -0.00000000000E+00  0.00000000000E+00  0.17113506268E+03  0.17113506268E+03  0.00000000000E+00 0.  1.
          2   -1    0    0  502    0  0.00000000000E+00 -0.00000000000E+00 -0.62044287083E+03  0.62044287083E+03  0.00000000000E+00 0. -1.
         23    2    1    2    0    0  0.80931671975E+02  0.35594953375E+02  0.62355983788E+02  0.14235968514E+03  0.92526077437E+02 0.  0.
         23    2    1    2    0    0 -0.13230547682E+03 -0.93391209838E+02 -0.53663670100E+03  0.56795742587E+03  0.91487876034E+02 0.  0.
        -13    1    4    4    0    0 -0.55779262188E+02  0.59851077362E+01 -0.22817436864E+03  0.23496955145E+03  0.00000000000E+00 0.  1.
         13    1    4    4    0    0 -0.76526214632E+02 -0.99376317574E+02 -0.30846233236E+03  0.33298787442E+03  0.00000000000E+00 0. -1.
        -13    1    3    3    0    0 -0.17178372271E+02  0.22330901805E+02  0.20649456153E+02  0.34930870139E+02  0.00000000000E+00 0. -1.
         13    1    3    3    0    0  0.98110044246E+02  0.13264051570E+02  0.41706527635E+02  0.10742881501E+03  0.00000000000E+00 0.  1.
         21    1    1    2  502  501  0.51373804845E+02  0.57796256463E+02  0.24972909070E+02  0.81260822496E+02  0.00000000000E+00 0.  1.
<scales pt_clust_5="13000.00000" pt_clust_6="13000.00000" pt_clust_7="13000.00000" pt_clust_8="13000.00000" pt_clust_9="77.32836"></scales>
<clustering>
<clus scale="   77.328">  1  9  2 -1</clus>
<clus scale="   91.488">  5  6 -1 -1</clus>
<clus scale="   92.526">  7  8 -1 -1</clus>
<clus scale="  177.386">  2  5  1 -1</clus>
<clus scale="  177.386">  2  5  1 -1</clus>
</clustering>
</event>
<event>
 9    1  0.1266593E-005  0.1274753E+03  0.7546771E-02  0.1232421E+00
          2   -1    0    0  502    0  0.00000000000E+00  0.00000000000E+00  0.47867706501E+03  0.47867706501E+03  0.00000000000E+00 0. -1.
         -2   -1    0    0    0  501 -0.00000000000E+00 -0.00000000000E+00 -0.12876509139E+03  0.12876509139E+03  0.00000000000E+00 0.  1.
         23    2    1    2    0    0 -0.12663730458E+03  0.41630410412E+01  0.13692466938E+02  0.15777172802E+03  0.93005895995E+02 0.  0.
         23    2    1    2    0    0  0.73731197501E+02  0.39436191264E+02  0.35762305225E+03  0.37785078632E+03  0.88800149501E+02 0.  0.
        -11    1    4    4    0    0  0.20966592808E+02 -0.22125334867E+02  0.41475058350E+02  0.51471437926E+02  0.00000000000E+00 0.  1.
         11    1    4    4    0    0  0.52764604693E+02  0.61561526131E+02  0.31614799390E+03  0.32637934839E+03  0.00000000000E+00 0. -1.
        -11    1    3    3    0    0 -0.29547055569E+02  0.16326833015E+02  0.43888130935E+02  0.55369323691E+02  0.00000000000E+00 0. -1.
         11    1    3    3    0    0 -0.97090249012E+02 -0.12163791974E+02 -0.30195663997E+02  0.10240240433E+03  0.00000000000E+00 0.  1.
         21    1    1    2  502  501  0.52906107080E+02 -0.43599232305E+02 -0.21403545572E+02  0.71819642069E+02  0.00000000000E+00 0. -1.
<scales pt_clust_5="13000.00000" pt_clust_6="13000.00000" pt_clust_7="13000.00000" pt_clust_8="13000.00000" pt_clust_9="68.55618"></scales>
<clustering>
<clus scale="   68.556">  2  9  1 -1</clus>
<clus scale="   88.800">  5  6 -1 -1</clus>
<clus scale="   93.006">  7  8 -1 -1</clus>
<clus scale="  124.440">  1  5  2 -1</clus>
<clus scale="  124.440">  1  5  2 -1</clus>
</clustering>
</event>
<event>
 9    1  0.1266593E-005  0.9877622E+02  0.7546771E-02  0.1283029E+00
         -1   -1    0    0    0  501 -0.00000000000E+00  0.00000000000E+00  0.20098348989E+03  0.20098348989E+03  0.00000000000E+00 0.  1.
          1   -1    0    0  502    0  0.00000000000E+00 -0.00000000000E+00 -0.10728290489E+03  0.10728290489E+03  0.00000000000E+00 0. -1.
         23    2    1    2    0    0 -0.12992483869E+02  0.35849969380E+02  0.14243448542E+03  0.17360656364E+03  0.91638590990E+02 0.  0.
         23    2    1    2    0    0  0.25993104679E+02 -0.17155642688E+02 -0.54316290754E+02  0.11121506469E+03  0.91916122665E+02 0.  0.
        -11    1    4    4    0    0  0.48030470911E+02 -0.48716003535E+01 -0.67312298194E+02  0.82834800139E+02  0.00000000000E+00 0.  1.
         11    1    4    4    0    0 -0.22037366232E+02 -0.12284042335E+02  0.12996007441E+02  0.28380264550E+02  0.00000000000E+00 0. -1.
        -13    1    3    3    0    0  0.10298169318E+02 -0.20435038000E+02  0.52084817975E+01  0.23468518317E+02  0.00000000000E+00 0. -1.
         13    1    3    3    0    0 -0.23290653187E+02  0.56285007380E+02  0.13722600363E+03  0.15013804532E+03  0.00000000000E+00 0.  1.
         21    1    1    2  502  501 -0.13000620810E+02 -0.18694326692E+02  0.55823903293E+01  0.23444766446E+02  0.00000000000E+00 0. -1.
<scales pt_clust_5="13000.00000" pt_clust_6="13000.00000" pt_clust_7="13000.00000" pt_clust_8="13000.00000" pt_clust_9="22.77046"></scales>
<clustering>
<clus scale="   22.770">  2  9  1 -1</clus>
<clus scale="   91.639">  7  8 -1 -1</clus>
<clus scale="   91.916">  5  6 -1 -1</clus>
<clus scale="   98.518">  1  7  2 -1</clus>
<clus scale="   22.770">  2  5  1 -1</clus>
</clustering>
</event>
<event>
 9    1  0.1266593E-005  0.1358392E+03  0.7546771E-02  0.1223698E+00
         -1   -1    0    0    0  501 -0.00000000000E+00  0.00000000000E+00  0.23363300830E+03  0.23363300830E+03  0.00000000000E+00 0.  1.
          1   -1    0    0  502    0  0.00000000000E+00 -0.00000000000E+00 -0.31297750888E+03  0.31297750888E+03  0.00000000000E+00 0. -1.
         23    2    1    2    0    0 -0.51416491010E+02 -0.51671374818E+02 -0.32863645102E+02  0.13416056170E+03  0.10772859706E+03 0.  0.
         23    2    1    2    0    0  0.83029225118E+02  0.29577439661E+02 -0.20949830458E+03  0.24493220824E+03  0.91288388360E+02 0.  0.
        -11    1    3    3    0    0 -0.32057838867E+02 -0.27417917352E+02 -0.72465103097E+02  0.83848902149E+02  0.00000000000E+00 0. -1.
         11    1    3    3    0    0 -0.19358652143E+02 -0.24253457466E+02  0.39601457996E+02  0.50311659555E+02  0.00000000000E+00 0.  1.
        -13    1    4    4    0    0  0.55800286056E+02 -0.27870536477E+02 -0.11869845726E+03  0.13408863667E+03  0.00000000000E+00 0.  1.
         13    1    4    4    0    0  0.27228939062E+02  0.57447976138E+02 -0.90799847317E+02  0.11084357157E+03  0.00000000000E+00 0. -1.
         21    1    1    2  502  501 -0.31612734108E+02  0.22093935157E+02  0.16301744911E+03  0.16751774724E+03  0.00000000000E+00 0.  1.
<scales pt_clust_5="13000.00000" pt_clust_6="13000.00000" pt_clust_7="13000.00000" pt_clust_8="13000.00000" pt_clust_9="38.56821"></scales>
<clustering>
<clus scale="   38.568">  1  9  2 -1</clus>
<clus scale="   91.288">  7  8 -1 -1</clus>
<clus scale="  107.729">  5  6 -1 -1</clus>
<clus scale="  123.209">  2  7  1 -1</clus>
<clus scale="  123.209">  2  5  1 -1</clus>
</clustering>
</event>
<event>
 9    1  0.1266593E-005  0.1053043E+03  0.7546771E-02  0.1269635E+00
         -1   -1    0    0    0  501 -0.00000000000E+00  0.00000000000E+00  0.43103978160E+02  0.43103978160E+02  0.00000000000E+00 0.  1.
          1   -1    0    0  502    0  0.00000000000E+00 -0.00000000000E+00 -0.44561227565E+03  0.44561227565E+03  0.00000000000E+00 0. -1.
         23    2    1    2    0    0  0.58513124339E+02 -0.49212640193E+02 -0.18329242686E+03  0.21848117544E+03  0.91061740604E+02 0.  0.
         23    2    1    2    0    0 -0.26293152189E+02  0.27654848155E+02 -0.20758171602E+03  0.22976016569E+03  0.90793416254E+02 0.  0.
        -11    1    4    4    0    0  0.16085093758E+02  0.37286546136E+02 -0.41405316309E+02  0.57994973770E+02  0.00000000000E+00 0.  1.
         11    1    4    4    0    0 -0.42378245947E+02 -0.96316979804E+01 -0.16617639971E+03  0.17176519192E+03  0.00000000000E+00 0. -1.
        -13    1    3    3    0    0 -0.22703349617E+02 -0.18887573938E+02 -0.68792158853E+02  0.74863500137E+02  0.00000000000E+00 0. -1.
         13    1    3    3    0    0  0.81216473956E+02 -0.30325066255E+02 -0.11450026801E+03  0.14361767530E+03  0.00000000000E+00 0.  1.
         21    1    1    2  502  501 -0.32219972150E+02  0.21557792038E+02 -0.11634154611E+02  0.40474912679E+02  0.00000000000E+00 0. -1.
<scales pt_clust_5="13000.00000" pt_clust_6="13000.00000" pt_clust_7="13000.00000" pt_clust_8="13000.00000" pt_clust_9="38.76680"></scales>
<clustering>
<clus scale="   38.767">  1  9  2 -1</clus>
<clus scale="   90.793">  5  6 -1 -1</clus>
<clus scale="   91.062">  7  8 -1 -1</clus>
<clus scale="  105.072">  2  5  1 -1</clus>
<clus scale="  105.072">  2  5  1 -1</clus>
</clustering>
</event>
<event>
 9    1  0.1266593E-005  0.2509802E+03  0.7546771E-02  0.1113727E+00
         -2   -1    0    0    0  501 -0.00000000000E+00  0.00000000000E+00  0.40744071896E+03  0.40744071896E+03  0.00000000000E+00 0.  1.
          2   -1    0    0  502    0  0.00000000000E+00 -0.00000000000E+00 -0.33743910081E+03  0.33743910081E+03  0.00000000000E+00 0. -1.
         23    2    1    2    0    0 -0.24853023117E+03  0.17529683206E+03  0.18480569254E+03  0.36564576039E+03  0.83948930656E+02 0.  0.
         23    2    1    2    0    0  0.16518193235E+03 -0.13330961320E+03 -0.15055745999E+03  0.27929322666E+03  0.10139346110E+03 0.  0.
        -11    1    3    3    0    0 -0.21729105386E+03  0.12203956661E+03  0.17138811520E+03  0.30246147513E+03  0.00000000000E+00 0.  1.
         11    1    3    3    0    0 -0.31239177314E+02  0.53257265442E+02  0.13417577338E+02  0.63184285255E+02  0.00000000000E+00 0. -1.
        -13    1    4    4    0    0  0.17455491823E+03 -0.10204588326E+03 -0.13512316834E+03  0.24318933446E+03  0.00000000000E+00 0. -1.
         13    1    4    4    0    0 -0.93729858798E+01 -0.31263729937E+02 -0.15434291641E+02  0.36103892205E+02  0.00000000000E+00 0.  1.
         21    1    1    2  502  501  0.83348298818E+02 -0.41987218856E+02  0.35753385599E+02  0.99940832720E+02  0.00000000000E+00 0.  1.
<scales pt_clust_5="13000.00000" pt_clust_6="13000.00000" pt_clust_7="13000.00000" pt_clust_8="13000.00000" pt_clust_9="93.32666"></scales>
<clustering>
<clus scale="   83.949">  5  6 -1 -1</clus>
<clus scale="   93.327">  1  9  2 -1</clus>
<clus scale="  101.393">  7  8 -1 -1</clus>
<clus scale="  244.454">  1  5  2 -1</clus>
<clus scale="  250.980">  2  5  1 -1</clus>
</clustering>
</event>
<event>
 9    1  0.1266593E-005  0.1099180E+03  0.7546771E-02  0.1261832E+00
         -3   -1    0    0    0  501 -0.00000000000E+00  0.00000000000E+00  0.23025899540E+03  0.23025899540E+03  0.00000000000E+00 0.  1.
          3   -1    0    0  502    0  0.00000000000E+00 -0.00000000000E+00 -0.90380161476E+02  0.90380161476E+02  0.00000000000E+00 0. -1.
         23    2    1    2    0    0  0.30636514692E+02  0.43575076859E+02  0.69896829880E+02  0.12398551429E+03  0.87461177499E+02 0.  0.
         23    2    1    2    0    0 -0.84045795532E+02 -0.21732708043E+02  0.56205945670E+02  0.13732894167E+03  0.90355539648E+02 0.  0.
        -13    1    4    4    0    0 -0.60173858980E+02  0.22240232134E+02  0.59079170365E+02  0.87211636844E+02  0.00000000000E+00 0.  1.
         13    1    4    4    0    0 -0.23871936552E+02 -0.43972940177E+02 -0.28732246949E+01  0.50117304823E+02  0.00000000000E+00 0. -1.
        -13    1    3    3    0    0  0.57606645359E+02  0.12328381927E+02  0.53476499946E+02  0.79562872227E+02  0.00000000000E+00 0. -1.
         13    1    3    3    0    0 -0.26970130667E+02  0.31246694932E+02  0.16420329934E+02  0.44422642059E+02  0.00000000000E+00 0.  1.
         21    1    1    2  502  501  0.53409280840E+02 -0.21842368816E+02  0.13776058373E+02  0.59324700923E+02  0.00000000000E+00 0. -1.
<scales pt_clust_5="13000.00000" pt_clust_6="13000.00000" pt_clust_7="13000.00000" pt_clust_8="13000.00000" pt_clust_9="57.70304"></scales>
<clustering>
<clus scale="   57.703">  2  9  1 -1</clus>
<clus scale="   87.461">  7  8 -1 -1</clus>
<clus scale="   90.356">  5  6 -1 -1</clus>
<clus scale="  107.551">  1  7  2 -1</clus>
<clus scale="   57.703">  2  5  1 -1</clus>
</clustering>
</event>
<event>
 9    1  0.1266593E-005  0.1110424E+03  0.7546771E-02  0.1259820E+00
          2   -1    0    0  502    0  0.00000000000E+00  0.00000000000E+00  0.48688115867E+03  0.48688115867E+03  0.00000000000E+00 0. -1.
         -2   -1    0    0    0  501 -0.00000000000E+00 -0.00000000000E+00 -0.19030668656E+03  0.19030668656E+03  0.00000000000E+00 0.  1.
         23    2    1    2    0    0  0.52834011563E+01  0.44925893625E+02 -0.14810361502E+03  0.17827454790E+03  0.88322609797E+02 0.  0.
         23    2    1    2    0    0  0.14112039066E+02 -0.62306433230E+02  0.45677936540E+03  0.47019558165E+03  0.91407084367E+02 0.  0.
        -11    1    4    4    0    0  0.18732524612E+02 -0.85674396967E+02  0.35879826032E+03  0.36936053035E+03  0.00000000000E+00 0. -1.
         11    1    4    4    0    0 -0.46204855457E+01  0.23367963736E+02  0.97981105086E+02  0.10083505130E+03  0.00000000000E+00 0.  1.
        -13    1    3    3    0    0 -0.21793357073E+02  0.49850465393E+02 -0.42201279118E+02  0.68854682278E+02  0.00000000000E+00 0.  1.
         13    1    3    3    0    0  0.27076758229E+02 -0.49245717682E+01 -0.10590233590E+03  0.10941986562E+03  0.00000000000E+00 0. -1.
         21    1    1    2  502  501 -0.19395440222E+02  0.17380539605E+02 -0.12101278277E+02  0.28717715688E+02  0.00000000000E+00 0.  1.
<scales pt_clust_5="13000.00000" pt_clust_6="13000.00000" pt_clust_7="13000.00000" pt_clust_8="13000.00000" pt_clust_9="26.04355"></scales>
<clustering>
<clus scale="   26.044">  2  9  1 -1</clus>
<clus scale="   88.323">  7  8 -1 -1</clus>
<clus scale="   91.407">  5  6 -1 -1</clus>
<clus scale="  108.518">  2  7  1 -1</clus>
<clus scale="  111.042">  1  5  2 -1</clus>
</clustering>
</event>
<event>
 9    1  0.1266593E-005  0.1144882E+03  0.7546771E-02  0.1252991E+00
          1   -1    0    0  502    0  0.00000000000E+00  0.00000000000E+00  0.30060451928E+03  0.30060451928E+03  0.00000000000E+00 0. -1.
         -1   -1    0    0    0  501 -0.00000000000E+00 -0.00000000000E+00 -0.56489046555E+02  0.56489046555E+02  0.00000000000E+00 0.  1.
         23    2    1    2    0    0 -0.79023435372E+02 -0.37421641247E+02  0.84972466333E+02  0.14877537915E+03  0.85256734838E+02 0.  0.
         23    2    1    2    0    0  0.68698364692E+02  0.16270856207E+02  0.14145002670E+03  0.17887324955E+03  0.83685860682E+02 0.  0.
        -11    1    3    3    0    0 -0.54968221142E+02 -0.42085992424E+02  0.98799329245E+02  0.12064014072E+03  0.00000000000E+00 0. -1.
         11    1    3    3    0    0 -0.24055214230E+02  0.46643511768E+01 -0.13826862912E+02  0.28135238431E+02  0.00000000000E+00 0.  1.
        -11    1    4    4    0    0  0.18474760219E+02  0.26010960105E+02  0.39299944136E+01  0.32145476615E+02  0.00000000000E+00 0.  1.
         11    1    4    4    0    0  0.50223604474E+02 -0.97401038979E+01  0.13752003229E+03  0.14672777294E+03  0.00000000000E+00 0. -1.
         21    1    1    2  502  501  0.10325070680E+02  0.21150785040E+02  0.17692979686E+02  0.29444937129E+02  0.00000000000E+00 0.  1.
<scales pt_clust_5="13000.00000" pt_clust_6="13000.00000" pt_clust_7="13000.00000" pt_clust_8="13000.00000" pt_clust_9="23.53641"></scales>
<clustering>
<clus scale="   23.536">  2  9  1 -1</clus>
<clus scale="   83.686">  7  8 -1 -1</clus>
<clus scale="   85.257">  5  6 -1 -1</clus>
<clus scale="  113.323">  1  7  2 -1</clus>
<clus scale="  113.323">  1  5  2 -1</clus>
</clustering>
</event>
<event>
 9    1  0.1266593E-005  0.1515066E+03  0.7546771E-02  0.1198644E+00
         -2   -1    0    0    0  501 -0.00000000000E+00  0.00000000000E+00  0.11998635603E+03  0.11998635603E+03  0.00000000000E+00 0.  1.
          2   -1    0    0  502    0  0.00000000000E+00 -0.00000000000E+00 -0.46020733583E+03  0.46020733583E+03  0.00000000000E+00 0. -1.
         23    2    1    2    0    0  0.83715506931E+02  0.59856402460E+02  0.20047399592E+02  0.13893281923E+03  0.91155663639E+02 0.  0.
         23    2    1    2    0    0 -0.81752925012E+02 -0.94561977189E+02 -0.37334825115E+03  0.40412044062E+03  0.91098329348E+02 0.  0.
        -11    1    4    4    0    0 -0.22723849793E+02 -0.13352286287E+02 -0.11773961009E+02  0.28866642624E+02  0.00000000000E+00 0.  1.
         11    1    4    4    0    0 -0.59029075219E+02 -0.81209690902E+02 -0.36157429014E+03  0.37525379799E+03  0.00000000000E+00 0. -1.
        -13    1    3    3    0    0  0.20584716640E+02  0.29297714957E+01 -0.32802168184E+02  0.38836791291E+02  0.00000000000E+00 0. -1.
         13    1    3    3    0    0  0.63130790291E+02  0.56926630964E+02  0.52849567777E+02  0.10009602794E+03  0.00000000000E+00 0.  1.
         21    1    1    2  502  501 -0.19625819188E+01  0.34705574730E+02  0.13079871761E+02  0.37140432017E+02  0.00000000000E+00 0. -1.
<scales pt_clust_5="13000.00000" pt_clust_6="13000.00000" pt_clust_7="13000.00000" pt_clust_8="13000.00000" pt_clust_9="34.76102"></scales>
<clustering>
<clus scale="   34.761">  1  9  2 -1</clus>
<clus scale="   91.098">  5  6 -1 -1</clus>
<clus scale="   91.156">  7  8 -1 -1</clus>
<clus scale="  151.472">  2  5  1 -1</clus>
<clus scale="  151.472">  2  5  1 -1</clus>
</clustering>
</event>
<event>
 9    1  0.1266593E-005  0.1761656E+03  0.7546771E-02  0.1176696E+00
          1   -1    0    0  502    0  0.00000000000E+00  0.00000000000E+00  0.77891047137E+03  0.77891047137E+03  0.00000000000E+00 0. -1.
         -1   -1    0    0    0  501 -0.00000000000E+00 -0.00000000000E+00 -0.16738985828E+03  0.16738985828E+03  0.00000000000E+00 0.  1.
         23    2    1    2    0    0  0.51385988451E+02  0.10026835524E+03  0.14716797600E+03  0.22242773435E+03  0.12296918711E+03 0.  0.
         23    2    1    2    0    0 -0.41233021262E+02 -0.12362478668E+03  0.58192919229E+03  0.60356942841E+03  0.93119386567E+02 0.  0.
        -11    1    4    4    0    0 -0.18694527538E+02 -0.12556903855E+03  0.54985202704E+03  0.56431757056E+03  0.00000000000E+00 0. -1.
         11    1    4    4    0    0 -0.22538493724E+02  0.19442518701E+01  0.32077165249E+02  0.39251857855E+02  0.00000000000E+00 0.  1.
        -11    1    3    3    0    0 -0.40104009908E+02  0.18972584246E+02  0.40848058502E+02  0.60306338365E+02  0.00000000000E+00 0. -1.
         11    1    3    3    0    0  0.91489998359E+02  0.81295770992E+02  0.10631991749E+03  0.16212139599E+03  0.00000000000E+00 0.  1.
         21    1    1    2  502  501 -0.10152967189E+02  0.23356431445E+02 -0.11757655519E+03  0.12030316689E+03  0.00000000000E+00 0.  1.
<scales pt_clust_5="13000.00000" pt_clust_6="13000.00000" pt_clust_7="13000.00000" pt_clust_8="13000.00000" pt_clust_9="25.46774"></scales>
<clustering>
<clus scale="   25.468">  2  9  1 -1</clus>
<clus scale="   93.119">  5  6 -1 -1</clus>
<clus scale="  122.969">  7  8 -1 -1</clus>
<clus scale="  156.793">  1  5  2 -1</clus>
<clus scale="  156.793">  1  5  2 -1</clus>
</clustering>
</event>
<event>
 9    1  0.1266593E-005  0.1691701E+03  0.7546771E-02  0.1178972E+00
         -1   -1    0    0    0  501 -0.00000000000E+00  0.00000000000E+00  0.39212775496E+03  0.39212775496E+03  0.00000000000E+00 0.  1.
          1   -1    0    0  502    0  0.00000000000E+00 -0.00000000000E+00 -0.89695763393E+02  0.89695763393E+02  0.00000000000E+00 0. -1.
         23    2    1    2    0    0  0.89964885869E+02 -0.86787448149E+02  0.11807235763E+03  0.19534535944E+03  0.92698360142E+02 0.  0.
         23    2    1    2    0    0 -0.10925165866E+03  0.11652275332E+03  0.15665162687E+03  0.24149036463E+03  0.90908674218E+02 0.  0.
        -11    1    3    3    0    0  0.30520363939E+02 -0.49159306583E+02  0.11031076748E+03  0.12456562713E+03  0.00000000000E+00 0.  1.
         11    1    3    3    0    0  0.59444521931E+02 -0.37628141565E+02  0.77615901510E+01  0.70779732317E+02  0.00000000000E+00 0. -1.
        -13    1    4    4    0    0 -0.60336856419E+02  0.98826924937E+02  0.56955004550E+02  0.12903941211E+03  0.00000000000E+00 0. -1.
         13    1    4    4    0    0 -0.48914802244E+02  0.17695828381E+02  0.99696622321E+02  0.11245095252E+03  0.00000000000E+00 0.  1.
         21    1    1    2  502  501  0.19286772793E+02 -0.29735305170E+02  0.27708007059E+02  0.44987794273E+02  0.00000000000E+00 0. -1.
<scales pt_clust_5="13000.00000" pt_clust_6="13000.00000" pt_clust_7="13000.00000" pt_clust_8="13000.00000" pt_clust_9="35.44246"></scales>
<clustering>
<clus scale="   35.442">  2  9  1 -1</clus>
<clus scale="   90.909">  7  8 -1 -1</clus>
<clus scale="   92.698">  5  6 -1 -1</clus>
<clus scale="  168.196">  2  7  1 -1</clus>
<clus scale="   35.442">  2  5  1 -1</clus>
</clustering>
</event>
<event>
 9    1  0.1266593E-005  0.1047874E+03  0.7546771E-02  0.1271908E+00
         -1   -1    0    0    0  501 -0.00000000000E+00  0.00000000000E+00  0.29800370158E+02  0.29800370158E+02  0.00000000000E+00 0.  1.
          1   -1    0    0  502    0  0.00000000000E+00 -0.00000000000E+00 -0.44729392557E+03  0.44729392557E+03  0.00000000000E+00 0. -1.
         23    2    1    2    0    0 -0.16383169821E+02 -0.20048949672E+02 -0.15102241884E+03  0.18196687377E+03  0.98151940987E+02 0.  0.
         23    2    1    2    0    0  0.34953032408E+02  0.27933548028E+02 -0.23813016772E+03  0.26033924577E+03  0.95228926944E+02 0.  0.
        -11    1    3    3    0    0  0.25486902675E+02  0.13783349897E+02 -0.11145254400E+03  0.11515742488E+03  0.00000000000E+00 0. -1.
         11    1    3    3    0    0 -0.41870072496E+02 -0.33832299569E+02 -0.39569874845E+02  0.66809448884E+02  0.00000000000E+00 0.  1.
        -13    1    4    4    0    0 -0.27815377182E+02  0.29161193027E+02 -0.68646206034E+02  0.79601331581E+02  0.00000000000E+00 0.  1.
         13    1    4    4    0    0  0.62768409590E+02 -0.12276449995E+01 -0.16948396169E+03  0.18073791418E+03  0.00000000000E+00 0. -1.
         21    1    1    2  502  501 -0.18569862586E+02 -0.78845983561E+01 -0.28340968847E+02  0.34788176194E+02  0.00000000000E+00 0. -1.
<scales pt_clust_5="13000.00000" pt_clust_6="13000.00000" pt_clust_7="13000.00000" pt_clust_8="13000.00000" pt_clust_9="20.17441"></scales>
<clustering>
<clus scale="   20.174">  1  9  2 -1</clus>
<clus scale="   95.229">  7  8 -1 -1</clus>
<clus scale="   98.152">  5  6 -1 -1</clus>
<clus scale="  102.055">  2  7  1 -1</clus>
<clus scale="  102.055">  2  5  1 -1</clus>
</clustering>
</event>
<event>
 9    1  0.1266593E-005  0.1082926E+03  0.7546771E-02  0.1264273E+00
         -2   -1    0    0    0  501 -0.00000000000E+00  0.00000000000E+00  0.56836252017E+02  0.56836252017E+02  0.00000000000E+00 0.  1.
          2   -1    0    0  502    0  0.00000000000E+00 -0.00000000000E+00 -0.54235829298E+03  0.54235829298E+03  0.00000000000E+00 0. -1.
         23    2    1    2    0    0  0.82047409601E+01 -0.49457917040E+02 -0.24849336008E+02  0.10796871396E+03  0.92338238899E+02 0.  0.
         23    2    1    2    0    0  0.18376200096E+02  0.55398841841E+02 -0.44855429568E+03  0.46141481196E+03  0.91082139383E+02 0.  0.
        -13    1    3    3    0    0 -0.29657149990E+02  0.11212878398E+02  0.15304426320E+01  0.31742990442E+02  0.00000000000E+00 0.  1.
         13    1    3    3    0    0  0.37861890950E+02 -0.60670795438E+02 -0.26379778640E+02  0.76225723523E+02  0.00000000000E+00 0. -1.
        -13    1    4    4    0    0  0.49116139630E+02  0.85525618724E+01 -0.16457917226E+03  0.17196466332E+03  0.00000000000E+00 0. -1.
         13    1    4    4    0    0 -0.30739939534E+02  0.46846279968E+02 -0.28397512341E+03  0.28945014864E+03  0.00000000000E+00 0.  1.
         21    1    1    2  502  501 -0.26580941056E+02 -0.59409248009E+01 -0.12118409275E+02  0.29811019075E+02  0.00000000000E+00 0.  1.
<scales pt_clust_5="13000.00000" pt_clust_6="13000.00000" pt_clust_7="13000.00000" pt_clust_8="13000.00000" pt_clust_9="27.23676"></scales>
<clustering>
<clus scale="   27.237">  1  9  2 -1</clus>
<clus scale="   91.082">  7  8 -1 -1</clus>
<clus scale="   92.338">  5  6 -1 -1</clus>
<clus scale="  107.224">  2  7  1 -1</clus>
<clus scale="  107.224">  2  5  1 -1</clus>
</clustering>
</event>
<event>
 9    1  0.1266593E-005  0.1077430E+03  0.7546771E-02  0.1265451E+00
          1   -1    0    0  502    0  0.00000000000E+00  0.00000000000E+00  0.61497517264E+03  0.61497517264E+03  0.00000000000E+00 0. -1.
         -1   -1    0    0    0  501 -0.00000000000E+00 -0.00000000000E+00 -0.31767665462E+02  0.31767665462E+02  0.00000000000E+00 0.  1.
         23    2    1    2    0    0 -0.41322938617E+01  0.43930019227E+02  0.95363184493E+02  0.13991877980E+03  0.92391588056E+02 0.  0.
         23    2    1    2    0    0  0.23782139840E+02 -0.50591683404E+02  0.45522464039E+03  0.46816480469E+03  0.93934565132E+02 0.  0.
        -11    1    4    4    0    0 -0.31380864251E+02 -0.12536000865E+02  0.77582859352E+02  0.84622751220E+02  0.00000000000E+00 0.  1.
         11    1    4    4    0    0  0.55163004091E+02 -0.38055682539E+02  0.37764178103E+03  0.38354205347E+03  0.00000000000E+00 0. -1.
        -11    1    3    3    0    0 -0.37869722331E+02  0.55050587584E+02  0.64243536911E+02  0.92692583833E+02  0.00000000000E+00 0.  1.
         11    1    3    3    0    0  0.33737428470E+02 -0.11120568357E+02  0.31119647582E+02  0.47226195971E+02  0.00000000000E+00 0. -1.
         21    1    1    2  502  501 -0.19649845979E+02  0.66616641769E+01  0.32619682302E+02  0.38659253615E+02  0.00000000000E+00 0.  1.
<scales pt_clust_5="13000.00000" pt_clust_6="13000.00000" pt_clust_7="13000.00000" pt_clust_8="13000.00000" pt_clust_9="20.74835"></scales>
<clustering>
<clus scale="   20.748">  2  9  1 -1</clus>
<clus scale="   92.392">  7  8 -1 -1</clus>
<clus scale="   93.935">  5  6 -1 -1</clus>
<clus scale="  106.400">  2  7  1 -1</clus>
<clus scale="  107.743">  1  5  2 -1</clus>
</clustering>
</event>
<event>
 9    1  0.1266593E-005  0.1308130E+03  0.7546771E-02  0.1226828E+00
         -1   -1    0    0    0  501 -0.00000000000E+00  0.00000000000E+00  0.15820807301E+03  0.15820807301E+03  0.00000000000E+00 0.  1.
          1   -1    0    0  502    0  0.00000000000E+00 -0.00000000000E+00 -0.29917784761E+03  0.29917784761E+03  0.00000000000E+00 0. -1.
         23    2    1    2    0    0  0.76299992588E+02  0.20032594975E+01  0.62553232990E+02  0.13333195594E+03  0.89659364259E+02 0.  0.
         23    2    1    2    0    0 -0.81318860077E+02 -0.55120199251E+02 -0.22849392726E+03  0.26514602678E+03  0.91880070485E+02 0.  0.
        -13    1    4    4    0    0  0.18514740068E+02 -0.19299862643E+02 -0.64695682741E+02  0.70005797354E+02  0.00000000000E+00 0.  1.
         13    1    4    4    0    0 -0.99833600145E+02 -0.35820336607E+02 -0.16379824452E+03  0.19514022942E+03  0.00000000000E+00 0. -1.
        -13    1    3    3    0    0  0.23483131485E+02 -0.22184825544E+02  0.67699613157E+02  0.75012409442E+02  0.00000000000E+00 0. -1.
         13    1    3    3    0    0  0.52816861103E+02  0.24188085041E+02 -0.51463801665E+01  0.58319546496E+02  0.00000000000E+00 0.  1.
         21    1    1    2  502  501  0.50188674888E+01  0.53116939753E+02  0.24970919661E+02  0.58907937906E+02  0.00000000000E+00 0. -1.
<scales pt_clust_5="13000.00000" pt_clust_6="13000.00000" pt_clust_7="13000.00000" pt_clust_8="13000.00000" pt_clust_9="53.35352"></scales>
<clustering>
<clus scale="   53.354">  1  9  2 -1</clus>
<clus scale="   89.659">  7  8 -1 -1</clus>
<clus scale="   91.880">  5  6 -1 -1</clus>
<clus scale="  129.263">  1  7  2 -1</clus>
<clus scale="  130.813">  2  5  1 -1</clus>
</clustering>
</event>
<event>
 9    1  0.1266593E-005  0.1028446E+03  0.7546771E-02  0.1276182E+00
          4   -1    0    0  502    0  0.00000000000E+00  0.00000000000E+00  0.66223832973E+02  0.66223832973E+02  0.00000000000E+00 0. -1.
         -4   -1    0    0    0  501 -0.00000000000E+00 -0.00000000000E+00 -0.26130007414E+03  0.26130007414E+03  0.00000000000E+00 0.  1.
         23    2    1    2    0    0 -0.19965426422E+02 -0.13750834053E+02 -0.10382250550E+03  0.14052948597E+03  0.91551734493E+02 0.  0.
         23    2    1    2    0    0  0.36823475748E+02  0.46467932667E+02 -0.21358678821E+02  0.10800124840E+03  0.87708832865E+02 0.  0.
        -13    1    3    3    0    0 -0.29103641594E+02 -0.49147674649E+02 -0.52964511125E+02  0.77895797808E+02  0.00000000000E+00 0.  1.
         13    1    3    3    0    0  0.91382151721E+01  0.35396840595E+02 -0.50857994375E+02  0.62633688160E+02  0.00000000000E+00 0. -1.
        -13    1    4    4    0    0  0.39551245611E+01  0.55341988760E+02 -0.40732439897E+02  0.68829574967E+02  0.00000000000E+00 0.  1.
         13    1    4    4    0    0  0.32868351187E+02 -0.88740560927E+01  0.19373761076E+02  0.39171673433E+02  0.00000000000E+00 0. -1.
         21    1    1    2  502  501 -0.16858049326E+02 -0.32717098614E+02 -0.69895056842E+02  0.78993172741E+02  0.00000000000E+00 0.  1.
<scales pt_clust_5="13000.00000" pt_clust_6="13000.00000" pt_clust_7="13000.00000" pt_clust_8="13000.00000" pt_clust_9="36.80492"></scales>
<clustering>
<clus scale="   36.805">  2  9  1 -1</clus>
<clus scale="   87.709">  7  8 -1 -1</clus>
<clus scale="   91.552">  5  6 -1 -1</clus>
<clus scale="   99.439">  1  7  2 -1</clus>
<clus scale="   99.439">  1  5  2 -1</clus>
</clustering>
</event>
<event>
 9    1  0.1266593E-005  0.1172520E+03  0.7546771E-02  0.1247766E+00
         -2   -1    0    0    0  501 -0.00000000000E+00  0.00000000000E+00  0.14752897319E+03  0.14752897319E+03  0.00000000000E+00 0.  1.
          2   -1    0    0  502    0  0.00000000000E+00 -0.00000000000E+00 -0.19073708645E+03  0.19073708645E+03  0.00000000000E+00 0. -1.
         23    2    1    2    0    0 -0.23275939431E+02 -0.41118734700E+02 -0.23211504063E+02  0.10564614174E+03  0.91595925913E+02 0.  0.
         23    2    1    2    0    0  0.26343859169E+02  0.95301541226E+02 -0.76016277290E+02  0.15462381628E+03  0.91398399721E+02 0.  0.
        -11    1    4    4    0    0 -0.31616347617E+02  0.53917935189E+02 -0.26532384968E+02  0.67902169508E+02  0.00000000000E+00 0.  1.
         11    1    4    4    0    0  0.57960206786E+02  0.41383606036E+02 -0.49483892322E+02  0.86721646770E+02  0.00000000000E+00 0. -1.
        -13    1    3    3    0    0  0.25229986275E+02 -0.47240751534E+02 -0.63578250413E+01  0.53932019730E+02  0.00000000000E+00 0.  1.
         13    1    3    3    0    0 -0.48505925706E+02  0.61220168334E+01 -0.16853679022E+02  0.51714122010E+02  0.00000000000E+00 0. -1.
         21    1    1    2  502  501 -0.30679197381E+01 -0.54182806525E+02  0.56019668093E+02  0.77996101619E+02  0.00000000000E+00 0.  1.
<scales pt_clust_5="13000.00000" pt_clust_6="13000.00000" pt_clust_7="13000.00000" pt_clust_8="13000.00000" pt_clust_9="54.26959"></scales>
<clustering>
<clus scale="   54.270">  1  9  2 -1</clus>
<clus scale="   91.398">  5  6 -1 -1</clus>
<clus scale="   91.596">  7  8 -1 -1</clus>
<clus scale="  117.098">  2  5  1 -1</clus>
<clus scale="  117.098">  2  5  1 -1</clus>
</clustering>
</event>
<event>
 9    1  0.1266593E-005  0.1087165E+03  0.7546771E-02  0.1263989E+00
         -3   -1    0    0    0  501 -0.00000000000E+00  0.00000000000E+00  0.17705279921E+03  0.17705279921E+03  0.00000000000E+00 0.  1.
          3   -1    0    0  502    0  0.00000000000E+00 -0.00000000000E+00 -0.90419252548E+02  0.90419252548E+02  0.00000000000E+00 0. -1.
         23    2    1    2    0    0 -0.26380633891E+02  0.37525821211E+02  0.61346787926E+02  0.11920820497E+03  0.91340257511E+02 0.  0.
         23    2    1    2    0    0  0.49059863681E+02 -0.46016573220E+02 -0.25069914369E+01  0.11140013994E+03  0.88765482805E+02 0.  0.
        -13    1    3    3    0    0 -0.43019103509E+01  0.36037781632E+02 -0.15332712960E+02  0.39399495229E+02  0.00000000000E+00 0. -1.
         13    1    3    3    0    0 -0.22078723540E+02  0.14880395792E+01  0.76679500886E+02  0.79808709744E+02  0.00000000000E+00 0.  1.
        -13    1    4    4    0    0 -0.17416262765E+02 -0.30729932630E+02 -0.20520861010E+02  0.40850467619E+02  0.00000000000E+00 0. -1.
         13    1    4    4    0    0  0.66476126446E+02 -0.15286640591E+02  0.18013869573E+02  0.70549672322E+02  0.00000000000E+00 0.  1.
         21    1    1    2  502  501 -0.22679229790E+02  0.84907520095E+01  0.27793750176E+02  0.36863706846E+02  0.00000000000E+00 0.  1.
<scales pt_clust_5="13000.00000" pt_clust_6="13000.00000" pt_clust_7="13000.00000" pt_clust_8="13000.00000" pt_clust_9="24.21653"></scales>
<clustering>
<clus scale="   24.217">  1  9  2 -1</clus>
<clus scale="   88.765">  7  8 -1 -1</clus>
<clus scale="   91.340">  5  6 -1 -1</clus>
<clus scale="  106.562">  2  7  1 -1</clus>
<clus scale="  106.562">  2  5  1 -1</clus>
</clustering>
</event>
<event>
 9    1  0.1266593E-005  0.1025965E+03  0.7546771E-02  0.1274983E+00
         -4   -1    0    0    0  501 -0.00000000000E+00  0.00000000000E+00  0.44004862766E+03  0.44004862766E+03  0.00000000000E+00 0.  1.
          4   -1    0    0  502    0  0.00000000000E+00 -0.00000000000E+00 -0.53003422624E+02  0.53003422624E+02  0.00000000000E+00 0. -1.
         23    2    1    2    0    0  0.18418229039E+02 -0.60610657535E+02  0.26231962351E+03  0.28495474329E+03  0.91513593965E+02 0.  0.
         23    2    1    2    0    0 -0.46305700146E+02  0.12627362899E+02  0.49154854593E+02  0.11433674823E+03  0.91394880092E+02 0.  0.
        -11    1    4    4    0    0 -0.50147177314E+02  0.34258435213E+02  0.25960098024E+00  0.60732587368E+02  0.00000000000E+00 0. -1.
         11    1    4    4    0    0  0.38414771676E+01 -0.21631072314E+02  0.48895253613E+02  0.53604160866E+02  0.00000000000E+00 0.  1.
        -11    1    3    3    0    0  0.55729473310E+02 -0.40689448037E+02  0.16227290957E+03  0.17633463233E+03  0.00000000000E+00 0.  1.
         11    1    3    3    0    0 -0.37311244272E+02 -0.19921209497E+02  0.10004671394E+03  0.10862011097E+03  0.00000000000E+00 0. -1.
         21    1    1    2  502  501  0.27887471108E+02  0.47983294636E+02  0.75570726937E+02  0.93760558758E+02  0.00000000000E+00 0.  1.
<scales pt_clust_5="13000.00000" pt_clust_6="13000.00000" pt_clust_7="13000.00000" pt_clust_8="13000.00000" pt_clust_9="55.49872"></scales>
<clustering>
<clus scale="   55.499">  1  9  2 -1</clus>
<clus scale="   91.395">  5  6 -1 -1</clus>
<clus scale="   91.514">  7  8 -1 -1</clus>
<clus scale="  102.491">  2  5  1 -1</clus>
<clus scale="  102.491">  2  5  1 -1</clus>
</clustering>
</event>
<event>
 9    1  0.1266593E-005  0.1133181E+03  0.7546771E-02  0.1256947E+00
         -1   -1    0    0    0  501 -0.00000000000E+00  0.00000000000E+00  0.76318889538E+03  0.76318889538E+03  0.00000000000E+00 0.  1.
          1   -1    0    0  502    0  0.00000000000E+00 -0.00000000000E+00 -0.31951958365E+02  0.31951958365E+02  0.00000000000E+00 0. -1.
         23    2    1    2    0    0  0.39733273895E+02 -0.95409925008E+01  0.25651441365E+03  0.27404505447E+03  0.87357219925E+02 0.  0.
         23    2    1    2    0    0 -0.79224991516E+02 -0.70962399165E+01  0.15188669918E+03  0.19542823467E+03  0.93785231335E+02 0.  0.
        -13    1    3    3    0    0  0.14833501033E+02  0.33526249303E+02  0.17295760228E+03  0.17680037989E+03  0.00000000000E+00 0. -1.
         13    1    3    3    0    0  0.24899772862E+02 -0.43067241804E+02  0.83556811375E+02  0.97244674571E+02  0.00000000000E+00 0.  1.
        -13    1    4    4    0    0 -0.89433731042E+02  0.13074921142E+02  0.14657995562E+03  0.17220635644E+03  0.00000000000E+00 0. -1.
         13    1    4    4    0    0  0.10208739525E+02 -0.20171161058E+02  0.53067435643E+01  0.23221878227E+02  0.00000000000E+00 0.  1.
         21    1    1    2  502  501  0.39491717622E+02  0.16637232417E+02  0.32283582418E+03  0.32566756461E+03  0.00000000000E+00 0.  1.
<scales pt_clust_5="13000.00000" pt_clust_6="13000.00000" pt_clust_7="13000.00000" pt_clust_8="13000.00000" pt_clust_9="42.85316"></scales>
<clustering>
<clus scale="   42.853">  1  9  2 -1</clus>
<clus scale="   87.357">  5  6 -1 -1</clus>
<clus scale="   93.785">  7  8 -1 -1</clus>
<clus scale="  108.058">  1  5  2 -1</clus>
<clus scale="  113.318">  2  5  1 -1</clus>
</clustering>
</event>
<event>
 9    1  0.1266593E-005  0.1041523E+03  0.7546771E-02  0.1273812E+00
         -1   -1    0    0    0  501 -0.00000000000E+00  0.00000000000E+00  0.62357986573E+02  0.62357986573E+02  0.00000000000E+00 0.  1.
          1   -1    0    0  502    0  0.00000000000E+00 -0.00000000000E+00 -0.29259873766E+03  0.29259873766E+03  0.00000000000E+00 0. -1.
         23    2    1    2    0    0 -0.22099772975E+02  0.77408598563E+01 -0.89383145826E+02  0.13318188662E+03  0.95915313105E+02 0.  0.
         23    2    1    2    0    0  0.45348150358E+02 -0.29190882121E+02 -0.15432794323E+03  0.18739402158E+03  0.91601544335E+02 0.  0.
        -13    1    3    3    0    0 -0.58274705587E+02  0.14611030754E+02 -0.67433743593E+02  0.90314635059E+02  0.00000000000E+00 0.  1.
         13    1    3    3    0    0  0.36174932612E+02 -0.68701708977E+01 -0.21949402233E+02  0.42867251557E+02  0.00000000000E+00 0. -1.
        -13    1    4    4    0    0 -0.15550674957E+02  0.20781072552E+02 -0.25478703468E+02  0.36370878439E+02  0.00000000000E+00 0.  1.
         13    1    4    4    0    0  0.60898825316E+02 -0.49971954672E+02 -0.12884923976E+03  0.15102314314E+03  0.00000000000E+00 0. -1.
         21    1    1    2  502  501 -0.23248377384E+02  0.21450022264E+02  0.13470337966E+02  0.34380816032E+02  0.00000000000E+00 0.  1.
<scales pt_clust_5="13000.00000" pt_clust_6="13000.00000" pt_clust_7="13000.00000" pt_clust_8="13000.00000" pt_clust_9="31.63211"></scales>
<clustering>
<clus scale="   31.632">  1  9  2 -1</clus>
<clus scale="   91.602">  7  8 -1 -1</clus>
<clus scale="   95.915">  5  6 -1 -1</clus>
<clus scale="  100.194">  2  7  1 -1</clus>
<clus scale="  100.194">  2  5  1 -1</clus>
</clustering>
</event>
<event>
 9    1  0.1266593E-005  0.2040083E+03  0.7546771E-02  0.1171709E+00
          2   -1    0    0  502    0  0.00000000000E+00  0.00000000000E+00  0.13084260771E+04  0.13084260771E+04  0.00000000000E+00 0. -1.
         -2   -1    0    0    0  501 -0.00000000000E+00 -0.00000000000E+00 -0.53963628683E+02  0.53963628683E+02  0.00000000000E+00 0.  1.
         23    2    1    2    0    0 -0.21393242140E+02 -0.63078422860E+02  0.26546068595E+03  0.28853597196E+03  0.91362317663E+02 0.  0.
         23    2    1    2    0    0  0.71990764345E+02  0.19275990736E+03  0.84139852253E+03  0.87096432279E+03  0.91040242893E+02 0.  0.
        -11    1    3    3    0    0  0.31262440239E+02 -0.42257348875E+02  0.90696051813E+02  0.10482746548E+03  0.00000000000E+00 0. -1.
         11    1    3    3    0    0 -0.52655682379E+02 -0.20821073985E+02  0.17476463414E+03  0.18370850648E+03  0.00000000000E+00 0.  1.
        -13    1    4    4    0    0  0.57651434533E+02  0.95233879509E+02  0.28631631791E+03  0.30719735287E+03  0.00000000000E+00 0.  1.
         13    1    4    4    0    0  0.14339329812E+02  0.97526027848E+02  0.55508220462E+03  0.56376696992E+03  0.00000000000E+00 0. -1.
         21    1    1    2  502  501 -0.50597522205E+02 -0.12968148450E+03  0.14760323998E+03  0.20288941108E+03  0.00000000000E+00 0.  1.
<scales pt_clust_5="13000.00000" pt_clust_6="13000.00000" pt_clust_7="13000.00000" pt_clust_8="13000.00000" pt_clust_9="182.56798"></scales>
<clustering>
<clus scale="   91.040">  7  8 -1 -1</clus>
<clus scale="   91.362">  5  6 -1 -1</clus>
<clus scale="  113.065">  2  5  1 -1</clus>
<clus scale="  182.568">  2  9  1 -1</clus>
<clus scale="  204.008">  1  5  2 -1</clus>
</clustering>
</event>
<event>
 9    1  0.1266593E-005  0.9422604E+02  0.7546771E-02  0.1293696E+00
         -1   -1    0    0    0  501 -0.00000000000E+00  0.00000000000E+00  0.30553484075E+02  0.30553484075E+02  0.00000000000E+00 0.  1.
          1   -1    0    0  502    0  0.00000000000E+00 -0.00000000000E+00 -0.51791874329E+03  0.51791874329E+03  0.00000000000E+00 0. -1.
         23    2    1    2    0    0  0.20334814042E+02 -0.19100841422E+02 -0.10894072518E+03  0.14383693933E+03  0.89680748826E+02 0.  0.
         23    2    1    2    0    0  0.11542950347E+02  0.25845566949E+02 -0.34507799180E+03  0.35801259974E+03  0.91065735097E+02 0.  0.
        -11    1    4    4    0    0  0.47004001404E+02  0.40337649311E+00 -0.23386987915E+03  0.23854697490E+03  0.00000000000E+00 0. -1.
         11    1    4    4    0    0 -0.35461051057E+02  0.25442190456E+02 -0.11120811266E+03  0.11946562484E+03  0.00000000000E+00 0.  1.
        -11    1    3    3    0    0  0.48257151542E+02 -0.30068999484E+02 -0.95094368198E+02  0.11079637299E+03  0.00000000000E+00 0. -1.
         11    1    3    3    0    0 -0.27922337499E+02  0.10968158062E+02 -0.13846356977E+02  0.33040566343E+02  0.00000000000E+00 0.  1.
         21    1    1    2  502  501 -0.31877764389E+02 -0.67447255277E+01 -0.33346542239E+02  0.46622688298E+02  0.00000000000E+00 0. -1.
<scales pt_clust_5="13000.00000" pt_clust_6="13000.00000" pt_clust_7="13000.00000" pt_clust_8="13000.00000" pt_clust_9="32.58348"></scales>
<clustering>
<clus scale="   32.583">  1  9  2 -1</clus>
<clus scale="   89.681">  7  8 -1 -1</clus>
<clus scale="   91.066">  5  6 -1 -1</clus>
<clus scale="   92.888">  1  7  2 -1</clus>
<clus scale="   94.226">  2  5  1 -1</clus>
</clustering>
</event>
<event>
 9    1  0.1266593E-005  0.1357865E+03  0.7546771E-02  0.1220732E+00
         -1   -1    0    0    0  501 -0.00000000000E+00  0.00000000000E+00  0.28811159002E+02  0.28811159002E+02  0.00000000000E+00 0.  1.
          1   -1    0    0  502    0  0.00000000000E+00 -0.00000000000E+00 -0.88269889659E+03  0.88269889659E+03  0.00000000000E+00 0. -1.
         23    2    1    2    0    0  0.87111925477E+02 -0.62088018098E+02 -0.25904423659E+03  0.29721877691E+03  0.98952894297E+02 0.  0.
         23    2    1    2    0    0 -0.77025680270E+02  0.42074915406E+02 -0.54332851309E+03  0.55811254070E+03  0.92630885876E+02 0.  0.
        -11    1    4    4    0    0 -0.85937949059E+02  0.46515808623E+01 -0.31405629484E+03  0.32563526317E+03  0.00000000000E+00 0.  1.
         11    1    4    4    0    0  0.89122687890E+01  0.37423334544E+02 -0.22927221825E+03  0.23247727753E+03  0.00000000000E+00 0. -1.
        -11    1    3    3    0    0 -0.65843784614E+01 -0.45207843099E+02 -0.51270232551E+02  0.68671244806E+02  0.00000000000E+00 0.  1.
         11    1    3    3    0    0  0.93696303939E+02 -0.16880175000E+02 -0.20777400404E+03  0.22854753211E+03  0.00000000000E+00 0. -1.
         21    1    1    2  502  501 -0.10086245207E+02  0.20013102692E+02 -0.51514987905E+02  0.56178737976E+02  0.00000000000E+00 0.  1.
<scales pt_clust_5="13000.00000" pt_clust_6="13000.00000" pt_clust_7="13000.00000" pt_clust_8="13000.00000" pt_clust_9="22.41108"></scales>
<clustering>
<clus scale="   22.411">  1  9  2 -1</clus>
<clus scale="   92.631">  5  6 -1 -1</clus>
<clus scale="   98.953">  7  8 -1 -1</clus>
<clus scale="  131.251">  2  5  1 -1</clus>
<clus scale="  131.251">  2  5  1 -1</clus>
</clustering>
</event>
<event>
 9    1  0.1266593E-005  0.1159166E+03  0.7546771E-02  0.1253455E+00
          2   -1    0    0  502    0  0.00000000000E+00  0.00000000000E+00  0.26569801481E+03  0.26569801481E+03  0.00000000000E+00 0. -1.
         -2   -1    0    0    0  501 -0.00000000000E+00 -0.00000000000E+00 -0.69745611768E+02  0.69745611768E+02  0.00000000000E+00 0.  1.
         23    2    1    2    0    0  0.21988158796E+01 -0.50845318029E+02  0.44810068092E+02  0.12117306756E+03  0.10042354776E+03 0.  0.
         23    2    1    2    0    0 -0.27308445589E+02  0.56362372246E+02  0.15253436326E+03  0.18852431397E+03  0.91390463269E+02 0.  0.
        -11    1    3    3    0    0  0.39041004354E+02 -0.27459198417E+02 -0.12309109982E+02  0.49292208180E+02  0.00000000000E+00 0.  1.
         11    1    3    3    0    0 -0.36842188474E+02 -0.23386119612E+02  0.57119178073E+02  0.71880859385E+02  0.00000000000E+00 0. -1.
        -11    1    4    4    0    0 -0.41142221225E+02  0.41400171060E+01  0.21104217927E+02  0.46424240686E+02  0.00000000000E+00 0.  1.
         11    1    4    4    0    0  0.13833775636E+02  0.52222355140E+02  0.13143014533E+03  0.14210007328E+03  0.00000000000E+00 0. -1.
         21    1    1    2  502  501  0.25109629710E+02 -0.55170542168E+01 -0.13920283046E+01  0.25746245050E+02  0.00000000000E+00 0.  1.
<scales pt_clust_5="13000.00000" pt_clust_6="13000.00000" pt_clust_7="13000.00000" pt_clust_8="13000.00000" pt_clust_9="25.70859"></scales>
<clustering>
<clus scale="   25.709">  2  9  1 -1</clus>
<clus scale="   91.390">  7  8 -1 -1</clus>
<clus scale="  100.424">  5  6 -1 -1</clus>
<clus scale="  108.185">  1  7  2 -1</clus>
<clus scale="  108.185">  1  5  2 -1</clus>
</clustering>
</event>
<event>
 9    1  0.1266593E-005  0.1026399E+03  0.7546771E-02  0.1281003E+00
          1   -1    0    0  502    0  0.00000000000E+00  0.00000000000E+00  0.43474269734E+03  0.43474269734E+03  0.00000000000E+00 0. -1.
         -1   -1    0    0    0  501 -0.00000000000E+00 -0.00000000000E+00 -0.51458126026E+02  0.51458126026E+02  0.00000000000E+00 0.  1.
         23    2    1    2    0    0  0.43044390057E+01  0.13941957834E+02  0.13723326897E+03  0.16536825750E+03  0.91108638954E+02 0.  0.
         23    2    1    2    0    0 -0.49427730891E+01  0.64448847833E+01  0.27026693446E+03  0.28917142784E+03  0.10251795585E+03 0.  0.
        -11    1    3    3    0    0 -0.24237342628E+02 -0.15673274070E+02  0.82994137737E+01  0.30032991305E+02  0.00000000000E+00 0.  1.
         11    1    3    3    0    0  0.28541781634E+02  0.29615231904E+02  0.12893385519E+03  0.13533526619E+03  0.00000000000E+00 0. -1.
        -11    1    4    4    0    0 -0.14893746449E+02  0.39404611570E+02  0.23893419413E+03  0.24261924124E+03  0.00000000000E+00 0. -1.
         11    1    4    4    0    0  0.99509733600E+01 -0.32959726787E+02  0.31332740331E+02  0.46552186601E+02  0.00000000000E+00 0.  1.
         21    1    1    2  502  501  0.63833408341E+00 -0.20386842617E+02 -0.24215632117E+02  0.31661138026E+02  0.00000000000E+00 0.  1.
<scales pt_clust_5="13000.00000" pt_clust_6="13000.00000" pt_clust_7="13000.00000" pt_clust_8="13000.00000" pt_clust_9="20.39683"></scales>
<clustering>
<clus scale="   20.397">  2  9  1 -1</clus>
<clus scale="   91.109">  5  6 -1 -1</clus>
<clus scale="   91.246">  2  5  1 -1</clus>
<clus scale="  102.518">  7  8 -1 -1</clus>
<clus scale="  102.640">  1  5  2 -1</clus>
</clustering>
</event>
<event>
 9    1  0.1266593E-005  0.9731144E+02  0.7546771E-02  0.1287077E+00
         -1   -1    0    0    0  501 -0.00000000000E+00  0.00000000000E+00  0.18087530257E+03  0.18087530257E+03  0.00000000000E+00 0.  1.
          1   -1    0    0  502    0  0.00000000000E+00 -0.00000000000E+00 -0.82921456809E+02  0.82921456809E+02  0.00000000000E+00 0. -1.
         23    2    1    2    0    0 -0.21928146840E+02 -0.38247617847E+02  0.93465965602E+02  0.13711759141E+03  0.90120049125E+02 0.  0.
         23    2    1    2    0    0  0.22422963445E+02  0.16472544292E+02 -0.15113276752E+02  0.97377222226E+02  0.92085711536E+02 0.  0.
        -11    1    3    3    0    0  0.25649226307E+02 -0.45401153606E+02  0.51143322023E+02  0.73039625865E+02  0.00000000000E+00 0. -1.
         11    1    3    3    0    0 -0.47577373147E+02  0.71535357595E+01  0.42322643579E+02  0.64077965549E+02  0.00000000000E+00 0.  1.
        -11    1    4    4    0    0 -0.33048023394E+02 -0.99623139464E+01 -0.86941005651E+01  0.35595040864E+02  0.00000000000E+00 0.  1.
         11    1    4    4    0    0  0.55470986839E+02  0.26434858238E+02 -0.64191761866E+01  0.61782181362E+02  0.00000000000E+00 0. -1.
         21    1    1    2  502  501 -0.49481660466E+00  0.21775073555E+02  0.19601156908E+02  0.29301945736E+02  0.00000000000E+00 0.  1.
<scales pt_clust_5="13000.00000" pt_clust_6="13000.00000" pt_clust_7="13000.00000" pt_clust_8="13000.00000" pt_clust_9="21.78069"></scales>
<clustering>
<clus scale="   21.781">  1  9  2 -1</clus>
<clus scale="   90.120">  5  6 -1 -1</clus>
<clus scale="   92.086">  7  8 -1 -1</clus>
<clus scale="   95.453">  1  5  2 -1</clus>
<clus scale="   97.311">  2  5  1 -1</clus>
</clustering>
</event>
<event>
 9    1  0.1266593E-005  0.1174256E+03  0.7546771E-02  0.1258187E+00
         -2   -1    0    0    0  501 -0.00000000000E+00  0.00000000000E+00  0.19918230216E+03  0.19918230216E+03  0.00000000000E+00 0.  1.
          2   -1    0    0  502    0  0.00000000000E+00 -0.00000000000E+00 -0.84801666440E+02  0.84801666440E+02  0.00000000000E+00 0. -1.
         23    2    1    2    0    0 -0.53497408496E+01  0.40921573029E+02  0.11425242495E+03  0.16580885926E+03  0.11285285258E+03 0.  0.
         23    2    1    2    0    0  0.20717870221E+01 -0.15262959610E+02 -0.88618157971E+01  0.90790259486E+02  0.89034202421E+02 0.  0.
        -13    1    3    3    0    0 -0.50695360829E+02  0.49356737146E+02  0.87359001468E+02  0.11241753533E+03  0.00000000000E+00 0.  1.
         13    1    3    3    0    0  0.45345619979E+02 -0.84351641172E+01  0.26893423483E+02  0.53391323936E+02  0.00000000000E+00 0. -1.
        -13    1    4    4    0    0  0.67825060159E+01  0.24124523616E+02  0.27339126657E+02  0.37086694028E+02  0.00000000000E+00 0. -1.
         13    1    4    4    0    0 -0.47107189938E+01 -0.39387483226E+02 -0.36200942454E+02  0.53703565458E+02  0.00000000000E+00 0.  1.
         21    1    1    2  502  501  0.32779538275E+01 -0.25658613419E+02  0.89900265680E+01  0.27384849855E+02  0.00000000000E+00 0.  1.
<scales pt_clust_5="13000.00000" pt_clust_6="13000.00000" pt_clust_7="13000.00000" pt_clust_8="13000.00000" pt_clust_9="25.86715"></scales>
<clustering>
<clus scale="   25.867">  2  9  1 -1</clus>
<clus scale="   89.034">  7  8 -1 -1</clus>
<clus scale="   94.763">  2  7  1 -1</clus>
<clus scale="  112.853">  5  6 -1 -1</clus>
<clus scale="   25.867">  2  5  1 -1</clus>
</clustering>
</event>
<event>
 9    1  0.1266593E-005  0.1105936E+03  0.7546771E-02  0.1260294E+00
          1   -1    0    0  502    0  0.00000000000E+00  0.00000000000E+00  0.10587760359E+03  0.10587760359E+03  0.00000000000E+00 0. -1.
         -1   -1    0    0    0  501 -0.00000000000E+00 -0.00000000000E+00 -0.21099410712E+03  0.21099410712E+03  0.00000000000E+00 0.  1.
         23    2    1    2    0    0 -0.94323661109E+01 -0.63022221883E+02 -0.54097821835E+01  0.11050118601E+03  0.90113685892E+02 0.  0.
         23    2    1    2    0    0  0.29886448728E+02  0.52476808438E+02 -0.65858416092E+01  0.11044829847E+03  0.92241195157E+02 0.  0.
        -11    1    4    4    0    0  0.28995222683E+02 -0.13984501547E+02 -0.25805644621E+02  0.41257975184E+02  0.00000000000E+00 0.  1.
         11    1    4    4    0    0  0.89122604537E+00  0.66461309985E+02  0.19219803012E+02  0.69190323287E+02  0.00000000000E+00 0. -1.
        -13    1    3    3    0    0  0.20783234052E+02 -0.56567788751E+02  0.26722660719E+02  0.65923881392E+02  0.00000000000E+00 0.  1.
         13    1    3    3    0    0 -0.30215600163E+02 -0.64544331323E+01 -0.32132442902E+02  0.44577304620E+02  0.00000000000E+00 0. -1.
         21    1    1    2  502  501 -0.20454082617E+02  0.10545413445E+02 -0.93120879742E+02  0.95922226228E+02  0.00000000000E+00 0.  1.
<scales pt_clust_5="13000.00000" pt_clust_6="13000.00000" pt_clust_7="13000.00000" pt_clust_8="13000.00000" pt_clust_9="23.01250"></scales>
<clustering>
<clus scale="   23.013">  2  9  1 -1</clus>
<clus scale="   90.114">  7  8 -1 -1</clus>
<clus scale="   92.241">  5  6 -1 -1</clus>
<clus scale="  108.825">  2  7  1 -1</clus>
<clus scale="  110.594">  1  5  2 -1</clus>
</clustering>
</event>
<event>
 9    1  0.1266593E-005  0.2586747E+03  0.7546771E-02  0.1108060E+00
          2   -1    0    0  502    0  0.00000000000E+00  0.00000000000E+00  0.16634901078E+04  0.16634901078E+04  0.00000000000E+00 0. -1.
         -2   -1    0    0    0  501 -0.00000000000E+00 -0.00000000000E+00 -0.14220999091E+03  0.14220999091E+03  0.00000000000E+00 0.  1.
         23    2    1    2    0    0  0.15995515342E+03 -0.21871558996E+03  0.42066566974E+03  0.50905305991E+03  0.93558814144E+02 0.  0.
         23    2    1    2    0    0 -0.11580776439E+03  0.20182275094E+03  0.11789454531E+04  0.12051587529E+04  0.91385869998E+02 0.  0.
        -11    1    3    3    0    0  0.67415828976E+02 -0.24865847409E+02  0.10626235687E+03  0.12827662629E+03  0.00000000000E+00 0.  1.
         11    1    3    3    0    0  0.92539324439E+02 -0.19384974255E+03  0.31440331287E+03  0.38077643362E+03  0.00000000000E+00 0. -1.
        -13    1    4    4    0    0 -0.22700932782E+02  0.38790528579E+02  0.95261500971E+02  0.10533181392E+03  0.00000000000E+00 0.  1.
         13    1    4    4    0    0 -0.93106831607E+02  0.16303222236E+03  0.10836839521E+04  0.10998269389E+04  0.00000000000E+00 0. -1.
         21    1    1    2  502  501 -0.44147389027E+02  0.16892839020E+02 -0.78331005934E+02  0.91488285909E+02  0.00000000000E+00 0.  1.
<scales pt_clust_5="13000.00000" pt_clust_6="13000.00000" pt_clust_7="13000.00000" pt_clust_8="13000.00000" pt_clust_9="47.26902"></scales>
<clustering>
<clus scale="   47.269">  2  9  1 -1</clus>
<clus scale="   91.386">  7  8 -1 -1</clus>
<clus scale="   93.559">  5  6 -1 -1</clus>
<clus scale="  257.897">  1  7  2 -1</clus>
<clus scale="  257.897">  1  5  2 -1</clus>
</clustering>
</event>
<event>
 9    1  0.1266593E-005  0.1052138E+03  0.7546771E-02  0.1270018E+00
          1   -1    0    0  502    0  0.00000000000E+00  0.00000000000E+00  0.48746098172E+02  0.48746098172E+02  0.00000000000E+00 0. -1.
         -1   -1    0    0    0  501 -0.00000000000E+00 -0.00000000000E+00 -0.33222781796E+03  0.33222781796E+03  0.00000000000E+00 0.  1.
         23    2    1    2    0    0  0.43680444385E+02  0.40450175056E+01 -0.10413716758E+03  0.14482661625E+03  0.90586178392E+02 0.  0.
         23    2    1    2    0    0 -0.53715813898E+02 -0.32431967908E+02 -0.92872709207E+02  0.14458362135E+03  0.91333795723E+02 0.  0.
        -11    1    3    3    0    0  0.37119996475E+02  0.43943174185E+02 -0.44278723054E+02  0.72591335647E+02  0.00000000000E+00 0. -1.
         11    1    3    3    0    0  0.65604479101E+01 -0.39898156680E+02 -0.59858444526E+02  0.72235280607E+02  0.00000000000E+00 0.  1.
        -11    1    4    4    0    0 -0.63808778644E+02  0.38177763782E+00 -0.89735361828E+02  0.11010967781E+03  0.00000000000E+00 0. -1.
         11    1    4    4    0    0  0.10092964746E+02 -0.32813745545E+02 -0.31373473796E+01  0.34473943532E+02  0.00000000000E+00 0.  1.
         21    1    1    2  502  501  0.10035369513E+02  0.28386950402E+02 -0.86471843002E+02  0.91563678533E+02  0.00000000000E+00 0. -1.
<scales pt_clust_5="13000.00000" pt_clust_6="13000.00000" pt_clust_7="13000.00000" pt_clust_8="13000.00000" pt_clust_9="30.10860"></scales>
<clustering>
<clus scale="   30.109">  2  9  1 -1</clus>
<clus scale="   90.586">  5  6 -1 -1</clus>
<clus scale="   91.334">  7  8 -1 -1</clus>
<clus scale="  104.565">  2  5  1 -1</clus>
<clus scale="  105.214">  1  5  2 -1</clus>
</clustering>
</event>
<event>
 9    1  0.1266593E-005  0.1155050E+03  0.7546771E-02  0.1252596E+00
         -2   -1    0    0    0  501 -0.00000000000E+00  0.00000000000E+00  0.16913446310E+03  0.16913446310E+03  0.00000000000E+00 0.  1.
          2   -1    0    0  502    0  0.00000000000E+00 -0.00000000000E+00 -0.55674265593E+03  0.55674265593E+03  0.00000000000E+00 0. -1.
         23    2    1    2    0    0  0.21236336023E+02 -0.18740862039E+02  0.12832730333E+03  0.16047125361E+03  0.92091935461E+02 0.  0.
         23    2    1    2    0    0 -0.60401433753E+02  0.21175369134E+02 -0.51301906550E+03  0.52605694838E+03  0.97214309209E+02 0.  0.
        -13    1    3    3    0    0  0.24310615831E+02  0.14066060348E+02  0.12411404120E+03  0.12725232932E+03  0.00000000000E+00 0.  1.
         13    1    3    3    0    0 -0.30742798082E+01 -0.32806922387E+02  0.42132621327E+01  0.33218924285E+02  0.00000000000E+00 0. -1.
        -13    1    4    4    0    0 -0.84401136920E+02  0.26916834722E+02 -0.44418851283E+03  0.45293653290E+03  0.00000000000E+00 0. -1.
         13    1    4    4    0    0  0.23999703167E+02 -0.57414655881E+01 -0.68830552668E+02  0.73120415479E+02  0.00000000000E+00 0.  1.
         21    1    1    2  502  501  0.39165097730E+02 -0.24345070957E+01 -0.29164306666E+01  0.39348917048E+02  0.00000000000E+00 0. -1.
<scales pt_clust_5="13000.00000" pt_clust_6="13000.00000" pt_clust_7="13000.00000" pt_clust_8="13000.00000" pt_clust_9="39.24069"></scales>
<clustering>
<clus scale="   39.241">  1  9  2 -1</clus>
<clus scale="   92.092">  5  6 -1 -1</clus>
<clus scale="   97.214">  7  8 -1 -1</clus>
<clus scale="  111.228">  1  5  2 -1</clus>
<clus scale="  115.505">  2  5  1 -1</clus>
</clustering>
</event>
<event>
 9    1  0.1266593E-005  0.1060422E+03  0.7546771E-02  0.1268198E+00
         -1   -1    0    0    0  501 -0.00000000000E+00  0.00000000000E+00  0.78341974399E+02  0.78341974399E+02  0.00000000000E+00 0.  1.
          1   -1    0    0  502    0  0.00000000000E+00 -0.00000000000E+00 -0.23031181679E+03  0.23031181679E+03  0.00000000000E+00 0. -1.
         23    2    1    2    0    0  0.41097431205E+02 -0.37977275140E+02 -0.30474403108E+02  0.11236113417E+03  0.92547625301E+02 0.  0.
         23    2    1    2    0    0 -0.35758769816E+01  0.54924611450E+02 -0.10950999285E+03  0.15341223998E+03  0.92267963033E+02 0.  0.
        -11    1    4    4    0    0 -0.84452887803E+01  0.79669826557E+02 -0.95163898631E+02  0.12439763570E+03  0.00000000000E+00 0.  1.
         11    1    4    4    0    0  0.48694117987E+01 -0.24745215107E+02 -0.14346094224E+02  0.29014604279E+02  0.00000000000E+00 0. -1.
        -13    1    3    3    0    0  0.25940093296E+02 -0.23148582801E+02 -0.63918079646E+02  0.72761708553E+02  0.00000000000E+00 0. -1.
         13    1    3    3    0    0  0.15157337908E+02 -0.14828692339E+02  0.33443676538E+02  0.39599425619E+02  0.00000000000E+00 0.  1.
         21    1    1    2  502  501 -0.37521554223E+02 -0.16947336309E+02 -0.11985446433E+02  0.42880417040E+02  0.00000000000E+00 0. -1.
<scales pt_clust_5="13000.00000" pt_clust_6="13000.00000" pt_clust_7="13000.00000" pt_clust_8="13000.00000" pt_clust_9="41.17134"></scales>
<clustering>
<clus scale="   41.171">  1  9  2 -1</clus>
<clus scale="   92.268">  5  6 -1 -1</clus>
<clus scale="   92.548">  7  8 -1 -1</clus>
<clus scale="  105.798">  2  5  1 -1</clus>
<clus scale="  105.798">  2  5  1 -1</clus>
</clustering>
</event>
<event>
 9    1  0.1266593E-005  0.9412037E+02  0.7546771E-02  0.1293457E+00
         -2   -1    0    0    0  501 -0.00000000000E+00  0.00000000000E+00  0.56749955832E+02  0.56749955832E+02  0.00000000000E+00 0.  1.
          2   -1    0    0  502    0  0.00000000000E+00 -0.00000000000E+00 -0.35456576993E+03  0.35456576993E+03  0.00000000000E+00 0. -1.
         23    2    1    2    0    0 -0.10042654043E+02  0.11215882148E+02 -0.24824213395E+02  0.97005401574E+02  0.92558929613E+02 0.  0.
         23    2    1    2    0    0 -0.19582944918E+00  0.19725287813E+02 -0.26382620019E+03  0.28045493896E+03  0.93067628913E+02 0.  0.
        -13    1    3    3    0    0  0.20578013717E+02 -0.31314582038E+02 -0.24179110918E+02  0.44594698133E+02  0.00000000000E+00 0.  1.
         13    1    3    3    0    0 -0.30620667760E+02  0.42530464187E+02 -0.64510247635E+00  0.52410703441E+02  0.00000000000E+00 0. -1.
        -13    1    4    4    0    0  0.38470182940E+02  0.31071856701E+02 -0.97584037360E+02  0.10939862706E+03  0.00000000000E+00 0.  1.
         13    1    4    4    0    0 -0.38666012389E+02 -0.11346568888E+02 -0.16624216283E+03  0.17105631190E+03  0.00000000000E+00 0. -1.
         21    1    1    2  502  501  0.10238483492E+02 -0.30941169961E+02 -0.91654005212E+01  0.33855385236E+02  0.00000000000E+00 0. -1.
<scales pt_clust_5="13000.00000" pt_clust_6="13000.00000" pt_clust_7="13000.00000" pt_clust_8="13000.00000" pt_clust_9="32.59114"></scales>
<clustering>
<clus scale="   32.591">  1  9  2 -1</clus>
<clus scale="   92.559">  5  6 -1 -1</clus>
<clus scale="   93.068">  7  8 -1 -1</clus>
<clus scale="   93.617">  1  5  2 -1</clus>
<clus scale="   94.120">  2  5  1 -1</clus>
</clustering>
</event>
<event>
 9    1  0.1266593E-005  0.1068119E+03  0.7546771E-02  0.1268471E+00
         -1   -1    0    0    0  501 -0.00000000000E+00  0.00000000000E+00  0.60914589969E+02  0.60914589969E+02  0.00000000000E+00 0.  1.
          1   -1    0    0  502    0  0.00000000000E+00 -0.00000000000E+00 -0.32453780026E+03  0.32453780026E+03  0.00000000000E+00 0. -1.
         23    2    1    2    0    0 -0.29782876800E+02  0.14321390454E+02 -0.72500657160E+02  0.11933805303E+03  0.88843140637E+02 0.  0.
         23    2    1    2    0    0  0.47844926732E+02 -0.43939725941E+02 -0.20024037092E+03  0.23024487880E+03  0.93255892765E+02 0.  0.
        -13    1    4    4    0    0 -0.73824530449E+00 -0.32261332969E+02 -0.16733047844E+03  0.17041369553E+03  0.00000000000E+00 0. -1.
         13    1    4    4    0    0  0.48583172037E+02 -0.11678392973E+02 -0.32909892488E+02  0.59831183267E+02  0.00000000000E+00 0.  1.
        -13    1    3    3    0    0 -0.25287423147E+02  0.47607316334E+02 -0.21000084197E+02  0.57852518305E+02  0.00000000000E+00 0.  1.
         13    1    3    3    0    0 -0.44954536527E+01 -0.33285925881E+02 -0.51500572963E+02  0.61485534728E+02  0.00000000000E+00 0. -1.
         21    1    1    2  502  501 -0.18062049932E+02  0.29618335487E+02  0.91178177889E+01  0.35869458402E+02  0.00000000000E+00 0.  1.
<scales pt_clust_5="13000.00000" pt_clust_6="13000.00000" pt_clust_7="13000.00000" pt_clust_8="13000.00000" pt_clust_9="34.69126"></scales>
<clustering>
<clus scale="   34.691">  1  9  2 -1</clus>
<clus scale="   88.843">  7  8 -1 -1</clus>
<clus scale="   93.256">  5  6 -1 -1</clus>
<clus scale="  102.982">  1  7  2 -1</clus>
<clus scale="  106.812">  2  5  1 -1</clus>
</clustering>
</event>
<event>
 9    1  0.1266593E-005  0.3293426E+03  0.7546771E-02  0.1071536E+00
          1   -1    0    0  502    0  0.00000000000E+00  0.00000000000E+00  0.13386197195E+04  0.13386197195E+04  0.00000000000E+00 0. -1.
         -1   -1    0    0    0  501 -0.00000000000E+00 -0.00000000000E+00 -0.39844820701E+03  0.39844820701E+03  0.00000000000E+00 0.  1.
         23    2    1    2    0    0  0.27222417589E+03 -0.12955660626E+01 -0.27590231783E+03  0.39814799722E+03  0.91060739504E+02 0.  0.
         23    2    1    2    0    0 -0.31707804075E+03 -0.28730354045E+02  0.12371675863E+04  0.12809684702E+04  0.94512791473E+02 0.  0.
        -11    1    3    3    0    0  0.54375411638E+02  0.36801315502E+02 -0.70132041887E+02  0.96070419550E+02  0.00000000000E+00 0. -1.
         11    1    3    3    0    0  0.21784876426E+03 -0.38096881564E+02 -0.20577027594E+03  0.30207757767E+03  0.00000000000E+00 0.  1.
        -13    1    4    4    0    0 -0.18927457049E+03  0.25301979326E+02  0.79094137253E+03  0.81366658280E+03  0.00000000000E+00 0. -1.
         13    1    4    4    0    0 -0.12780347027E+03 -0.54032333372E+02  0.44622621382E+03  0.46730188740E+03  0.00000000000E+00 0.  1.
         21    1    1    2  502  501  0.44853864860E+02  0.30025920108E+02 -0.21093756002E+02  0.57951459115E+02  0.00000000000E+00 0. -1.
<scales pt_clust_5="13000.00000" pt_clust_6="13000.00000" pt_clust_7="13000.00000" pt_clust_8="13000.00000" pt_clust_9="53.97615"></scales>
<clustering>
<clus scale="   53.976">  2  9  1 -1</clus>
<clus scale="   91.061">  5  6 -1 -1</clus>
<clus scale="   94.513">  7  8 -1 -1</clus>
<clus scale="  328.369">  2  5  1 -1</clus>
<clus scale="  329.343">  1  5  2 -1</clus>
</clustering>
</event>
<event>
 9    1  0.1266593E-005  0.1168739E+03  0.7546771E-02  0.1248602E+00
         -2   -1    0    0    0  501 -0.00000000000E+00  0.00000000000E+00  0.10220480463E+03  0.10220480463E+03  0.00000000000E+00 0.  1.
          2   -1    0    0  502    0  0.00000000000E+00 -0.00000000000E+00 -0.29547706245E+03  0.29547706245E+03  0.00000000000E+00 0. -1.
         23    2    1    2    0    0 -0.58929885682E+02 -0.58448850972E+02 -0.13198083610E+03  0.18096991986E+03  0.91881288574E+02 0.  0.
         23    2    1    2    0    0  0.53026352551E+02  0.34153456346E+02 -0.11362252608E+03  0.15871485775E+03  0.91115723082E+02 0.  0.
        -13    1    4    4    0    0  0.47420873948E+02 -0.21607752173E+02 -0.37564075203E+02  0.64239349202E+02  0.00000000000E+00 0.  1.
         13    1    4    4    0    0  0.56054786034E+01  0.55761208519E+02 -0.76058450873E+02  0.94475508546E+02  0.00000000000E+00 0. -1.
        -13    1    3    3    0    0 -0.44729259573E+02 -0.72985159269E+02 -0.13557062279E+03  0.16033382020E+03  0.00000000000E+00 0.  1.
         13    1    3    3    0    0 -0.14200626109E+02  0.14536308297E+02  0.35897866896E+01  0.20636099663E+02  0.00000000000E+00 0. -1.
         21    1    1    2  502  501  0.59035331311E+01  0.24295394626E+02  0.52331104359E+02  0.57997089469E+02  0.00000000000E+00 0.  1.
<scales pt_clust_5="13000.00000" pt_clust_6="13000.00000" pt_clust_7="13000.00000" pt_clust_8="13000.00000" pt_clust_9="25.00236"></scales>
<clustering>
<clus scale="   25.002">  1  9  2 -1</clus>
<clus scale="   91.116">  5  6 -1 -1</clus>
<clus scale="   91.881">  7  8 -1 -1</clus>
<clus scale="  116.273">  2  5  1 -1</clus>
<clus scale="  116.273">  2  5  1 -1</clus>
</clustering>
</event>
<event>
 9    1  0.1266593E-005  0.1012286E+03  0.7546771E-02  0.1280873E+00
          4   -1    0    0  502    0  0.00000000000E+00  0.00000000000E+00  0.97406820125E+02  0.97406820125E+02  0.00000000000E+00 0. -1.
         -4   -1    0    0    0  501 -0.00000000000E+00 -0.00000000000E+00 -0.16392069269E+03  0.16392069269E+03  0.00000000000E+00 0.  1.
         23    2    1    2    0    0  0.43209945791E+02 -0.26858516893E+02 -0.26943367914E+02  0.11048853899E+03  0.94304256679E+02 0.  0.
         23    2    1    2    0    0 -0.26234582307E+02  0.11643391943E+02  0.13094426465E+02  0.93452059273E+02  0.87965910972E+02 0.  0.
        -11    1    3    3    0    0 -0.23251701530E+02 -0.29670768200E+02 -0.22316628655E+02  0.43806712090E+02  0.00000000000E+00 0.  1.
         11    1    3    3    0    0  0.66461647321E+02  0.28122513065E+01 -0.46267392592E+01  0.66681826897E+02  0.00000000000E+00 0. -1.
        -13    1    4    4    0    0 -0.23814575893E+02  0.49195802380E+02  0.44220300467E+01  0.54835347601E+02  0.00000000000E+00 0.  1.
         13    1    4    4    0    0 -0.24200064139E+01 -0.37552410438E+02  0.86723964187E+01  0.38616711672E+02  0.00000000000E+00 0. -1.
         21    1    1    2  502  501 -0.16975363485E+02  0.15215124950E+02 -0.52664931119E+02  0.57386914558E+02  0.00000000000E+00 0.  1.
<scales pt_clust_5="13000.00000" pt_clust_6="13000.00000" pt_clust_7="13000.00000" pt_clust_8="13000.00000" pt_clust_9="22.79612"></scales>
<clustering>
<clus scale="   22.796">  2  9  1 -1</clus>
<clus scale="   87.966">  7  8 -1 -1</clus>
<clus scale="   94.304">  5  6 -1 -1</clus>
<clus scale="   95.352">  1  7  2 -1</clus>
<clus scale="   95.352">  1  5  2 -1</clus>
</clustering>
</event>
<event>
 9    1  0.1266593E-005  0.9877720E+02  0.7546771E-02  0.1284266E+00
         -3   -1    0    0    0  501 -0.00000000000E+00  0.00000000000E+00  0.26103439159E+03  0.26103439159E+03  0.00000000000E+00 0.  1.
          3   -1    0    0  502    0  0.00000000000E+00 -0.00000000000E+00 -0.47195890197E+02  0.47195890197E+02  0.00000000000E+00 0. -1.
         23    2    1    2    0    0  0.62266712788E+00  0.53769496752E+00  0.10957966020E+03  0.14714117393E+03  0.98194431132E+02 0.  0.
         23    2    1    2    0    0  0.20668430197E+02 -0.12037706613E+02  0.84821850908E+02  0.13005110398E+03  0.95637089397E+02 0.  0.
        -13    1    3    3    0    0 -0.34127570059E+02  0.56815055371E+01  0.27757081112E+01  0.34708429795E+02  0.00000000000E+00 0. -1.
         13    1    3    3    0    0  0.34750237187E+02 -0.51438105696E+01  0.10680395209E+03  0.11243274414E+03  0.00000000000E+00 0.  1.
        -13    1    4    4    0    0  0.44960739689E+02 -0.13337305783E+02  0.93189932149E+02  0.10432504633E+03  0.00000000000E+00 0.  1.
         13    1    4    4    0    0 -0.24292309491E+02  0.12995991700E+01 -0.83680812412E+01  0.25726057648E+02  0.00000000000E+00 0. -1.
         21    1    1    2  502  501 -0.21291097325E+02  0.11500011646E+02  0.19436990279E+02  0.31038003871E+02  0.00000000000E+00 0.  1.
<scales pt_clust_5="13000.00000" pt_clust_6="13000.00000" pt_clust_7="13000.00000" pt_clust_8="13000.00000" pt_clust_9="24.19837"></scales>
<clustering>
<clus scale="   24.198">  2  9  1 -1</clus>
<clus scale="   95.637">  7  8 -1 -1</clus>
<clus scale="   96.235">  2  7  1 -1</clus>
<clus scale="   98.194">  5  6 -1 -1</clus>
<clus scale="   24.198">  2  5  1 -1</clus>
</clustering>
</event>
<event>
 9    1  0.1266593E-005  0.1027664E+03  0.7546771E-02  0.1275141E+00
         -2   -1    0    0    0  501 -0.00000000000E+00  0.00000000000E+00  0.24229912798E+03  0.24229912798E+03  0.00000000000E+00 0.  1.
          2   -1    0    0  502    0  0.00000000000E+00 -0.00000000000E+00 -0.80598955403E+02  0.80598955403E+02  0.00000000000E+00 0. -1.
         23    2    1    2    0    0 -0.96816018496E+01  0.30297358442E+02  0.14860942440E+03  0.17678593314E+03  0.90315235668E+02 0.  0.
         23    2    1    2    0    0  0.42985466575E+02 -0.34944529431E+02 -0.99303490394E+01  0.10536028500E+03  0.89069115572E+02 0.  0.
        -11    1    3    3    0    0 -0.41408043905E+02  0.26996017755E+01  0.11711548482E+03  0.12424955024E+03  0.00000000000E+00 0.  1.
         11    1    3    3    0    0  0.31726442055E+02  0.27597756666E+02  0.31493939582E+02  0.52536382906E+02  0.00000000000E+00 0. -1.
        -11    1    4    4    0    0  0.58824136150E+02 -0.15800079491E+01 -0.26915484295E+02  0.64708722084E+02  0.00000000000E+00 0. -1.
         11    1    4    4    0    0 -0.15838669575E+02 -0.33364521482E+02  0.16985135256E+02  0.40651562913E+02  0.00000000000E+00 0.  1.
         21    1    1    2  502  501 -0.33303864725E+02  0.46471709891E+01  0.23021097217E+02  0.40751865244E+02  0.00000000000E+00 0. -1.
<scales pt_clust_5="13000.00000" pt_clust_6="13000.00000" pt_clust_7="13000.00000" pt_clust_8="13000.00000" pt_clust_9="33.62653"></scales>
<clustering>
<clus scale="   33.627">  1  9  2 -1</clus>
<clus scale="   89.069">  7  8 -1 -1</clus>
<clus scale="   90.315">  5  6 -1 -1</clus>
<clus scale="  101.673">  2  7  1 -1</clus>
<clus scale="  101.673">  2  5  1 -1</clus>
</clustering>
</event>
<event>
 9    1  0.1266593E-005  0.1227786E+03  0.7546771E-02  0.1239432E+00
          3   -1    0    0  502    0  0.00000000000E+00  0.00000000000E+00  0.21581140617E+03  0.21581140617E+03  0.00000000000E+00 0. -1.
         -3   -1    0    0    0  501 -0.00000000000E+00 -0.00000000000E+00 -0.12841774804E+03  0.12841774804E+03  0.00000000000E+00 0.  1.
         23    2    1    2    0    0  0.74551137923E+02  0.53545680891E+02 -0.38950804965E+02  0.13602685799E+03  0.92526368021E+02 0.  0.
         23    2    1    2    0    0 -0.49271081993E+02 -0.61126650358E+02  0.13530176913E+03  0.18033142151E+03  0.89714803393E+02 0.  0.
        -13    1    3    3    0    0  0.78378278044E+02  0.11202163893E+02 -0.47958420777E+02  0.92567019335E+02  0.00000000000E+00 0.  1.
         13    1    3    3    0    0 -0.38271401209E+01  0.42343516998E+02  0.90076158122E+01  0.43459838654E+02  0.00000000000E+00 0. -1.
        -13    1    4    4    0    0 -0.45317761416E+02 -0.88405625523E-01  0.99804118557E+02  0.10961099122E+03  0.00000000000E+00 0. -1.
         13    1    4    4    0    0 -0.39533205769E+01 -0.61038244732E+02  0.35497650572E+02  0.70720430285E+02  0.00000000000E+00 0.  1.
         21    1    1    2  502  501 -0.25280055931E+02  0.75809694664E+01 -0.89573060388E+01  0.27870874715E+02  0.00000000000E+00 0. -1.
<scales pt_clust_5="13000.00000" pt_clust_6="13000.00000" pt_clust_7="13000.00000" pt_clust_8="13000.00000" pt_clust_9="26.39228"></scales>
<clustering>
<clus scale="   26.392">  2  9  1 -1</clus>
<clus scale="   89.715">  7  8 -1 -1</clus>
<clus scale="   92.526">  5  6 -1 -1</clus>
<clus scale="  120.674">  1  7  2 -1</clus>
<clus scale="  120.674">  1  5  2 -1</clus>
</clustering>
</event>
<event>
 9    1  0.1266593E-005  0.1556392E+03  0.7546771E-02  0.1195720E+00
         -1   -1    0    0    0  501 -0.00000000000E+00  0.00000000000E+00  0.50149946623E+03  0.50149946623E+03  0.00000000000E+00 0.  1.
          1   -1    0    0  502    0  0.00000000000E+00 -0.00000000000E+00 -0.65346345691E+02  0.65346345691E+02  0.00000000000E+00 0. -1.
         23    2    1    2    0    0  0.72441356245E+02  0.79699043531E+02  0.26447133025E+03  0.29615255663E+03  0.78495634549E+02 0.  0.
         23    2    1    2    0    0 -0.86416998863E+02 -0.10533078556E+03  0.96271744180E+02  0.18982929644E+03  0.90578369281E+02 0.  0.
        -11    1    3    3    0    0  0.80038991375E+02  0.34173653943E+02  0.17786191364E+03  0.19801247205E+03  0.00000000000E+00 0.  1.
         11    1    3    3    0    0 -0.75976351298E+01  0.45525389588E+02  0.86609416607E+02  0.98140084582E+02  0.00000000000E+00 0. -1.
        -13    1    4    4    0    0 -0.38172878482E+02 -0.10458986108E+03  0.46952897172E+02  0.12083369665E+03  0.00000000000E+00 0. -1.
         13    1    4    4    0    0 -0.48244120381E+02 -0.74092447237E+00  0.49318847008E+02  0.68995599792E+02  0.00000000000E+00 0.  1.
         21    1    1    2  502  501  0.13975642618E+02  0.25631742025E+02  0.75410046108E+02  0.80863958844E+02  0.00000000000E+00 0. -1.
<scales pt_clust_5="13000.00000" pt_clust_6="13000.00000" pt_clust_7="13000.00000" pt_clust_8="13000.00000" pt_clust_9="29.19426"></scales>
<clustering>
<clus scale="   29.194">  1  9  2 -1</clus>
<clus scale="   78.496">  5  6 -1 -1</clus>
<clus scale="   90.578">  7  8 -1 -1</clus>
<clus scale="  148.932">  1  5  2 -1</clus>
<clus scale="  155.639">  2  5  1 -1</clus>
</clustering>
</event>
<event>
 9    1  0.1266593E-005  0.1407084E+03  0.7546771E-02  0.1212425E+00
         -1   -1    0    0    0  501 -0.00000000000E+00  0.00000000000E+00  0.13106452621E+03  0.13106452621E+03  0.00000000000E+00 0.  1.
          1   -1    0    0  502    0  0.00000000000E+00 -0.00000000000E+00 -0.26507924076E+03  0.26507924076E+03  0.00000000000E+00 0. -1.
         23    2    1    2    0    0 -0.53557134422E+02 -0.53090450881E+02 -0.29710564598E+00  0.11892136687E+03  0.91952382259E+02 0.  0.
         23    2    1    2    0    0  0.12046048440E+03  0.44282784730E+02 -0.13800841298E+03  0.20960550709E+03  0.91741229689E+02 0.  0.
        -11    1    4    4    0    0  0.29550315462E+02  0.56100669227E+02 -0.37935220966E+02  0.73889019626E+02  0.00000000000E+00 0.  1.
         11    1    4    4    0    0  0.90910168936E+02 -0.11817884497E+02 -0.10007319201E+03  0.13571648746E+03  0.00000000000E+00 0. -1.
        -13    1    3    3    0    0 -0.28512230957E+01 -0.40619525140E+02 -0.37061558577E+02  0.55060279875E+02  0.00000000000E+00 0. -1.
         13    1    3    3    0    0 -0.50705911326E+02 -0.12470925741E+02  0.36764452931E+02  0.63861086990E+02  0.00000000000E+00 0.  1.
         21    1    1    2  502  501 -0.66903349977E+02  0.88076661517E+01  0.42908040723E+01  0.67616893013E+02  0.00000000000E+00 0.  1.
<scales pt_clust_5="13000.00000" pt_clust_6="13000.00000" pt_clust_7="13000.00000" pt_clust_8="13000.00000" pt_clust_9="67.48061"></scales>
<clustering>
<clus scale="   67.481">  1  9  2 -1</clus>
<clus scale="   91.741">  5  6 -1 -1</clus>
<clus scale="   91.952">  7  8 -1 -1</clus>
<clus scale="  140.571">  2  5  1 -1</clus>
<clus scale="  140.571">  2  5  1 -1</clus>
</clustering>
</event>
<event>
 9    1  0.1266593E-005  0.1738194E+03  0.7546771E-02  0.1174068E+00
          1   -1    0    0  502    0  0.00000000000E+00  0.00000000000E+00  0.59705304113E+03  0.59705304113E+03  0.00000000000E+00 0. -1.
         -1   -1    0    0    0  501 -0.00000000000E+00 -0.00000000000E+00 -0.25297671361E+03  0.25297671361E+03  0.00000000000E+00 0.  1.
         23    2    1    2    0    0 -0.60140943881E+01 -0.17322852231E+03 -0.98767450013E+02  0.21933806257E+03  0.91158577404E+02 0.  0.
         23    2    1    2    0    0  0.30964253841E+01  0.14503048321E+03  0.52043069175E+03  0.54808799092E+03  0.92243763783E+02 0.  0.
        -11    1    4    4    0    0 -0.22027908479E+02  0.13215137289E+03  0.48279791233E+03  0.50104195259E+03  0.00000000000E+00 0. -1.
         11    1    4    4    0    0  0.25124333863E+02  0.12879110314E+02  0.37632779427E+02  0.47046038323E+02  0.00000000000E+00 0.  1.
        -13    1    3    3    0    0 -0.30725689887E+02 -0.14844396444E+03 -0.10415915013E+03  0.18392609155E+03  0.00000000000E+00 0.  1.
         13    1    3    3    0    0  0.24711595499E+02 -0.24784557874E+02  0.53917001157E+01  0.35411971017E+02  0.00000000000E+00 0. -1.
         21    1    1    2  502  501  0.29176690040E+01  0.28198039105E+02 -0.77586914223E+02  0.82603701251E+02  0.00000000000E+00 0. -1.
<scales pt_clust_5="13000.00000" pt_clust_6="13000.00000" pt_clust_7="13000.00000" pt_clust_8="13000.00000" pt_clust_9="28.34858"></scales>
<clustering>
<clus scale="   28.349">  2  9  1 -1</clus>
<clus scale="   91.159">  7  8 -1 -1</clus>
<clus scale="   92.244">  5  6 -1 -1</clus>
<clus scale="  173.246">  2  7  1 -1</clus>
<clus scale="  173.819">  1  5  2 -1</clus>
</clustering>
</event>
<event>
 9    1  0.1266593E-005  0.1033452E+03  0.7546771E-02  0.1275212E+00
          1   -1    0    0  502    0  0.00000000000E+00  0.00000000000E+00  0.13436236769E+03  0.13436236769E+03  0.00000000000E+00 0. -1.
         -1   -1    0    0    0  501 -0.00000000000E+00 -0.00000000000E+00 -0.10470195101E+03  0.10470195101E+03  0.00000000000E+00 0.  1.
         23    2    1    2    0    0  0.84652227269E+01 -0.35478557040E+02  0.46972566293E+00  0.99062447511E+02  0.92101899324E+02 0.  0.
         23    2    1    2    0    0 -0.28303951229E+02  0.31015206595E+02  0.45297323789E+02  0.11406116447E+03  0.95890797272E+02 0.  0.
        -11    1    3    3    0    0 -0.27922723033E+02 -0.21768578560E+02  0.32973379560E+02  0.48381744840E+02  0.00000000000E+00 0. -1.
         11    1    3    3    0    0  0.36387945760E+02 -0.13709978480E+02 -0.32503653897E+02  0.50680702671E+02  0.00000000000E+00 0.  1.
        -11    1    4    4    0    0  0.90311464636E+01  0.35541693661E+02  0.62688239602E+02  0.72626365592E+02  0.00000000000E+00 0.  1.
         11    1    4    4    0    0 -0.37335097693E+02 -0.45264870666E+01 -0.17390915812E+02  0.41434798873E+02  0.00000000000E+00 0. -1.
         21    1    1    2  502  501  0.19838728502E+02  0.44633504455E+01 -0.16106632778E+02  0.25940706722E+02  0.00000000000E+00 0.  1.
<scales pt_clust_5="13000.00000" pt_clust_6="13000.00000" pt_clust_7="13000.00000" pt_clust_8="13000.00000" pt_clust_9="20.33462"></scales>
<clustering>
<clus scale="   20.335">  2  9  1 -1</clus>
<clus scale="   92.102">  5  6 -1 -1</clus>
<clus scale="   95.891">  7  8 -1 -1</clus>
<clus scale="   99.840">  2  5  1 -1</clus>
<clus scale="  103.345">  1  5  2 -1</clus>
</clustering>
</event>
<event>
 9    1  0.1266593E-005  0.1314658E+03  0.7546771E-02  0.1225737E+00
          1   -1    0    0  502    0  0.00000000000E+00  0.00000000000E+00  0.49599779187E+03  0.49599779187E+03  0.00000000000E+00 0. -1.
         -1   -1    0    0    0  501 -0.00000000000E+00 -0.00000000000E+00 -0.55307780325E+02  0.55307780325E+02  0.00000000000E+00 0.  1.
         23    2    1    2    0    0 -0.26027920374E+02 -0.79682633918E+02  0.10063631067E+03  0.15831856629E+03  0.88940016982E+02 0.  0.
         23    2    1    2    0    0  0.47541984116E+02  0.88737635358E+02  0.34362489520E+03  0.36937342043E+03  0.90686531198E+02 0.  0.
        -11    1    4    4    0    0 -0.19087511148E+02  0.31048296628E+02  0.44421123691E+02  0.57459255437E+02  0.00000000000E+00 0.  1.
         11    1    4    4    0    0  0.66629495264E+02  0.57689338730E+02  0.29920377151E+03  0.31191416500E+03  0.00000000000E+00 0. -1.
        -13    1    3    3    0    0  0.11653774940E+02 -0.70448855410E+02  0.95409646598E+02  0.11917152497E+03  0.00000000000E+00 0. -1.
         13    1    3    3    0    0 -0.37681695315E+02 -0.92337785084E+01  0.52266640729E+01  0.39147041327E+02  0.00000000000E+00 0.  1.
         21    1    1    2  502  501 -0.21514063741E+02 -0.90550014394E+01 -0.35711943226E+01  0.23613585467E+02  0.00000000000E+00 0.  1.
<scales pt_clust_5="13000.00000" pt_clust_6="13000.00000" pt_clust_7="13000.00000" pt_clust_8="13000.00000" pt_clust_9="23.34198"></scales>
<clustering>
<clus scale="   23.342">  2  9  1 -1</clus>
<clus scale="   88.940">  7  8 -1 -1</clus>
<clus scale="   90.687">  5  6 -1 -1</clus>
<clus scale="  130.267">  2  7  1 -1</clus>
<clus scale="  131.466">  1  5  2 -1</clus>
</clustering>
</event>
<event>
 9    1  0.1266593E-005  0.1542332E+03  0.7546771E-02  0.1195514E+00
         -2   -1    0    0    0  501 -0.00000000000E+00  0.00000000000E+00  0.25934403166E+03  0.25934403166E+03  0.00000000000E+00 0.  1.
          2   -1    0    0  502    0  0.00000000000E+00 -0.00000000000E+00 -0.41245703523E+03  0.41245703523E+03  0.00000000000E+00 0. -1.
         23    2    1    2    0    0 -0.12182691662E+03 -0.68628907674E+02  0.61319479248E+02  0.17765632318E+03  0.90829323724E+02 0.  0.
         23    2    1    2    0    0  0.11049722382E+03  0.51495778651E+02 -0.33697746386E+03  0.36989025314E+03  0.91670805231E+02 0.  0.
        -11    1    4    4    0    0  0.34188508196E+02 -0.27834639227E+00 -0.19646984058E+02  0.39432671124E+02  0.00000000000E+00 0.  1.
         11    1    4    4    0    0  0.76308715624E+02  0.51774125043E+02 -0.31733047980E+03  0.33045758202E+03  0.00000000000E+00 0. -1.
        -13    1    3    3    0    0 -0.19971755794E+02  0.21884255344E+02  0.18037117685E+02  0.34686153950E+02  0.00000000000E+00 0.  1.
         13    1    3    3    0    0 -0.10185516083E+03 -0.90513163019E+02  0.43282361562E+02  0.14297016923E+03  0.00000000000E+00 0. -1.
         21    1    1    2  502  501  0.11329692799E+02  0.17133129023E+02  0.12254498104E+03  0.12425449057E+03  0.00000000000E+00 0.  1.
<scales pt_clust_5="13000.00000" pt_clust_6="13000.00000" pt_clust_7="13000.00000" pt_clust_8="13000.00000" pt_clust_9="20.54035"></scales>
<clustering>
<clus scale="   20.540">  1  9  2 -1</clus>
<clus scale="   90.829">  7  8 -1 -1</clus>
<clus scale="   91.671">  5  6 -1 -1</clus>
<clus scale="  153.735">  1  7  2 -1</clus>
<clus scale="  154.233">  2  5  1 -1</clus>
</clustering>
</event>
<event>
 9    1  0.1266593E-005  0.1145875E+03  0.7546771E-02  0.1254089E+00
         -1   -1    0    0    0  501 -0.00000000000E+00  0.00000000000E+00  0.18996674375E+03  0.18996674375E+03  0.00000000000E+00 0.  1.
          1   -1    0    0  502    0  0.00000000000E+00 -0.00000000000E+00 -0.13835102970E+03  0.13835102970E+03  0.00000000000E+00 0. -1.
         23    2    1    2    0    0 -0.49030392828E+02  0.42604631321E+02 -0.13226031547E+02  0.11027350848E+03  0.88125959457E+02 0.  0.
         23    2    1    2    0    0  0.69017227295E+02 -0.19705678664E+02 -0.27589480447E+02  0.12074386861E+03  0.93092485951E+02 0.  0.
        -11    1    4    4    0    0  0.13681033055E+02  0.22845118206E+02  0.22472369984E+02  0.34843614967E+02  0.00000000000E+00 0. -1.
         11    1    4    4    0    0  0.55336194240E+02 -0.42550796870E+02 -0.50061850431E+02  0.85900253642E+02  0.00000000000E+00 0.  1.
        -13    1    3    3    0    0  0.19469567712E+02  0.27561686932E+02  0.11891950850E+02  0.35778892499E+02  0.00000000000E+00 0.  1.
         13    1    3    3    0    0 -0.68499960540E+02  0.15042944388E+02 -0.25117982397E+02  0.74494615977E+02  0.00000000000E+00 0. -1.
         21    1    1    2  502  501 -0.19986834467E+02 -0.22898952657E+02  0.92431226042E+02  0.97300396363E+02  0.00000000000E+00 0.  1.
<scales pt_clust_5="13000.00000" pt_clust_6="13000.00000" pt_clust_7="13000.00000" pt_clust_8="13000.00000" pt_clust_9="30.39466"></scales>
<clustering>
<clus scale="   30.395">  1  9  2 -1</clus>
<clus scale="   88.126">  7  8 -1 -1</clus>
<clus scale="   93.092">  5  6 -1 -1</clus>
<clus scale="  110.591">  1  7  2 -1</clus>
<clus scale="  114.588">  2  5  1 -1</clus>
</clustering>
</event>
<event>
 9    1  0.1266593E-005  0.2020031E+03  0.7546771E-02  0.1183491E+00
         -4   -1    0    0    0  501 -0.00000000000E+00  0.00000000000E+00  0.63123682598E+03  0.63123682598E+03  0.00000000000E+00 0.  1.
          4   -1    0    0  502    0  0.00000000000E+00 -0.00000000000E+00 -0.11262973892E+03  0.11262973892E+03  0.00000000000E+00 0. -1.
         23    2    1    2    0    0  0.89960567778E+02 -0.17702516606E+03  0.88826475966E+02  0.22805607680E+03  0.68473485073E+02 0.  0.
         23    2    1    2    0    0 -0.11918490468E+01  0.12259505067E+02  0.83724783224E+02  0.12238674139E+03  0.88413568948E+02 0.  0.
        -11    1    4    4    0    0  0.31348121801E+02  0.33967386542E+02  0.27150160209E+02  0.53606149725E+02  0.00000000000E+00 0.  1.
         11    1    4    4    0    0 -0.32539970848E+02 -0.21707881474E+02  0.56574623015E+02  0.68780591668E+02  0.00000000000E+00 0. -1.
        -13    1    3    3    0    0  0.99891950550E+02 -0.14642100761E+03  0.68660885696E+02  0.19008374597E+03  0.00000000000E+00 0. -1.
         13    1    3    3    0    0 -0.99313827715E+01 -0.30604158446E+02  0.20165590270E+02  0.37972330833E+02  0.00000000000E+00 0.  1.
         21    1    1    2  502  501 -0.88768718731E+02  0.16476566099E+03  0.34605582787E+03  0.39342374670E+03  0.00000000000E+00 0.  1.
<scales pt_clust_5="13000.00000" pt_clust_6="13000.00000" pt_clust_7="13000.00000" pt_clust_8="13000.00000" pt_clust_9="190.04375"></scales>
<clustering>
<clus scale="   68.473">  7  8 -1 -1</clus>
<clus scale="   88.414">  5  6 -1 -1</clus>
<clus scale="   89.267">  2  5  1 -1</clus>
<clus scale="  190.044">  1  9  2 -1</clus>
<clus scale="   89.267">  2  5  1 -1</clus>
</clustering>
</event>
<event>
 9    1  0.1266593E-005  0.9882549E+02  0.7546771E-02  0.1283284E+00
          1   -1    0    0  502    0  0.00000000000E+00  0.00000000000E+00  0.24067203261E+03  0.24067203261E+03  0.00000000000E+00 0. -1.
         -1   -1    0    0    0  501 -0.00000000000E+00 -0.00000000000E+00 -0.51587804958E+02  0.51587804958E+02  0.00000000000E+00 0.  1.
         23    2    1    2    0    0 -0.22725639781E+02  0.31759596106E+01  0.63851801409E+02  0.11422126724E+03  0.91885275887E+02 0.  0.
         23    2    1    2    0    0  0.42020761644E+02  0.24806542608E+01  0.11957930072E+03  0.15715180810E+03  0.92874019903E+02 0.  0.
        -11    1    4    4    0    0  0.88820031461E+01 -0.28966261785E+02  0.12651016963E+01  0.30323831948E+02  0.00000000000E+00 0.  1.
         11    1    4    4    0    0  0.33138758498E+02  0.31446916046E+02  0.11831419902E+03  0.12682797615E+03  0.00000000000E+00 0. -1.
        -13    1    3    3    0    0 -0.19523956552E+02  0.46536156365E+02  0.27046904966E+02  0.57256735822E+02  0.00000000000E+00 0. -1.
         13    1    3    3    0    0 -0.32016832292E+01 -0.43360196755E+02  0.36804896443E+02  0.56964531423E+02  0.00000000000E+00 0.  1.
         21    1    1    2  502  501 -0.19295121863E+02 -0.56566138714E+01  0.56531255255E+01  0.20886762229E+02  0.00000000000E+00 0. -1.
<scales pt_clust_5="13000.00000" pt_clust_6="13000.00000" pt_clust_7="13000.00000" pt_clust_8="13000.00000" pt_clust_9="20.10719"></scales>
<clustering>
<clus scale="   20.107">  2  9  1 -1</clus>
<clus scale="   91.885">  7  8 -1 -1</clus>
<clus scale="   92.874">  5  6 -1 -1</clus>
<clus scale="   97.897">  2  7  1 -1</clus>
<clus scale="   98.825">  1  5  2 -1</clus>
</clustering>
</event>
<event>
 9    1  0.1266593E-005  0.1149224E+03  0.7546771E-02  0.1252177E+00
          1   -1    0    0  502    0  0.00000000000E+00  0.00000000000E+00  0.55667775989E+03  0.55667775989E+03  0.00000000000E+00 0. -1.
         -1   -1    0    0    0  501 -0.00000000000E+00 -0.00000000000E+00 -0.43241966305E+02  0.43241966305E+02  0.00000000000E+00 0.  1.
         23    2    1    2    0    0  0.45499913174E+02 -0.69384591717E+02  0.15009738041E+03  0.19499166891E+03  0.92779651168E+02 0.  0.
         23    2    1    2    0    0 -0.37514221945E+02  0.49798402979E+02  0.36711368577E+03  0.38344218433E+03  0.91478153991E+02 0.  0.
        -11    1    3    3    0    0  0.41443188628E+02 -0.40417461213E+02  0.19387467707E+02  0.61049020947E+02  0.00000000000E+00 0.  1.
         11    1    3    3    0    0  0.40567245461E+01 -0.28967130504E+02  0.13070991270E+03  0.13394264796E+03  0.00000000000E+00 0. -1.
        -11    1    4    4    0    0 -0.33774099603E+02 -0.16460747117E+02  0.20246955407E+03  0.20592611861E+03  0.00000000000E+00 0. -1.
         11    1    4    4    0    0 -0.37401223419E+01  0.66259150096E+02  0.16464413170E+03  0.17751606572E+03  0.00000000000E+00 0.  1.
         21    1    1    2  502  501 -0.79856912289E+01  0.19586188738E+02 -0.37752725912E+01  0.21485872959E+02  0.00000000000E+00 0. -1.
<scales pt_clust_5="13000.00000" pt_clust_6="13000.00000" pt_clust_7="13000.00000" pt_clust_8="13000.00000" pt_clust_9="21.15160"></scales>
<clustering>
<clus scale="   21.152">  2  9  1 -1</clus>
<clus scale="   91.478">  7  8 -1 -1</clus>
<clus scale="   92.780">  5  6 -1 -1</clus>
<clus scale="  113.874">  1  7  2 -1</clus>
<clus scale="  113.874">  1  5  2 -1</clus>
</clustering>
</event>
<event>
 9    1  0.1266593E-005  0.9682399E+02  0.7546771E-02  0.1287158E+00
          1   -1    0    0  502    0  0.00000000000E+00  0.00000000000E+00  0.29095585389E+03  0.29095585389E+03  0.00000000000E+00 0. -1.
         -1   -1    0    0    0  501 -0.00000000000E+00 -0.00000000000E+00 -0.43009065803E+02  0.43009065803E+02  0.00000000000E+00 0.  1.
         23    2    1    2    0    0  0.45040932505E+02 -0.67740431205E+01  0.97401770566E+02  0.14094234583E+03  0.91121164810E+02 0.  0.
         23    2    1    2    0    0 -0.24312945965E+02  0.16961305510E+01  0.14110011803E+03  0.16968503440E+03  0.91048181694E+02 0.  0.
        -13    1    4    4    0    0 -0.17083657499E+02 -0.43890179309E+02  0.58922067666E+02  0.75432149984E+02  0.00000000000E+00 0.  1.
         13    1    4    4    0    0 -0.72292884666E+01  0.45586309860E+02  0.82178050363E+02  0.94252884411E+02  0.00000000000E+00 0. -1.
        -13    1    3    3    0    0  0.23515415346E+02  0.40615800437E+02  0.29680487091E+02  0.55529715631E+02  0.00000000000E+00 0. -1.
         13    1    3    3    0    0  0.21525517159E+02 -0.47389843557E+02  0.67721283475E+02  0.85412630195E+02  0.00000000000E+00 0.  1.
         21    1    1    2  502  501 -0.20727986540E+02  0.50779125695E+01  0.94448994899E+01  0.23337539469E+02  0.00000000000E+00 0.  1.
<scales pt_clust_5="13000.00000" pt_clust_6="13000.00000" pt_clust_7="13000.00000" pt_clust_8="13000.00000" pt_clust_9="21.34091"></scales>
<clustering>
<clus scale="   21.341">  2  9  1 -1</clus>
<clus scale="   91.048">  5  6 -1 -1</clus>
<clus scale="   91.121">  7  8 -1 -1</clus>
<clus scale="   96.755">  1  5  2 -1</clus>
<clus scale="   96.755">  1  5  2 -1</clus>
</clustering>
</event>
<event>
 9    1  0.1266593E-005  0.3288110E+03  0.7546771E-02  0.1071670E+00
         -2   -1    0    0    0  501 -0.00000000000E+00  0.00000000000E+00  0.37636890860E+03  0.37636890860E+03  0.00000000000E+00 0.  1.
          2   -1    0    0  502    0  0.00000000000E+00 -0.00000000000E+00 -0.32783448316E+03  0.32783448316E+03  0.00000000000E+00 0. -1.
         23    2    1    2    0    0  0.29499509063E+03  0.22655215043E+02  0.58113931228E+02  0.31464523878E+03  0.89939062794E+02 0.  0.
         23    2    1    2    0    0 -0.33193575801E+03 -0.35748716081E+02 -0.26805374537E+02  0.34674713537E+03  0.89753716533E+02 0.  0.
        -11    1    3    3    0    0  0.64695552420E+02  0.43520913962E+02  0.16105534842E+02  0.79617665801E+02  0.00000000000E+00 0. -1.
         11    1    3    3    0    0  0.23029953821E+03 -0.20865698918E+02  0.42008396387E+02  0.23502757298E+03  0.00000000000E+00 0.  1.
        -13    1    4    4    0    0 -0.24896707497E+03 -0.65569256357E+02 -0.16557086516E+02  0.25798850539E+03  0.00000000000E+00 0. -1.
         13    1    4    4    0    0 -0.82968683044E+02  0.29820540277E+02 -0.10248288021E+02  0.88758629979E+02  0.00000000000E+00 0.  1.
         21    1    1    2  502  501  0.36940667381E+02  0.13093501037E+02  0.17225868746E+02  0.42811017624E+02  0.00000000000E+00 0.  1.
<scales pt_clust_5="13000.00000" pt_clust_6="13000.00000" pt_clust_7="13000.00000" pt_clust_8="13000.00000" pt_clust_9="39.19251"></scales>
<clustering>
<clus scale="   39.193">  1  9  2 -1</clus>
<clus scale="   89.754">  7  8 -1 -1</clus>
<clus scale="   89.939">  5  6 -1 -1</clus>
<clus scale="  328.760">  2  7  1 -1</clus>
<clus scale="  328.760">  2  5  1 -1</clus>
</clustering>
</event>
<event>
 9    1  0.1266593E-005  0.9107158E+02  0.7546771E-02  0.1301424E+00
          1   -1    0    0  502    0  0.00000000000E+00  0.00000000000E+00  0.89900313682E+02  0.89900313682E+02  0.00000000000E+00 0. -1.
         -1   -1    0    0    0  501 -0.00000000000E+00 -0.00000000000E+00 -0.18907492778E+03  0.18907492778E+03  0.00000000000E+00 0.  1.
         23    2    1    2    0    0 -0.13134407651E+02  0.61887914097E+01 -0.10999903619E+03  0.14284574740E+03  0.89968359906E+02 0.  0.
         23    2    1    2    0    0  0.16057266643E+02  0.33438918443E+02  0.12544096525E+02  0.96356943565E+02  0.88041519392E+02 0.  0.
        -13    1    4    4    0    0  0.44210497952E+01  0.63262566602E+02  0.61807699446E+01  0.63717344039E+02  0.00000000000E+00 0. -1.
         13    1    4    4    0    0  0.11636216848E+02 -0.29823648159E+02  0.63633265806E+01  0.32639599526E+02  0.00000000000E+00 0.  1.
        -13    1    3    3    0    0 -0.26005294963E+02 -0.37467980155E+02 -0.54024811838E+02  0.70702229081E+02  0.00000000000E+00 0.  1.
         13    1    3    3    0    0  0.12870887312E+02  0.43656771564E+02 -0.55974224348E+02  0.72143518315E+02  0.00000000000E+00 0. -1.
         21    1    1    2  502  501 -0.29228589923E+01 -0.39627709852E+02 -0.17196744341E+01  0.39772550497E+02  0.00000000000E+00 0.  1.
<scales pt_clust_5="13000.00000" pt_clust_6="13000.00000" pt_clust_7="13000.00000" pt_clust_8="13000.00000" pt_clust_9="39.73536"></scales>
<clustering>
<clus scale="   39.735">  1  9  2 -1</clus>
<clus scale="   88.042">  5  6 -1 -1</clus>
<clus scale="   89.169">  1  5  2 -1</clus>
<clus scale="   89.968">  7  8 -1 -1</clus>
<clus scale="   39.735">  1  5  2 -1</clus>
</clustering>
</event>
<event>
 9    1  0.1266593E-005  0.1019612E+03  0.7546771E-02  0.1276778E+00
          2   -1    0    0  502    0  0.00000000000E+00  0.00000000000E+00  0.26056628917E+03  0.26056628917E+03  0.00000000000E+00 0. -1.
         -2   -1    0    0    0  501 -0.00000000000E+00 -0.00000000000E+00 -0.20982696799E+03  0.20982696799E+03  0.00000000000E+00 0.  1.
         23    2    1    2    0    0 -0.38743339658E+02 -0.46823509737E+02 -0.67054615638E+02  0.12887976853E+03  0.91761570533E+02 0.  0.
         23    2    1    2    0    0  0.25449461429E+02  0.30572525886E+02  0.21737997000E+03  0.23973824763E+03  0.92940957560E+02 0.  0.
        -11    1    3    3    0    0  0.24987871487E+02  0.71942742370E+01 -0.21390459903E+02  0.33670507542E+02  0.00000000000E+00 0.  1.
         11    1    3    3    0    0 -0.63731211145E+02 -0.54017783974E+02 -0.45664155734E+02  0.95209260990E+02  0.00000000000E+00 0. -1.
        -13    1    4    4    0    0  0.43600051059E+02 -0.17079365332E+02  0.74104121542E+02  0.87658941370E+02  0.00000000000E+00 0.  1.
         13    1    4    4    0    0 -0.18150589630E+02  0.47651891217E+02  0.14327584846E+03  0.15207930626E+03  0.00000000000E+00 0. -1.
         21    1    1    2  502  501  0.13293878228E+02  0.16250983851E+02 -0.99586033181E+02  0.10177524099E+03  0.00000000000E+00 0. -1.
<scales pt_clust_5="13000.00000" pt_clust_6="13000.00000" pt_clust_7="13000.00000" pt_clust_8="13000.00000" pt_clust_9="20.99575"></scales>
<clustering>
<clus scale="   20.996">  2  9  1 -1</clus>
<clus scale="   91.762">  5  6 -1 -1</clus>
<clus scale="   92.941">  7  8 -1 -1</clus>
<clus scale="  100.887">  2  5  1 -1</clus>
<clus scale="  101.961">  1  5  2 -1</clus>
</clustering>
</event>
<event>
 9    1  0.1266593E-005  0.1641613E+03  0.7546771E-02  0.1184544E+00
          2   -1    0    0  502    0  0.00000000000E+00  0.00000000000E+00  0.68264578147E+02  0.68264578147E+02  0.00000000000E+00 0. -1.
         -2   -1    0    0    0  501 -0.00000000000E+00 -0.00000000000E+00 -0.82394026398E+03  0.82394026398E+03  0.00000000000E+00 0.  1.
         23    2    1    2    0    0 -0.69661775648E+02  0.19428919642E+02 -0.43572788561E+03  0.45122384994E+03  0.92270940964E+02 0.  0.
         23    2    1    2    0    0  0.15660410478E+03 -0.79746524386E+01 -0.11112250261E+03  0.21448999070E+03  0.95232897732E+02 0.  0.
        -11    1    4    4    0    0  0.35499397489E+02  0.10120678241E+02  0.13944455022E+02  0.39459893259E+02  0.00000000000E+00 0.  1.
         11    1    4    4    0    0  0.12110470729E+03 -0.18095330679E+02 -0.12506695763E+03  0.17503009745E+03  0.00000000000E+00 0. -1.
        -11    1    3    3    0    0 -0.78481050926E+02 -0.12677784315E+02 -0.35700297910E+03  0.36574735632E+03  0.00000000000E+00 0.  1.
         11    1    3    3    0    0  0.88192752783E+01  0.32106703957E+02 -0.78724906512E+02  0.85476493615E+02  0.00000000000E+00 0. -1.
         21    1    1    2  502  501 -0.86942329132E+02 -0.11454267203E+02 -0.20882529761E+03  0.22649100149E+03  0.00000000000E+00 0.  1.
<scales pt_clust_5="13000.00000" pt_clust_6="13000.00000" pt_clust_7="13000.00000" pt_clust_8="13000.00000" pt_clust_9="87.69361"></scales>
<clustering>
<clus scale="   87.694">  2  9  1 -1</clus>
<clus scale="   92.271">  7  8 -1 -1</clus>
<clus scale="   95.233">  5  6 -1 -1</clus>
<clus scale="  162.461">  2  7  1 -1</clus>
<clus scale="  164.161">  1  5  2 -1</clus>
</clustering>
</event>
<event>
 9    1  0.1266593E-005  0.1037268E+03  0.7546771E-02  0.1273421E+00
          1   -1    0    0  502    0  0.00000000000E+00  0.00000000000E+00  0.87386882075E+02  0.87386882075E+02  0.00000000000E+00 0. -1.
         -1   -1    0    0    0  501 -0.00000000000E+00 -0.00000000000E+00 -0.18308082343E+03  0.18308082343E+03  0.00000000000E+00 0.  1.
         23    2    1    2    0    0 -0.36392965964E+02 -0.23224884719E+02 -0.67116370407E+02  0.11920920311E+03  0.88557233969E+02 0.  0.
         23    2    1    2    0    0  0.23943524427E+02  0.60341452758E+02 -0.13044655034E+02  0.10914081377E+03  0.86759269956E+02 0.  0.
        -11    1    3    3    0    0 -0.51969755794E+02 -0.77415289643E+01 -0.78507431873E+02  0.94468003299E+02  0.00000000000E+00 0.  1.
         11    1    3    3    0    0  0.15576789831E+02 -0.15483355754E+02  0.11391061467E+02  0.24741199813E+02  0.00000000000E+00 0. -1.
        -13    1    4    4    0    0  0.78221051618E+01  0.34162292798E+02  0.36646692285E+02  0.50707273973E+02  0.00000000000E+00 0. -1.
         13    1    4    4    0    0  0.16121419265E+02  0.26179159960E+02 -0.49691347318E+02  0.58433539801E+02  0.00000000000E+00 0.  1.
         21    1    1    2  502  501  0.12449441537E+02 -0.37116568039E+02 -0.15532915910E+02  0.42117688615E+02  0.00000000000E+00 0. -1.
<scales pt_clust_5="13000.00000" pt_clust_6="13000.00000" pt_clust_7="13000.00000" pt_clust_8="13000.00000" pt_clust_9="39.14880"></scales>
<clustering>
<clus scale="   39.149">  2  9  1 -1</clus>
<clus scale="   86.759">  7  8 -1 -1</clus>
<clus scale="   88.557">  5  6 -1 -1</clus>
<clus scale="  102.196">  1  7  2 -1</clus>
<clus scale="  102.196">  1  5  2 -1</clus>
</clustering>
</event>
<event>
 9    1  0.1266593E-005  0.1019820E+03  0.7546771E-02  0.1276992E+00
         -1   -1    0    0    0  501 -0.00000000000E+00  0.00000000000E+00  0.22681191653E+03  0.22681191653E+03  0.00000000000E+00 0.  1.
          1   -1    0    0  502    0  0.00000000000E+00 -0.00000000000E+00 -0.94701902135E+02  0.94701902135E+02  0.00000000000E+00 0. -1.
         23    2    1    2    0    0 -0.97133600691E+01 -0.10344227870E+02  0.58870953652E+02  0.10755582717E+03  0.88888212715E+02 0.  0.
         23    2    1    2    0    0 -0.23623818416E+02  0.75273458939E+02  0.16073038654E+02  0.12124808589E+03  0.90656369566E+02 0.  0.
        -13    1    4    4    0    0 -0.34247475862E+02 -0.55421287348E+01  0.19249148117E+02  0.39675363855E+02  0.00000000000E+00 0.  1.
         13    1    4    4    0    0  0.10623657446E+02  0.80815587674E+02 -0.31761094628E+01  0.81572722033E+02  0.00000000000E+00 0. -1.
        -13    1    3    3    0    0  0.18353777508E+02  0.19353346836E+02  0.61063914689E+02  0.66634937230E+02  0.00000000000E+00 0. -1.
         13    1    3    3    0    0 -0.28067137577E+02 -0.29697574705E+02 -0.21929610364E+01  0.40920889937E+02  0.00000000000E+00 0.  1.
         21    1    1    2  502  501  0.33337178485E+02 -0.64929231069E+02  0.57166022091E+02  0.92709905611E+02  0.00000000000E+00 0.  1.
<scales pt_clust_5="13000.00000" pt_clust_6="13000.00000" pt_clust_7="13000.00000" pt_clust_8="13000.00000" pt_clust_9="72.98748"></scales>
<clustering>
<clus scale="   72.987">  1  9  2 -1</clus>
<clus scale="   88.888">  7  8 -1 -1</clus>
<clus scale="   90.656">  5  6 -1 -1</clus>
<clus scale="  100.414">  1  7  2 -1</clus>
<clus scale="  101.982">  2  5  1 -1</clus>
</clustering>
</event>
<event>
 9    1  0.1328063E-005  0.1479976E+03  0.7546771E-02  0.1203255E+00
          2   -1    0    0  502    0  0.00000000000E+00  0.00000000000E+00  0.20612183423E+03  0.20612183423E+03  0.00000000000E+00 0. -1.
         -2   -1    0    0    0  501 -0.00000000000E+00 -0.00000000000E+00 -0.28797548858E+03  0.28797548858E+03  0.00000000000E+00 0.  1.
         23    2    1    2    0    0  0.86728845924E+02 -0.28653322405E+02 -0.17042187692E+03  0.21331401051E+03  0.90090761713E+02 0.  0.
         23    2    1    2    0    0 -0.10581312158E+03  0.57780717810E+02  0.14809813443E+03  0.21181647138E+03  0.91641322990E+02 0.  0.
        -11    1    4    4    0    0 -0.16271450793E+02 -0.23478850766E+02  0.16033238242E+02  0.32757919237E+02  0.00000000000E+00 0.  1.
         11    1    4    4    0    0 -0.89541670783E+02  0.81259568576E+02  0.13206489619E+03  0.17905855215E+03  0.00000000000E+00 0. -1.
        -13    1    3    3    0    0  0.62791033784E+02 -0.39751938868E+02 -0.17149673885E+03  0.18690655956E+03  0.00000000000E+00 0.  1.
         13    1    3    3    0    0  0.23937812141E+02  0.11098616463E+02  0.10748619378E+01  0.26407450950E+02  0.00000000000E+00 0. -1.
         21    1    1    2  502  501  0.19084275652E+02 -0.29127395405E+02 -0.59529911867E+02  0.68966840925E+02  0.00000000000E+00 0.  1.
<scales pt_clust_5="13000.00000" pt_clust_6="13000.00000" pt_clust_7="13000.00000" pt_clust_8="13000.00000" pt_clust_9="34.82262"></scales>
<clustering>
<clus scale="   34.823">  2  9  1 -1</clus>
<clus scale="   90.091">  7  8 -1 -1</clus>
<clus scale="   91.641">  5  6 -1 -1</clus>
<clus scale="  147.043">  2  7  1 -1</clus>
<clus scale="  147.998">  1  5  2 -1</clus>
</clustering>
</event>
<event>
 9    1  0.1266593E-005  0.9153451E+02  0.7546771E-02  0.1300371E+00
         -2   -1    0    0    0  501 -0.00000000000E+00  0.00000000000E+00  0.20502668200E+02  0.20502668200E+02  0.00000000000E+00 0.  1.
          2   -1    0    0  502    0  0.00000000000E+00 -0.00000000000E+00 -0.59599618532E+03  0.59599618532E+03  0.00000000000E+00 0. -1.
         23    2    1    2    0    0 -0.24402851984E+02  0.10823909077E+02 -0.28462462218E+03  0.29983411012E+03  0.90424896185E+02 0.  0.
         23    2    1    2    0    0  0.42251817244E+01  0.57749083529E+01 -0.26673946715E+03  0.28109947378E+03  0.88406838535E+02 0.  0.
        -13    1    3    3    0    0 -0.41833817471E+02 -0.27938287198E+02 -0.12756764580E+03  0.13712811685E+03  0.00000000000E+00 0.  1.
         13    1    3    3    0    0  0.17430965487E+02  0.38762196275E+02 -0.15705697637E+03  0.16270599327E+03  0.00000000000E+00 0. -1.
        -13    1    4    4    0    0  0.36357350423E+01 -0.39612702728E+02 -0.16441887062E+03  0.16916249526E+03  0.00000000000E+00 0.  1.
         13    1    4    4    0    0  0.58944668205E+00  0.45387611081E+02 -0.10232059653E+03  0.11193697853E+03  0.00000000000E+00 0. -1.
         21    1    1    2  502  501  0.20177670260E+02 -0.16598817430E+02 -0.24129427798E+02  0.35565269618E+02  0.00000000000E+00 0.  1.
<scales pt_clust_5="13000.00000" pt_clust_6="13000.00000" pt_clust_7="13000.00000" pt_clust_8="13000.00000" pt_clust_9="26.12775"></scales>
<clustering>
<clus scale="   26.128">  1  9  2 -1</clus>
<clus scale="   88.407">  7  8 -1 -1</clus>
<clus scale="   89.541">  2  7  1 -1</clus>
<clus scale="   90.425">  5  6 -1 -1</clus>
<clus scale="   89.541">  2  5  1 -1</clus>
</clustering>
</event>
<event>
 9    1  0.1266593E-005  0.1028548E+03  0.7546771E-02  0.1280274E+00
          2   -1    0    0  502    0  0.00000000000E+00  0.00000000000E+00  0.15712124332E+03  0.15712124332E+03  0.00000000000E+00 0. -1.
         -2   -1    0    0    0  501 -0.00000000000E+00 -0.00000000000E+00 -0.27843989578E+03  0.27843989578E+03  0.00000000000E+00 0.  1.
         23    2    1    2    0    0 -0.24766819195E+02 -0.22654371213E+02 -0.83907283135E+02  0.12736041002E+03  0.89741996910E+02 0.  0.
         23    2    1    2    0    0  0.17685564794E+02  0.38877013692E+01  0.11524236106E+03  0.15423484499E+03  0.10089446071E+03 0.  0.
        -11    1    4    4    0    0 -0.28888562038E+02 -0.30064208195E+02  0.30120224753E+02  0.51435722705E+02  0.00000000000E+00 0.  1.
         11    1    4    4    0    0  0.46574126832E+02  0.33951909564E+02  0.85122136308E+02  0.10279912229E+03  0.00000000000E+00 0. -1.
        -11    1    3    3    0    0 -0.10401309759E+02 -0.54817046403E+02 -0.69935831064E+02  0.89465726888E+02  0.00000000000E+00 0.  1.
         11    1    3    3    0    0 -0.14365509436E+02  0.32162675190E+02 -0.13971452071E+02  0.37894683132E+02  0.00000000000E+00 0. -1.
         21    1    1    2  502  501  0.70812544008E+01  0.18766669844E+02 -0.15265373039E+03  0.15396588408E+03  0.00000000000E+00 0.  1.
<scales pt_clust_5="13000.00000" pt_clust_6="13000.00000" pt_clust_7="13000.00000" pt_clust_8="13000.00000" pt_clust_9="20.05822"></scales>
<clustering>
<clus scale="   20.058">  2  9  1 -1</clus>
<clus scale="   89.742">  7  8 -1 -1</clus>
<clus scale="   91.940">  2  7  1 -1</clus>
<clus scale="  100.894">  5  6 -1 -1</clus>
<clus scale="  102.855">  1  5  2 -1</clus>
</clustering>
</event>
<event>
 9    1  0.1266593E-005  0.9101557E+02  0.7546771E-02  0.1300701E+00
         -1   -1    0    0    0  501 -0.00000000000E+00  0.00000000000E+00  0.19612196324E+03  0.19612196324E+03  0.00000000000E+00 0.  1.
          1   -1    0    0  502    0  0.00000000000E+00 -0.00000000000E+00 -0.14679128266E+03  0.14679128266E+03  0.00000000000E+00 0. -1.
         23    2    1    2    0    0 -0.37313275918E+02 -0.10777991031E+02 -0.29512154099E+02  0.10186409988E+03  0.89425286998E+02 0.  0.
         23    2    1    2    0    0 -0.18628799743E+02  0.19751793601E+02 -0.46155951652E+02  0.10380942310E+03  0.88931765535E+02 0.  0.
        -11    1    4    4    0    0 -0.47216617900E+02  0.18350193687E+02 -0.54090831775E+02  0.74107737088E+02  0.00000000000E+00 0.  1.
         11    1    4    4    0    0  0.28587818158E+02  0.14015999138E+01  0.79348801229E+01  0.29701686011E+02  0.00000000000E+00 0. -1.
        -11    1    3    3    0    0  0.61172554947E+01  0.32845081088E+02  0.42813680227E+00  0.33412624374E+02  0.00000000000E+00 0.  1.
         11    1    3    3    0    0 -0.43430531413E+02 -0.43623072118E+02 -0.29940290902E+02  0.68451475507E+02  0.00000000000E+00 0. -1.
         21    1    1    2  502  501  0.55942075661E+02 -0.89738025698E+01  0.12499878634E+03  0.13723972292E+03  0.00000000000E+00 0. -1.
<scales pt_clust_5="13000.00000" pt_clust_6="13000.00000" pt_clust_7="13000.00000" pt_clust_8="13000.00000" pt_clust_9="56.65726"></scales>
<clustering>
<clus scale="   56.657">  1  9  2 -1</clus>
<clus scale="   88.932">  5  6 -1 -1</clus>
<clus scale="   89.425">  7  8 -1 -1</clus>
<clus scale="   90.531">  2  5  1 -1</clus>
<clus scale="   90.531">  2  5  1 -1</clus>
</clustering>
</event>
<event>
 9    1  0.1266593E-005  0.3382606E+03  0.7546771E-02  0.1067549E+00
          1   -1    0    0  502    0  0.00000000000E+00  0.00000000000E+00  0.29777214408E+03  0.29777214408E+03  0.00000000000E+00 0. -1.
         -1   -1    0    0    0  501 -0.00000000000E+00 -0.00000000000E+00 -0.48671475407E+03  0.48671475407E+03  0.00000000000E+00 0.  1.
         23    2    1    2    0    0  0.56134996492E+02  0.35284166277E+03 -0.15887266789E+03  0.40160160360E+03  0.91623941197E+02 0.  0.
         23    2    1    2    0    0 -0.57142881052E+02 -0.30249245473E+03  0.56504998906E+01  0.32114382908E+03  0.91293136563E+02 0.  0.
        -11    1    4    4    0    0 -0.82406148324E+02 -0.23479893085E+03  0.45074915850E+01  0.24888075195E+03  0.00000000000E+00 0.  1.
         11    1    4    4    0    0  0.25263267272E+02 -0.67693523884E+02  0.11430083056E+01  0.72263077135E+02  0.00000000000E+00 0. -1.
        -11    1    3    3    0    0  0.38216579212E+02  0.29014765259E+03 -0.16525037498E+03  0.33608608073E+03  0.00000000000E+00 0. -1.
         11    1    3    3    0    0  0.17918417280E+02  0.62694010176E+02  0.63777070884E+01  0.65515522874E+02  0.00000000000E+00 0.  1.
         21    1    1    2  502  501  0.10078845605E+01 -0.50349208031E+02 -0.35720441998E+02  0.61741465460E+02  0.00000000000E+00 0. -1.
<scales pt_clust_5="13000.00000" pt_clust_6="13000.00000" pt_clust_7="13000.00000" pt_clust_8="13000.00000" pt_clust_9="50.35929"></scales>
<clustering>
<clus scale="   50.359">  2  9  1 -1</clus>
<clus scale="   91.293">  5  6 -1 -1</clus>
<clus scale="   91.624">  7  8 -1 -1</clus>
<clus scale="  338.171">  1  5  2 -1</clus>
<clus scale="  338.171">  1  5  2 -1</clus>
</clustering>
</event>
<event>
 9    1  0.1266593E-005  0.1343017E+03  0.7546771E-02  0.1221983E+00
         -1   -1    0    0    0  501 -0.00000000000E+00  0.00000000000E+00  0.53046264817E+02  0.53046264817E+02  0.00000000000E+00 0.  1.
          1   -1    0    0  502    0  0.00000000000E+00 -0.00000000000E+00 -0.80122469516E+03  0.80122469516E+03  0.00000000000E+00 0. -1.
         23    2    1    2    0    0 -0.67391562979E+02 -0.76776305854E+02 -0.17847608433E+03  0.22540449384E+03  0.92288944437E+02 0.  0.
         23    2    1    2    0    0  0.38775691039E+02  0.84710567643E+02 -0.58174330940E+03  0.59682266118E+03  0.95355001859E+02 0.  0.
        -13    1    3    3    0    0 -0.84150382345E+02 -0.52066950617E+02 -0.96742468868E+02  0.13838843694E+03  0.00000000000E+00 0.  1.
         13    1    3    3    0    0  0.16758819366E+02 -0.24709355237E+02 -0.81733615461E+02  0.87016056904E+02  0.00000000000E+00 0. -1.
        -13    1    4    4    0    0  0.64256568002E+02  0.86457582532E+02 -0.47654648279E+03  0.48856971904E+03  0.00000000000E+00 0. -1.
         13    1    4    4    0    0 -0.25480876963E+02 -0.17470148889E+01 -0.10519682661E+03  0.10825294214E+03  0.00000000000E+00 0.  1.
         21    1    1    2  502  501  0.28615871940E+02 -0.79342617887E+01  0.12040963384E+02  0.32043804959E+02  0.00000000000E+00 0.  1.
<scales pt_clust_5="13000.00000" pt_clust_6="13000.00000" pt_clust_7="13000.00000" pt_clust_8="13000.00000" pt_clust_9="29.69546"></scales>
<clustering>
<clus scale="   29.695">  1  9  2 -1</clus>
<clus scale="   92.289">  5  6 -1 -1</clus>
<clus scale="   95.355">  7  8 -1 -1</clus>
<clus scale="  132.142">  1  5  2 -1</clus>
<clus scale="  134.302">  2  5  1 -1</clus>
</clustering>
</event>
<event>
 9    1  0.1266593E-005  0.2722395E+03  0.7546771E-02  0.1100078E+00
         -2   -1    0    0    0  501 -0.00000000000E+00  0.00000000000E+00  0.43838185047E+03  0.43838185047E+03  0.00000000000E+00 0.  1.
          2   -1    0    0  502    0  0.00000000000E+00 -0.00000000000E+00 -0.21583277471E+03  0.21583277471E+03  0.00000000000E+00 0. -1.
         23    2    1    2    0    0 -0.13375040572E+03  0.23192648918E+03  0.22129370058E+03  0.35873419196E+03  0.89667447573E+02 0.  0.
         23    2    1    2    0    0  0.11172477161E+03 -0.22558564297E+03 -0.13711939346E+02  0.26810607674E+03  0.91222498315E+02 0.  0.
        -13    1    3    3    0    0 -0.10358979584E+03  0.19170510692E+03  0.21819102099E+03  0.30836506849E+03  0.00000000000E+00 0.  1.
         13    1    3    3    0    0 -0.30160609875E+02  0.40221382256E+02  0.31026795849E+01  0.50369123471E+02  0.00000000000E+00 0. -1.
        -13    1    4    4    0    0  0.26342424316E+02 -0.13149557916E+03  0.22519192626E+02  0.13598575180E+03  0.00000000000E+00 0.  1.
         13    1    4    4    0    0  0.85382347291E+02 -0.94090063810E+02 -0.36231131972E+02  0.13212032493E+03  0.00000000000E+00 0. -1.
         21    1    1    2  502  501  0.22025634109E+02 -0.63408462069E+01  0.14967314534E+02  0.27374356483E+02  0.00000000000E+00 0.  1.
<scales pt_clust_5="13000.00000" pt_clust_6="13000.00000" pt_clust_7="13000.00000" pt_clust_8="13000.00000" pt_clust_9="22.92019"></scales>
<clustering>
<clus scale="   22.920">  1  9  2 -1</clus>
<clus scale="   89.667">  5  6 -1 -1</clus>
<clus scale="   91.222">  7  8 -1 -1</clus>
<clus scale="  271.722">  1  5  2 -1</clus>
<clus scale="  272.239">  2  5  1 -1</clus>
</clustering>
</event>
<event>
 9    1  0.1266593E-005  0.4305180E+03  0.7546771E-02  0.1033702E+00
         -1   -1    0    0    0  501 -0.00000000000E+00  0.00000000000E+00  0.26020444620E+03  0.26020444620E+03  0.00000000000E+00 0.  1.
          1   -1    0    0  502    0  0.00000000000E+00 -0.00000000000E+00 -0.12238537352E+04  0.12238537352E+04  0.00000000000E+00 0. -1.
         23    2    1    2    0    0  0.30893296013E+03 -0.26090070634E+03 -0.26721995237E+02  0.41537043480E+03  0.91157998294E+02 0.  0.
         23    2    1    2    0    0 -0.32647903370E+03  0.27156385172E+03 -0.94981905790E+03  0.10444438825E+04  0.91494785917E+02 0.  0.
        -11    1    4    4    0    0 -0.19144581070E+03  0.16386296725E+03 -0.66744907433E+03  0.71343593777E+03  0.00000000000E+00 0. -1.
         11    1    4    4    0    0 -0.13503322300E+03  0.10770088447E+03 -0.28236998356E+03  0.33100794469E+03  0.00000000000E+00 0.  1.
        -13    1    3    3    0    0  0.28512484924E+03 -0.24163009047E+03  0.14685058206E+01  0.37374247389E+03  0.00000000000E+00 0.  1.
         13    1    3    3    0    0  0.23808110884E+02 -0.19270615872E+02 -0.28190501057E+02  0.41627960913E+02  0.00000000000E+00 0. -1.
         21    1    1    2  502  501  0.17546073572E+02 -0.10663145378E+02  0.12891764122E+02  0.24243864159E+02  0.00000000000E+00 0. -1.
<scales pt_clust_5="13000.00000" pt_clust_6="13000.00000" pt_clust_7="13000.00000" pt_clust_8="13000.00000" pt_clust_9="20.53211"></scales>
<clustering>
<clus scale="   20.532">  1  9  2 -1</clus>
<clus scale="   91.158">  7  8 -1 -1</clus>
<clus scale="   91.495">  5  6 -1 -1</clus>
<clus scale="  430.447">  1  7  2 -1</clus>
<clus scale="  430.518">  2  5  1 -1</clus>
</clustering>
</event>
<event>
 9    1  0.1266593E-005  0.1275532E+03  0.7546771E-02  0.1231875E+00
          1   -1    0    0  502    0  0.00000000000E+00  0.00000000000E+00  0.94996998937E+02  0.94996998937E+02  0.00000000000E+00 0. -1.
         -1   -1    0    0    0  501 -0.00000000000E+00 -0.00000000000E+00 -0.27002324091E+03  0.27002324091E+03  0.00000000000E+00 0.  1.
         23    2    1    2    0    0  0.92040219106E+02  0.39517322120E+02 -0.83440860901E+02  0.16007263110E+03  0.92886216848E+02 0.  0.
         23    2    1    2    0    0 -0.59214854458E+02 -0.56969080597E+02 -0.19132461677E+02  0.12351362341E+03  0.90209140033E+02 0.  0.
        -11    1    4    4    0    0 -0.14790044355E+02 -0.23581693034E+02  0.35816879982E+02  0.45361774106E+02  0.00000000000E+00 0. -1.
         11    1    4    4    0    0 -0.44424810102E+02 -0.33387387562E+02 -0.54949341659E+02  0.78151849304E+02  0.00000000000E+00 0.  1.
        -13    1    3    3    0    0 -0.53274107870E+01  0.38081011626E+02 -0.16146578388E+02  0.41704397200E+02  0.00000000000E+00 0.  1.
         13    1    3    3    0    0  0.97367629893E+02  0.14363104941E+01 -0.67294282513E+02  0.11836823390E+03  0.00000000000E+00 0. -1.
         21    1    1    2  502  501 -0.32825364648E+02  0.17451758476E+02 -0.72452919391E+02  0.81433985328E+02  0.00000000000E+00 0. -1.
<scales pt_clust_5="13000.00000" pt_clust_6="13000.00000" pt_clust_7="13000.00000" pt_clust_8="13000.00000" pt_clust_9="37.17618"></scales>
<clustering>
<clus scale="   37.176">  2  9  1 -1</clus>
<clus scale="   90.209">  5  6 -1 -1</clus>
<clus scale="   92.886">  7  8 -1 -1</clus>
<clus scale="  125.617">  1  5  2 -1</clus>
<clus scale="  125.617">  1  5  2 -1</clus>
</clustering>
</event>
<event>
 9    1  0.1266593E-005  0.1006554E+03  0.7546771E-02  0.1281682E+00
         -4   -1    0    0    0  501 -0.00000000000E+00  0.00000000000E+00  0.25417393883E+03  0.25417393883E+03  0.00000000000E+00 0. -1.
          4   -1    0    0  502    0  0.00000000000E+00 -0.00000000000E+00 -0.92750503310E+02  0.92750503310E+02  0.00000000000E+00 0.  1.
         23    2    1    2    0    0 -0.33024165865E+02 -0.37116457626E+02  0.12152408749E+03  0.16146862770E+03  0.93998866658E+02 0.  0.
         23    2    1    2    0    0  0.33219981830E+02  0.87022619396E+01 -0.38237458463E+02  0.10231277270E+03  0.88467528919E+02 0.  0.
        -11    1    4    4    0    0 -0.30542466450E+02  0.56698853141E+01 -0.12584771645E+02  0.33516657555E+02  0.00000000000E+00 0.  1.
         11    1    4    4    0    0  0.63762448280E+02  0.30323766255E+01 -0.25652686819E+02  0.68796115149E+02  0.00000000000E+00 0. -1.
        -13    1    3    3    0    0 -0.20761048827E+02  0.29556006594E+02  0.59389891692E+02  0.69510703560E+02  0.00000000000E+00 0.  1.
         13    1    3    3    0    0 -0.12263117038E+02 -0.66672464220E+02  0.62134195798E+02  0.91957924140E+02  0.00000000000E+00 0. -1.
         21    1    1    2  502  501 -0.19581596545E+00  0.28414195686E+02  0.78136806497E+02  0.83143041741E+02  0.00000000000E+00 0.  1.
<scales pt_clust_5="13000.00000" pt_clust_6="13000.00000" pt_clust_7="13000.00000" pt_clust_8="13000.00000" pt_clust_9="28.41487"></scales>
<clustering>
<clus scale="   28.415">  1  9  2 -1</clus>
<clus scale="   88.468">  5  6 -1 -1</clus>
<clus scale="   93.999">  7  8 -1 -1</clus>
<clus scale="   95.510">  2  5  1 -1</clus>
<clus scale="   95.510">  2  5  1 -1</clus>
</clustering>
</event>
<event>
 9    1  0.1266593E-005  0.1061369E+03  0.7546771E-02  0.1268312E+00
          4   -1    0    0  502    0  0.00000000000E+00  0.00000000000E+00  0.25053102386E+03  0.25053102386E+03  0.00000000000E+00 0. -1.
         -4   -1    0    0    0  501 -0.00000000000E+00 -0.00000000000E+00 -0.11112017155E+03  0.11112017155E+03  0.00000000000E+00 0.  1.
         23    2    1    2    0    0 -0.33047973751E+02  0.76497236718E+02  0.46514388625E+02  0.13239739128E+03  0.91768649734E+02 0.  0.
         23    2    1    2    0    0  0.39484978062E+02 -0.21949607884E+02  0.12858209741E+03  0.16375309199E+03  0.90779240930E+02 0.  0.
        -11    1    4    4    0    0  0.58509676439E+02  0.14502891350E+02  0.76334412516E+02  0.97265917097E+02  0.00000000000E+00 0. -1.
         11    1    4    4    0    0 -0.19024698377E+02 -0.36452499234E+02  0.52247684893E+02  0.66487174894E+02  0.00000000000E+00 0.  1.
        -13    1    3    3    0    0  0.82110486484E+01 -0.18247204164E+02  0.28449415256E+01  0.20210776136E+02  0.00000000000E+00 0.  1.
         13    1    3    3    0    0 -0.41259022399E+02  0.94744440882E+02  0.43669447099E+02  0.11218661514E+03  0.00000000000E+00 0. -1.
         21    1    1    2  502  501 -0.64370043110E+01 -0.54547628835E+02 -0.35685633730E+02  0.65500712139E+02  0.00000000000E+00 0.  1.
<scales pt_clust_5="13000.00000" pt_clust_6="13000.00000" pt_clust_7="13000.00000" pt_clust_8="13000.00000" pt_clust_9="54.92612"></scales>
<clustering>
<clus scale="   54.926">  2  9  1 -1</clus>
<clus scale="   90.779">  5  6 -1 -1</clus>
<clus scale="   91.769">  7  8 -1 -1</clus>
<clus scale="  105.283">  1  5  2 -1</clus>
<clus scale="  105.283">  1  5  2 -1</clus>
</clustering>
</event>
<event>
 9    1  0.1266593E-005  0.9315202E+02  0.7546771E-02  0.1295515E+00
          2   -1    0    0  502    0  0.00000000000E+00  0.00000000000E+00  0.36446608299E+03  0.36446608299E+03  0.00000000000E+00 0. -1.
         -2   -1    0    0    0  501 -0.00000000000E+00 -0.00000000000E+00 -0.47057567325E+02  0.47057567325E+02  0.00000000000E+00 0.  1.
         23    2    1    2    0    0  0.32087633930E+01 -0.12539948876E+02  0.14106434852E+03  0.16853080247E+03  0.91301338862E+02 0.  0.
         23    2    1    2    0    0  0.20682004560E+02  0.17994559606E+02  0.19174934893E+03  0.21404736121E+03  0.91087378573E+02 0.  0.
        -11    1    3    3    0    0 -0.38266393002E+02  0.15971283047E+02  0.71769570031E+02  0.82887091262E+02  0.00000000000E+00 0. -1.
         11    1    3    3    0    0  0.41475156395E+02 -0.28511231923E+02  0.69294778485E+02  0.85643711205E+02  0.00000000000E+00 0.  1.
        -13    1    4    4    0    0 -0.34652032349E+02  0.50887731380E+01  0.10178769209E+03  0.10764475472E+03  0.00000000000E+00 0. -1.
         13    1    4    4    0    0  0.55334036909E+02  0.12905786468E+02  0.89961656846E+02  0.10640260649E+03  0.00000000000E+00 0.  1.
         21    1    1    2  502  501 -0.23890767953E+02 -0.54546107298E+01 -0.15405181777E+02  0.28945486646E+02  0.00000000000E+00 0.  1.
<scales pt_clust_5="13000.00000" pt_clust_6="13000.00000" pt_clust_7="13000.00000" pt_clust_8="13000.00000" pt_clust_9="24.50554"></scales>
<clustering>
<clus scale="   24.506">  2  9  1 -1</clus>
<clus scale="   91.087">  7  8 -1 -1</clus>
<clus scale="   91.301">  5  6 -1 -1</clus>
<clus scale="   92.942">  1  7  2 -1</clus>
<clus scale="   92.942">  1  5  2 -1</clus>
</clustering>
</event>
<event>
 9    1  0.1266593E-005  0.1062736E+03  0.7546771E-02  0.1276514E+00
          1   -1    0    0  502    0  0.00000000000E+00  0.00000000000E+00  0.36808063229E+03  0.36808063229E+03  0.00000000000E+00 0. -1.
         -1   -1    0    0    0  501 -0.00000000000E+00 -0.00000000000E+00 -0.52138440369E+02  0.52138440369E+02  0.00000000000E+00 0.  1.
         23    2    1    2    0    0  0.12336815753E+02 -0.21860861567E+02  0.65547551999E+02  0.12501126071E+03  0.10344679522E+03 0.  0.
         23    2    1    2    0    0 -0.27032977869E+02 -0.36230951057E+00  0.25280684476E+03  0.26845589153E+03  0.86176283131E+02 0.  0.
        -11    1    4    4    0    0 -0.29250290642E+02  0.38848318479E+02  0.16981590548E+03  0.17664148184E+03  0.00000000000E+00 0. -1.
         11    1    4    4    0    0  0.22173127727E+01 -0.39210627990E+02  0.82990939285E+02  0.91814409690E+02  0.00000000000E+00 0.  1.
        -11    1    3    3    0    0  0.29158177656E+02 -0.47649034129E+02  0.37741437604E+01  0.55989944979E+02  0.00000000000E+00 0.  1.
         11    1    3    3    0    0 -0.16821361904E+02  0.25788172562E+02  0.61773408238E+02  0.69021315735E+02  0.00000000000E+00 0. -1.
         21    1    1    2  502  501  0.14696162117E+02  0.22223171078E+02 -0.24122048467E+01  0.26751920416E+02  0.00000000000E+00 0. -1.
<scales pt_clust_5="13000.00000" pt_clust_6="13000.00000" pt_clust_7="13000.00000" pt_clust_8="13000.00000" pt_clust_9="26.64294"></scales>
<clustering>
<clus scale="   26.643">  2  9  1 -1</clus>
<clus scale="   86.176">  5  6 -1 -1</clus>
<clus scale="   89.550">  1  5  2 -1</clus>
<clus scale="  103.447">  7  8 -1 -1</clus>
<clus scale="   89.550">  1  5  2 -1</clus>
</clustering>
</event>
<event>
 9    1  0.1266593E-005  0.1108879E+03  0.7546771E-02  0.1265572E+00
         -2   -1    0    0    0  501 -0.00000000000E+00  0.00000000000E+00  0.49355294840E+02  0.49355294840E+02  0.00000000000E+00 0.  1.
          2   -1    0    0  502    0  0.00000000000E+00 -0.00000000000E+00 -0.57394854073E+03  0.57394854073E+03  0.00000000000E+00 0. -1.
         23    2    1    2    0    0 -0.72785971779E+01  0.21639148989E+02 -0.17220747089E+03  0.20277494947E+03  0.10459940897E+03 0.  0.
         23    2    1    2    0    0  0.11018352624E+02 -0.41332072368E+02 -0.37631213791E+03  0.38931562218E+03  0.90144795949E+02 0.  0.
        -11    1    4    4    0    0  0.21069565552E+02 -0.62092701391E+02 -0.34023109404E+03  0.34649188664E+03  0.00000000000E+00 0. -1.
         11    1    4    4    0    0 -0.10051212928E+02  0.20760629024E+02 -0.36081043871E+02  0.42823735540E+02  0.00000000000E+00 0.  1.
        -13    1    3    3    0    0 -0.25773150495E+02  0.42484404037E+02 -0.16724328597E+03  0.17446918517E+03  0.00000000000E+00 0. -1.
         13    1    3    3    0    0  0.18494553317E+02 -0.20845255048E+02 -0.49641849184E+01  0.28305764295E+02  0.00000000000E+00 0.  1.
         21    1    1    2  502  501 -0.37397554460E+01  0.19692923379E+02  0.23926362912E+02  0.31213263915E+02  0.00000000000E+00 0.  1.
<scales pt_clust_5="13000.00000" pt_clust_6="13000.00000" pt_clust_7="13000.00000" pt_clust_8="13000.00000" pt_clust_9="20.04487"></scales>
<clustering>
<clus scale="   20.045">  1  9  2 -1</clus>
<clus scale="   90.145">  5  6 -1 -1</clus>
<clus scale="   97.371">  2  5  1 -1</clus>
<clus scale="  104.599">  7  8 -1 -1</clus>
<clus scale="   97.371">  2  5  1 -1</clus>
</clustering>
</event>
<event>
 9    1  0.1266593E-005  0.1660097E+03  0.7546771E-02  0.1208461E+00
         -1   -1    0    0    0  501 -0.00000000000E+00  0.00000000000E+00  0.58126573143E+03  0.58126573143E+03  0.00000000000E+00 0.  1.
          1   -1    0    0  502    0  0.00000000000E+00 -0.00000000000E+00 -0.14155547664E+03  0.14155547664E+03  0.00000000000E+00 0. -1.
         23    2    1    2    0    0 -0.11379641624E+03  0.80200689629E+02  0.45936019425E+03  0.48859414648E+03  0.91272542087E+02 0.  0.
         23    2    1    2    0    0 -0.95513960855E+01 -0.19344077795E+02 -0.25435455803E+02  0.96561952699E+02  0.90619124825E+02 0.  0.
        -13    1    3    3    0    0 -0.51108614439E+02  0.87394560318E+02  0.24371776508E+03  0.26390954636E+03  0.00000000000E+00 0.  1.
         13    1    3    3    0    0 -0.62687801802E+02 -0.71938706890E+01  0.21564242917E+03  0.22468460012E+03  0.00000000000E+00 0. -1.
        -13    1    4    4    0    0 -0.47252398310E+02 -0.27277335449E+02 -0.13133463730E+02  0.56118892049E+02  0.00000000000E+00 0.  1.
         13    1    4    4    0    0  0.37701002225E+02  0.79332576535E+01 -0.12301992073E+02  0.40443060650E+02  0.00000000000E+00 0. -1.
         21    1    1    2  502  501  0.12334781233E+03 -0.60856611834E+02  0.57855163417E+01  0.13766510890E+03  0.00000000000E+00 0. -1.
<scales pt_clust_5="13000.00000" pt_clust_6="13000.00000" pt_clust_7="13000.00000" pt_clust_8="13000.00000" pt_clust_9="138.66699"></scales>
<clustering>
<clus scale="   90.619">  7  8 -1 -1</clus>
<clus scale="   91.273">  5  6 -1 -1</clus>
<clus scale="   93.152">  2  7  1 -1</clus>
<clus scale="  138.667">  2  9  1 -1</clus>
<clus scale="   93.152">  2  5  1 -1</clus>
</clustering>
</event>
<event>
 9    1  0.1266593E-005  0.1033886E+03  0.7546771E-02  0.1275619E+00
          1   -1    0    0  502    0  0.00000000000E+00  0.00000000000E+00  0.37910498893E+03  0.37910498893E+03  0.00000000000E+00 0. -1.
         -1   -1    0    0    0  501 -0.00000000000E+00 -0.00000000000E+00 -0.63760959912E+02  0.63760959912E+02  0.00000000000E+00 0.  1.
         23    2    1    2    0    0  0.47923118831E+02  0.12104016709E+02  0.13705915268E+02  0.10807154753E+03  0.95123470986E+02 0.  0.
         23    2    1    2    0    0 -0.52836465329E+01  0.75668285630E+01  0.24475457623E+03  0.26103259825E+03  0.90266499577E+02 0.  0.
        -13    1    3    3    0    0  0.34667200689E+02 -0.30609891827E+02 -0.21647102908E+02  0.51062484718E+02  0.00000000000E+00 0. -1.
         13    1    3    3    0    0  0.13255918142E+02  0.42713908535E+02  0.35353018176E+02  0.57009062809E+02  0.00000000000E+00 0.  1.
        -13    1    4    4    0    0  0.13019404338E+02 -0.38536812430E+02  0.97385568119E+02  0.10553928027E+03  0.00000000000E+00 0. -1.
         13    1    4    4    0    0 -0.18303050871E+02  0.46103640993E+02  0.14736900811E+03  0.15549331798E+03  0.00000000000E+00 0.  1.
         21    1    1    2  502  501 -0.42639472298E+02 -0.19670845272E+02  0.56883537518E+02  0.73761803070E+02  0.00000000000E+00 0. -1.
<scales pt_clust_5="13000.00000" pt_clust_6="13000.00000" pt_clust_7="13000.00000" pt_clust_8="13000.00000" pt_clust_9="46.95814"></scales>
<clustering>
<clus scale="   46.958">  1  9  2 -1</clus>
<clus scale="   90.266">  7  8 -1 -1</clus>
<clus scale="   95.123">  5  6 -1 -1</clus>
<clus scale="   98.938">  1  7  2 -1</clus>
<clus scale="   46.958">  1  5  2 -1</clus>
</clustering>
</event>
<event>
 9    1  0.1266593E-005  0.9294054E+02  0.7546771E-02  0.1296310E+00
         -1   -1    0    0    0  501 -0.00000000000E+00  0.00000000000E+00  0.21071099103E+03  0.21071099103E+03  0.00000000000E+00 0.  1.
          1   -1    0    0  502    0  0.00000000000E+00 -0.00000000000E+00 -0.14369345819E+03  0.14369345819E+03  0.00000000000E+00 0. -1.
         23    2    1    2    0    0 -0.94426918648E+01 -0.90734430902E+01  0.26114724221E+02  0.94735914018E+02  0.90118936881E+02 0.  0.
         23    2    1    2    0    0 -0.14552252084E+02  0.25159117538E+02 -0.87292381545E+02  0.12825882081E+03  0.89362273936E+02 0.  0.
        -13    1    4    4    0    0 -0.40278388238E+02  0.53471578115E+01 -0.64517994456E+01  0.41140811511E+02  0.00000000000E+00 0.  1.
         13    1    4    4    0    0  0.25726136153E+02  0.19811959726E+02 -0.80840582100E+02  0.87118009297E+02  0.00000000000E+00 0. -1.
        -13    1    3    3    0    0 -0.44915648111E+02 -0.78069485717E+01  0.35774077536E+02  0.57949534206E+02  0.00000000000E+00 0.  1.
         13    1    3    3    0    0  0.35472956246E+02 -0.12664945185E+01 -0.96593533149E+01  0.36786379812E+02  0.00000000000E+00 0. -1.
         21    1    1    2  502  501  0.23994943949E+02 -0.16085674447E+02  0.12819519016E+03  0.13140971439E+03  0.00000000000E+00 0. -1.
<scales pt_clust_5="13000.00000" pt_clust_6="13000.00000" pt_clust_7="13000.00000" pt_clust_8="13000.00000" pt_clust_9="28.88782"></scales>
<clustering>
<clus scale="   28.888">  1  9  2 -1</clus>
<clus scale="   89.362">  5  6 -1 -1</clus>
<clus scale="   90.119">  7  8 -1 -1</clus>
<clus scale="   92.207">  2  5  1 -1</clus>
<clus scale="   92.207">  2  5  1 -1</clus>
</clustering>
</event>
<event>
 9    1  0.1266593E-005  0.1148409E+03  0.7546771E-02  0.1252811E+00
          1   -1    0    0  502    0  0.00000000000E+00  0.00000000000E+00  0.43614545086E+02  0.43614545086E+02  0.00000000000E+00 0. -1.
         -1   -1    0    0    0  501 -0.00000000000E+00 -0.00000000000E+00 -0.50527317840E+03  0.50527317840E+03  0.00000000000E+00 0.  1.
         23    2    1    2    0    0 -0.10355382429E+02 -0.83893328864E+02 -0.33004006794E+03  0.35213560161E+03  0.89037693713E+02 0.  0.
         23    2    1    2    0    0  0.24502589166E+02  0.60010521170E+02 -0.79239426011E+02  0.13747222476E+03  0.91750130348E+02 0.  0.
        -11    1    4    4    0    0 -0.15100070512E+01  0.73942634608E+02 -0.29471713136E+02  0.79613913415E+02  0.00000000000E+00 0. -1.
         11    1    4    4    0    0  0.26012596217E+02 -0.13932113438E+02 -0.49767712875E+02  0.57858311344E+02  0.00000000000E+00 0.  1.
        -13    1    3    3    0    0 -0.60509037263E+01 -0.25516372560E+02 -0.12151325403E+02  0.28902481097E+02  0.00000000000E+00 0. -1.
         13    1    3    3    0    0 -0.43044787032E+01 -0.58376956304E+02 -0.31788874254E+03  0.32323312051E+03  0.00000000000E+00 0.  1.
         21    1    1    2  502  501 -0.14147206736E+02  0.23882807694E+02 -0.52379139363E+02  0.59279897117E+02  0.00000000000E+00 0. -1.
<scales pt_clust_5="13000.00000" pt_clust_6="13000.00000" pt_clust_7="13000.00000" pt_clust_8="13000.00000" pt_clust_9="27.75846"></scales>
<clustering>
<clus scale="   27.758">  2  9  1 -1</clus>
<clus scale="   89.038">  7  8 -1 -1</clus>
<clus scale="   91.750">  5  6 -1 -1</clus>
<clus scale="  112.686">  2  7  1 -1</clus>
<clus scale="  114.841">  1  5  2 -1</clus>
</clustering>
</event>
<event>
 9    1  0.1266593E-005  0.1249927E+03  0.7546771E-02  0.1237419E+00
          1   -1    0    0  502    0  0.00000000000E+00  0.00000000000E+00  0.58319421855E+03  0.58319421855E+03  0.00000000000E+00 0. -1.
         -1   -1    0    0    0  501 -0.00000000000E+00 -0.00000000000E+00 -0.52523815499E+02  0.52523815499E+02  0.00000000000E+00 0.  1.
         23    2    1    2    0    0  0.11731391287E+03 -0.41137740524E+02  0.17655676262E+03  0.23754347441E+03  0.98993656148E+02 0.  0.
         23    2    1    2    0    0 -0.59522665800E+02  0.54279692884E+01  0.26054314838E+03  0.28254388473E+03  0.91519965218E+02 0.  0.
        -11    1    4    4    0    0  0.12801090470E+02  0.24206781707E+02  0.32111810331E+02  0.42201949725E+02  0.00000000000E+00 0.  1.
         11    1    4    4    0    0 -0.72323756270E+02 -0.18778812419E+02  0.22843133805E+03  0.24034193500E+03  0.00000000000E+00 0. -1.
        -13    1    3    3    0    0  0.93373430137E+02  0.75474686972E+01  0.15070173106E+03  0.17744456454E+03  0.00000000000E+00 0. -1.
         13    1    3    3    0    0  0.23940482731E+02 -0.48685209221E+02  0.25855031560E+02  0.60098909868E+02  0.00000000000E+00 0.  1.
         21    1    1    2  502  501 -0.57791247068E+02  0.35709771236E+02  0.93570492042E+02  0.11563067491E+03  0.00000000000E+00 0. -1.
<scales pt_clust_5="13000.00000" pt_clust_6="13000.00000" pt_clust_7="13000.00000" pt_clust_8="13000.00000" pt_clust_9="67.93391"></scales>
<clustering>
<clus scale="   67.934">  2  9  1 -1</clus>
<clus scale="   91.520">  5  6 -1 -1</clus>
<clus scale="   98.994">  7  8 -1 -1</clus>
<clus scale="  119.161">  1  5  2 -1</clus>
<clus scale="  119.161">  1  5  2 -1</clus>
</clustering>
</event>
<event>
 9    1  0.1266593E-005  0.1470239E+03  0.7546771E-02  0.1204370E+00
         -1   -1    0    0    0  501 -0.00000000000E+00  0.00000000000E+00  0.10107599123E+04  0.10107599123E+04  0.00000000000E+00 0.  1.
          1   -1    0    0  502    0  0.00000000000E+00 -0.00000000000E+00 -0.30757940068E+02  0.30757940068E+02  0.00000000000E+00 0. -1.
         23    2    1    2    0    0 -0.42729921946E+02 -0.86467762070E+02  0.57992720985E+03  0.59489481387E+03  0.91004124832E+02 0.  0.
         23    2    1    2    0    0  0.53348543339E+02  0.11079711475E+03  0.24396043142E+03  0.28826787800E+03  0.91976136461E+02 0.  0.
        -11    1    4    4    0    0  0.15486240293E+02  0.68185203375E+02  0.21130632681E+03  0.22257450291E+03  0.00000000000E+00 0.  1.
         11    1    4    4    0    0  0.37862303046E+02  0.42611911380E+02  0.32654104611E+02  0.65693375095E+02  0.00000000000E+00 0. -1.
        -11    1    3    3    0    0 -0.20580363653E+02  0.11349704403E+02  0.46290777694E+02  0.51915347034E+02  0.00000000000E+00 0. -1.
         11    1    3    3    0    0 -0.22149558293E+02 -0.97817466473E+02  0.53363643215E+03  0.54297946683E+03  0.00000000000E+00 0.  1.
         21    1    1    2  502  501 -0.10618621393E+02 -0.24329352684E+02  0.15611433099E+03  0.15835516052E+03  0.00000000000E+00 0.  1.
<scales pt_clust_5="13000.00000" pt_clust_6="13000.00000" pt_clust_7="13000.00000" pt_clust_8="13000.00000" pt_clust_9="26.54567"></scales>
<clustering>
<clus scale="   26.546">  1  9  2 -1</clus>
<clus scale="   91.004">  7  8 -1 -1</clus>
<clus scale="   91.976">  5  6 -1 -1</clus>
<clus scale="  146.418">  1  7  2 -1</clus>
<clus scale="  147.024">  2  5  1 -1</clus>
</clustering>
</event>
<event>
 9    1  0.1266593E-005  0.1282542E+03  0.7546771E-02  0.1230215E+00
         -1   -1    0    0    0  501 -0.00000000000E+00  0.00000000000E+00  0.18479333753E+03  0.18479333753E+03  0.00000000000E+00 0.  1.
          1   -1    0    0  502    0  0.00000000000E+00 -0.00000000000E+00 -0.11320235643E+03  0.11320235643E+03  0.00000000000E+00 0. -1.
         23    2    1    2    0    0 -0.43367503240E+02 -0.80544689340E+02  0.31797786981E+02  0.13243588414E+03  0.90332590088E+02 0.  0.
         23    2    1    2    0    0  0.61804574662E+02  0.66805140981E+02  0.11534689430E+02  0.12912845137E+03  0.90875604988E+02 0.  0.
        -11    1    3    3    0    0 -0.46614538146E+02 -0.51520554262E+02  0.60026908717E+02  0.91817822062E+02  0.00000000000E+00 0. -1.
         11    1    3    3    0    0  0.32470349064E+01 -0.29024135077E+02 -0.28229121736E+02  0.40618062074E+02  0.00000000000E+00 0.  1.
        -11    1    4    4    0    0  0.40184026853E+02  0.86416449849E+02 -0.52678515535E+01  0.95447939101E+02  0.00000000000E+00 0.  1.
         11    1    4    4    0    0  0.21620547809E+02 -0.19611308868E+02  0.16802540983E+02  0.33680512267E+02  0.00000000000E+00 0. -1.
         21    1    1    2  502  501 -0.18437071423E+02  0.13739548359E+02  0.28258504689E+02  0.36431358457E+02  0.00000000000E+00 0.  1.
<scales pt_clust_5="13000.00000" pt_clust_6="13000.00000" pt_clust_7="13000.00000" pt_clust_8="13000.00000" pt_clust_9="22.99349"></scales>
<clustering>
<clus scale="   22.993">  1  9  2 -1</clus>
<clus scale="   90.333">  5  6 -1 -1</clus>
<clus scale="   90.876">  7  8 -1 -1</clus>
<clus scale="  127.870">  1  5  2 -1</clus>
<clus scale="  128.254">  2  5  1 -1</clus>
</clustering>
</event>
<event>
 9    1  0.1266593E-005  0.1165882E+03  0.7546771E-02  0.1251698E+00
          1   -1    0    0  502    0  0.00000000000E+00  0.00000000000E+00  0.22754040414E+03  0.22754040414E+03  0.00000000000E+00 0. -1.
         -1   -1    0    0    0  501 -0.00000000000E+00 -0.00000000000E+00 -0.96712345905E+02  0.96712345905E+02  0.00000000000E+00 0.  1.
         23    2    1    2    0    0 -0.60707597308E+02 -0.65666931095E+02  0.42695022562E+02  0.13963668899E+03  0.98376733778E+02 0.  0.
         23    2    1    2    0    0  0.32421248961E+01  0.43315942860E+02  0.57531818314E+02  0.11578088329E+03  0.90600885961E+02 0.  0.
        -13    1    3    3    0    0 -0.49773461564E+02  0.89131086705E+01 -0.44004243056E+01  0.50756326859E+02  0.00000000000E+00 0. -1.
         13    1    3    3    0    0 -0.10934135744E+02 -0.74580039766E+02  0.47095446868E+02  0.88880362126E+02  0.00000000000E+00 0.  1.
        -13    1    4    4    0    0 -0.11903848054E+02  0.26490150765E+02 -0.19835599018E+02  0.35169314387E+02  0.00000000000E+00 0.  1.
         13    1    4    4    0    0  0.15145972950E+02  0.16825792095E+02  0.77367417332E+02  0.80611568902E+02  0.00000000000E+00 0. -1.
         21    1    1    2  502  501  0.57465472412E+02  0.22350988235E+02  0.30601217355E+02  0.68835177767E+02  0.00000000000E+00 0. -1.
<scales pt_clust_5="13000.00000" pt_clust_6="13000.00000" pt_clust_7="13000.00000" pt_clust_8="13000.00000" pt_clust_9="61.65912"></scales>
<clustering>
<clus scale="   61.659">  1  9  2 -1</clus>
<clus scale="   90.601">  7  8 -1 -1</clus>
<clus scale="   98.377">  5  6 -1 -1</clus>
<clus scale="  110.106">  1  7  2 -1</clus>
<clus scale="   61.659">  1  5  2 -1</clus>
</clustering>
</event>
<event>
 9    1  0.1266593E-005  0.1137666E+03  0.7546771E-02  0.1254069E+00
          1   -1    0    0  502    0  0.00000000000E+00  0.00000000000E+00  0.60909186683E+02  0.60909186683E+02  0.00000000000E+00 0. -1.
         -1   -1    0    0    0  501 -0.00000000000E+00 -0.00000000000E+00 -0.42825730174E+03  0.42825730174E+03  0.00000000000E+00 0.  1.
         23    2    1    2    0    0  0.67994213236E+02 -0.19229256267E+02 -0.29172727878E+03  0.31414121632E+03  0.92665642389E+02 0.  0.
         23    2    1    2    0    0 -0.37132039782E+02  0.51297219977E+02 -0.65707170603E+02  0.12942802641E+03  0.91782289125E+02 0.  0.
        -13    1    3    3    0    0  0.26761916871E+02  0.35561724043E+02 -0.15377336855E+03  0.16008461914E+03  0.00000000000E+00 0.  1.
         13    1    3    3    0    0  0.41232296364E+02 -0.54790980310E+02 -0.13795391023E+03  0.15405659718E+03  0.00000000000E+00 0. -1.
        -13    1    4    4    0    0  0.19293352207E+02  0.75842418126E+01 -0.53024939043E+02  0.56933279580E+02  0.00000000000E+00 0.  1.
         13    1    4    4    0    0 -0.56425391989E+02  0.43712978164E+02 -0.12682231560E+02  0.72494746833E+02  0.00000000000E+00 0. -1.
         21    1    1    2  502  501 -0.30862173454E+02 -0.32067963710E+02 -0.99136656731E+01  0.45597245683E+02  0.00000000000E+00 0.  1.
<scales pt_clust_5="13000.00000" pt_clust_6="13000.00000" pt_clust_7="13000.00000" pt_clust_8="13000.00000" pt_clust_9="44.50649"></scales>
<clustering>
<clus scale="   44.506">  1  9  2 -1</clus>
<clus scale="   91.782">  7  8 -1 -1</clus>
<clus scale="   92.666">  5  6 -1 -1</clus>
<clus scale="  113.048">  1  7  2 -1</clus>
<clus scale="   44.506">  1  5  2 -1</clus>
</clustering>
</event>
<event>
 9    1  0.1266593E-005  0.3116288E+03  0.7546771E-02  0.1079629E+00
         -1   -1    0    0    0  501 -0.00000000000E+00  0.00000000000E+00  0.27358758871E+03  0.27358758871E+03  0.00000000000E+00 0.  1.
          1   -1    0    0  502    0  0.00000000000E+00 -0.00000000000E+00 -0.99534923019E+03  0.99534923019E+03  0.00000000000E+00 0. -1.
         23    2    1    2    0    0 -0.25153212528E+03 -0.13103877535E+03  0.16271896149E+02  0.29818836121E+03  0.90619829286E+02 0.  0.
         23    2    1    2    0    0  0.26024228002E+03  0.15099732489E+03 -0.82419297602E+03  0.88187968186E+03  0.88833974990E+02 0.  0.
        -11    1    3    3    0    0 -0.20661032869E+03 -0.11244478190E+03 -0.22085050258E+02  0.23626130945E+03  0.00000000000E+00 0.  1.
         11    1    3    3    0    0 -0.44921796593E+02 -0.18593993448E+02  0.38356946407E+02  0.61927051756E+02  0.00000000000E+00 0. -1.
        -13    1    4    4    0    0  0.30127447067E+02  0.42954575670E+02 -0.81923502709E+02  0.97284217291E+02  0.00000000000E+00 0.  1.
         13    1    4    4    0    0  0.23011483295E+03  0.10804274922E+03 -0.74226947331E+03  0.78459546456E+03  0.00000000000E+00 0. -1.
         21    1    1    2  502  501 -0.87101547347E+01 -0.19958549543E+02  0.86159438390E+02  0.88868775839E+02  0.00000000000E+00 0.  1.
<scales pt_clust_5="13000.00000" pt_clust_6="13000.00000" pt_clust_7="13000.00000" pt_clust_8="13000.00000" pt_clust_9="21.77637"></scales>
<clustering>
<clus scale="   21.776">  1  9  2 -1</clus>
<clus scale="   88.834">  7  8 -1 -1</clus>
<clus scale="   90.620">  5  6 -1 -1</clus>
<clus scale="  311.114">  2  7  1 -1</clus>
<clus scale="  311.114">  2  5  1 -1</clus>
</clustering>
</event>
<event>
 9    1  0.1266593E-005  0.9030004E+02  0.7546771E-02  0.1304143E+00
          2   -1    0    0  502    0  0.00000000000E+00  0.00000000000E+00  0.30945911139E+03  0.30945911139E+03  0.00000000000E+00 0.  1.
         -2   -1    0    0    0  501 -0.00000000000E+00 -0.00000000000E+00 -0.41438977177E+02  0.41438977177E+02  0.00000000000E+00 0. -1.
         23    2    1    2    0    0  0.46294062650E+01  0.25531754580E+02  0.70767103856E+02  0.11472957925E+03  0.86496193403E+02 0.  0.
         23    2    1    2    0    0 -0.93553183877E+01  0.42792998906E+01  0.17996218303E+03  0.20138335996E+03  0.89794409395E+02 0.  0.
        -13    1    4    4    0    0 -0.42677717905E+02  0.24628837616E+02  0.78681171103E+02  0.92836921179E+02  0.00000000000E+00 0.  1.
         13    1    4    4    0    0  0.33322399518E+02 -0.20349537725E+02  0.10128101193E+03  0.10854643878E+03  0.00000000000E+00 0. -1.
        -13    1    3    3    0    0  0.11479433461E+02  0.45064831752E+02  0.79628309183E+02  0.92213253260E+02  0.00000000000E+00 0.  1.
         13    1    3    3    0    0 -0.68500271964E+01 -0.19533077172E+02 -0.88612053270E+01  0.22516325994E+02  0.00000000000E+00 0. -1.
         21    1    1    2  502  501  0.47259121227E+01 -0.29811054471E+02  0.17290847323E+02  0.34785149349E+02  0.00000000000E+00 0. -1.
<scales pt_clust_5="13000.00000" pt_clust_6="13000.00000" pt_clust_7="13000.00000" pt_clust_8="13000.00000" pt_clust_9="30.18333"></scales>
<clustering>
<clus scale="   30.183">  2  9  1 -1</clus>
<clus scale="   86.496">  7  8 -1 -1</clus>
<clus scale="   87.021">  2  7  1 -1</clus>
<clus scale="   89.794">  5  6 -1 -1</clus>
<clus scale="   90.300">  1  5  2 -1</clus>
</clustering>
</event>
<event>
 9    1  0.1266593E-005  0.1052464E+03  0.7546771E-02  0.1271153E+00
          1   -1    0    0  502    0  0.00000000000E+00  0.00000000000E+00  0.13465188497E+03  0.13465188497E+03  0.00000000000E+00 0. -1.
         -1   -1    0    0    0  501 -0.00000000000E+00 -0.00000000000E+00 -0.26020527395E+03  0.26020527395E+03  0.00000000000E+00 0.  1.
         23    2    1    2    0    0  0.51388407304E+02  0.45553537652E+02 -0.16992523615E+03  0.20448568081E+03  0.90685801412E+02 0.  0.
         23    2    1    2    0    0 -0.45426523409E+02 -0.48187275897E+01  0.83294381604E+02  0.13371609445E+03  0.94102341862E+02 0.  0.
        -13    1    4    4    0    0 -0.17680773744E+01  0.34192802402E+02  0.30379733136E+01  0.34372999804E+02  0.00000000000E+00 0. -1.
         13    1    4    4    0    0 -0.43658446035E+02 -0.39011529991E+02  0.80256408290E+02  0.99343094647E+02  0.00000000000E+00 0.  1.
        -13    1    3    3    0    0  0.68504780680E+02  0.34720349390E+02 -0.74728428782E+02  0.10715757419E+03  0.00000000000E+00 0. -1.
         13    1    3    3    0    0 -0.17116373376E+02  0.10833188263E+02 -0.95196807364E+02  0.97328106618E+02  0.00000000000E+00 0.  1.
         21    1    1    2  502  501 -0.59618838945E+01 -0.40734810063E+02 -0.38922534443E+02  0.56655383662E+02  0.00000000000E+00 0.  1.
<scales pt_clust_5="13000.00000" pt_clust_6="13000.00000" pt_clust_7="13000.00000" pt_clust_8="13000.00000" pt_clust_9="41.16878"></scales>
<clustering>
<clus scale="   41.169">  2  9  1 -1</clus>
<clus scale="   90.686">  7  8 -1 -1</clus>
<clus scale="   94.102">  5  6 -1 -1</clus>
<clus scale="  102.203">  2  7  1 -1</clus>
<clus scale="  105.246">  1  5  2 -1</clus>
</clustering>
</event>
<event>
 9    1  0.1266593E-005  0.1076272E+03  0.7546771E-02  0.1271584E+00
          3   -1    0    0  502    0  0.00000000000E+00  0.00000000000E+00  0.39594169494E+02  0.39594169494E+02  0.00000000000E+00 0. -1.
         -3   -1    0    0    0  501 -0.00000000000E+00 -0.00000000000E+00 -0.46237726422E+03  0.46237726422E+03  0.00000000000E+00 0.  1.
         23    2    1    2    0    0 -0.37336869615E+02  0.10085930689E+02 -0.33143407830E+03  0.34991550013E+03  0.10534012122E+03 0.  0.
         23    2    1    2    0    0  0.17969661694E+02 -0.30958368838E+01 -0.51365543724E+02  0.10708229416E+03  0.92172152482E+02 0.  0.
        -13    1    3    3    0    0 -0.69491100625E+02  0.27259984544E+02 -0.24469835509E+03  0.25583081286E+03  0.00000000000E+00 0.  1.
         13    1    3    3    0    0  0.32154231010E+02 -0.17174053854E+02 -0.86735723212E+02  0.94084687270E+02  0.00000000000E+00 0. -1.
        -13    1    4    4    0    0 -0.29136442543E+02 -0.27904087462E+02 -0.17432389964E+02  0.43948362893E+02  0.00000000000E+00 0.  1.
         13    1    4    4    0    0  0.47106104237E+02  0.24808250578E+02 -0.33933153760E+02  0.63133931267E+02  0.00000000000E+00 0. -1.
         21    1    1    2  502  501  0.19367207921E+02 -0.69900938057E+01 -0.39983472698E+02  0.44973639424E+02  0.00000000000E+00 0. -1.
<scales pt_clust_5="13000.00000" pt_clust_6="13000.00000" pt_clust_7="13000.00000" pt_clust_8="13000.00000" pt_clust_9="20.59005"></scales>
<clustering>
<clus scale="   20.590">  2  9  1 -1</clus>
<clus scale="   92.172">  7  8 -1 -1</clus>
<clus scale="   94.778">  1  7  2 -1</clus>
<clus scale="  105.340">  5  6 -1 -1</clus>
<clus scale="   94.778">  1  5  2 -1</clus>
</clustering>
</event>
<event>
 9    1  0.1266593E-005  0.1369322E+03  0.7546771E-02  0.1218424E+00
         -1   -1    0    0    0  501 -0.00000000000E+00  0.00000000000E+00  0.20091532813E+03  0.20091532813E+03  0.00000000000E+00 0.  1.
          1   -1    0    0  502    0  0.00000000000E+00 -0.00000000000E+00 -0.54870554019E+03  0.54870554019E+03  0.00000000000E+00 0. -1.
         23    2    1    2    0    0 -0.95463624718E+02  0.70701117522E+02 -0.16807581612E+03  0.22490137486E+03  0.90659785929E+02 0.  0.
         23    2    1    2    0    0  0.85206574258E+02 -0.44687153811E+02 -0.33905250778E+03  0.36294629642E+03  0.86696649535E+02 0.  0.
        -11    1    4    4    0    0  0.20189946090E+02  0.25317651876E+02 -0.63120325531E+02  0.70942180081E+02  0.00000000000E+00 0.  1.
         11    1    4    4    0    0  0.65016628168E+02 -0.70004805687E+02 -0.27593218225E+03  0.29200411634E+03  0.00000000000E+00 0. -1.
        -13    1    3    3    0    0 -0.20537891616E+02 -0.42559340319E+01  0.53586983915E+01  0.21647947130E+02  0.00000000000E+00 0. -1.
         13    1    3    3    0    0 -0.74925733102E+02  0.74957051554E+02 -0.17343451451E+03  0.20325342772E+03  0.00000000000E+00 0.  1.
         21    1    1    2  502  501  0.10257050460E+02 -0.26013963711E+02  0.15933811185E+03  0.16177319704E+03  0.00000000000E+00 0.  1.
<scales pt_clust_5="13000.00000" pt_clust_6="13000.00000" pt_clust_7="13000.00000" pt_clust_8="13000.00000" pt_clust_9="27.96307"></scales>
<clustering>
<clus scale="   27.963">  1  9  2 -1</clus>
<clus scale="   86.697">  5  6 -1 -1</clus>
<clus scale="   90.660">  7  8 -1 -1</clus>
<clus scale="  134.341">  2  5  1 -1</clus>
<clus scale="  134.341">  2  5  1 -1</clus>
</clustering>
</event>
<event>
 9    1  0.1266593E-005  0.1196730E+03  0.7546771E-02  0.1244502E+00
         -4   -1    0    0    0  501 -0.00000000000E+00  0.00000000000E+00  0.26895929311E+02  0.26895929311E+02  0.00000000000E+00 0.  1.
          4   -1    0    0  502    0  0.00000000000E+00 -0.00000000000E+00 -0.66637956176E+03  0.66637956176E+03  0.00000000000E+00 0. -1.
         23    2    1    2    0    0  0.69766113413E+02  0.30207971231E+02 -0.26828659590E+03  0.29390232787E+03  0.92849602496E+02 0.  0.
         23    2    1    2    0    0 -0.77227131523E+02 -0.37592587949E+01 -0.31877299681E+03  0.34018295181E+03  0.90166819510E+02 0.  0.
        -11    1    3    3    0    0  0.90491084369E+02  0.12860231340E+02 -0.18512192364E+03  0.20645616608E+03  0.00000000000E+00 0.  1.
         11    1    3    3    0    0 -0.20724970956E+02  0.17347739891E+02 -0.83164672258E+02  0.87446161792E+02  0.00000000000E+00 0. -1.
        -13    1    4    4    0    0  0.10773148271E+02  0.19178559186E+02 -0.28524453286E+02  0.36021136731E+02  0.00000000000E+00 0.  1.
         13    1    4    4    0    0 -0.88000279794E+02 -0.22937817981E+02 -0.29024854352E+03  0.30416181508E+03  0.00000000000E+00 0. -1.
         21    1    1    2  502  501  0.74610181105E+01 -0.26448712436E+02 -0.52424039740E+02  0.59190211382E+02  0.00000000000E+00 0. -1.
<scales pt_clust_5="13000.00000" pt_clust_6="13000.00000" pt_clust_7="13000.00000" pt_clust_8="13000.00000" pt_clust_9="27.48092"></scales>
<clustering>
<clus scale="   27.481">  1  9  2 -1</clus>
<clus scale="   90.167">  7  8 -1 -1</clus>
<clus scale="   92.850">  5  6 -1 -1</clus>
<clus scale="  117.604">  2  7  1 -1</clus>
<clus scale="  117.604">  2  5  1 -1</clus>
</clustering>
</event>
<event>
 9    1  0.1266593E-005  0.1419202E+03  0.7546771E-02  0.1227309E+00
         -3   -1    0    0    0  501 -0.00000000000E+00  0.00000000000E+00  0.19898776282E+03  0.19898776282E+03  0.00000000000E+00 0.  1.
          3   -1    0    0  502    0  0.00000000000E+00 -0.00000000000E+00 -0.16158212901E+03  0.16158212901E+03  0.00000000000E+00 0. -1.
         23    2    1    2    0    0 -0.93877879980E+02 -0.30058277641E+02  0.61580533608E+01  0.13623392898E+03  0.93836055856E+02 0.  0.
         23    2    1    2    0    0 -0.30119590681E+01 -0.25480789463E+02 -0.18775566489E+02  0.10196544305E+03  0.96881820538E+02 0.  0.
        -13    1    3    3    0    0 -0.45662159646E+01 -0.32736059600E+02  0.29040862336E+02  0.43998541016E+02  0.00000000000E+00 0.  1.
         13    1    3    3    0    0 -0.89311664015E+02  0.26777819595E+01 -0.22882808975E+02  0.92235387959E+02  0.00000000000E+00 0. -1.
        -13    1    4    4    0    0 -0.32863692622E+02  0.18579578923E+00  0.26318837524E+02  0.42103895561E+02  0.00000000000E+00 0. -1.
         13    1    4    4    0    0  0.29851733554E+02 -0.25666585252E+02 -0.45094404013E+02  0.59861547491E+02  0.00000000000E+00 0.  1.
         21    1    1    2  502  501  0.96889839048E+02  0.55539067104E+02  0.50023146940E+02  0.12237051980E+03  0.00000000000E+00 0.  1.
<scales pt_clust_5="13000.00000" pt_clust_6="13000.00000" pt_clust_7="13000.00000" pt_clust_8="13000.00000" pt_clust_9="106.47128"></scales>
<clustering>
<clus scale="   93.836">  5  6 -1 -1</clus>
<clus scale="   96.882">  7  8 -1 -1</clus>
<clus scale="  100.222">  2  7  1 -1</clus>
<clus scale="  106.471">  1  9  2 -1</clus>
<clus scale="  100.222">  2  5  1 -1</clus>
</clustering>
</event>
<event>
 9    1  0.1266593E-005  0.2098040E+03  0.7546771E-02  0.1142533E+00
          1   -1    0    0  502    0  0.00000000000E+00  0.00000000000E+00  0.81221670129E+02  0.81221670129E+02  0.00000000000E+00 0. -1.
         -1   -1    0    0    0  501 -0.00000000000E+00 -0.00000000000E+00 -0.11648377890E+04  0.11648377890E+04  0.00000000000E+00 0.  1.
         23    2    1    2    0    0 -0.11658072127E+03 -0.11336553834E+03 -0.85165485276E+03  0.87188731273E+03  0.91807886487E+02 0.  0.
         23    2    1    2    0    0  0.13130856104E+03  0.13484132497E+03 -0.92973741367E+02  0.23276616806E+03  0.10055770128E+03 0.  0.
        -11    1    4    4    0    0  0.22306330716E+02 -0.15753616312E+02 -0.15155963795E+02  0.31232227834E+02  0.00000000000E+00 0.  1.
         11    1    4    4    0    0  0.10900223032E+03  0.15059494128E+03 -0.77817777572E+02  0.20153394022E+03  0.00000000000E+00 0. -1.
        -11    1    3    3    0    0 -0.72099248641E+02 -0.85758763562E+01 -0.35571702806E+03  0.36305158224E+03  0.00000000000E+00 0.  1.
         11    1    3    3    0    0 -0.44481472628E+02 -0.10478966199E+03 -0.49593782470E+03  0.50883573050E+03  0.00000000000E+00 0. -1.
         21    1    1    2  502  501 -0.14727839771E+02 -0.21475786630E+02 -0.13898752477E+03  0.14140597836E+03  0.00000000000E+00 0. -1.
<scales pt_clust_5="13000.00000" pt_clust_6="13000.00000" pt_clust_7="13000.00000" pt_clust_8="13000.00000" pt_clust_9="26.04071"></scales>
<clustering>
<clus scale="   26.041">  2  9  1 -1</clus>
<clus scale="   91.808">  7  8 -1 -1</clus>
<clus scale="  100.558">  5  6 -1 -1</clus>
<clus scale="  205.754">  2  7  1 -1</clus>
<clus scale="  209.804">  1  5  2 -1</clus>
</clustering>
</event>
<event>
 9    1  0.1266593E-005  0.1138129E+03  0.7546771E-02  0.1253971E+00
          2   -1    0    0  502    0  0.00000000000E+00  0.00000000000E+00  0.40734967409E+02  0.40734967409E+02  0.00000000000E+00 0. -1.
         -2   -1    0    0    0  501 -0.00000000000E+00 -0.00000000000E+00 -0.45080193670E+03  0.45080193670E+03  0.00000000000E+00 0.  1.
         23    2    1    2    0    0  0.12915180222E+02  0.54717401997E+02 -0.15364623386E+03  0.18686954946E+03  0.90289907373E+02 0.  0.
         23    2    1    2    0    0 -0.24864176904E+02 -0.77942961128E+02 -0.13920634217E+03  0.18457814154E+03  0.89427915950E+02 0.  0.
        -11    1    3    3    0    0 -0.11395984917E+02  0.64253646139E+02 -0.56637266938E+02  0.86407057122E+02  0.00000000000E+00 0.  1.
         11    1    3    3    0    0  0.24311165139E+02 -0.95362441420E+01 -0.97008966923E+02  0.10046249234E+03  0.00000000000E+00 0. -1.
        -11    1    4    4    0    0 -0.89486690341E+01 -0.39913504186E+02 -0.13734928183E+03  0.14331082204E+03  0.00000000000E+00 0.  1.
         11    1    4    4    0    0 -0.15915507870E+02 -0.38029456942E+02 -0.18570603449E+01  0.41267319506E+02  0.00000000000E+00 0. -1.
         21    1    1    2  502  501  0.11948996682E+02  0.23225559132E+02 -0.11721439326E+03  0.12008921311E+03  0.00000000000E+00 0.  1.
<scales pt_clust_5="13000.00000" pt_clust_6="13000.00000" pt_clust_7="13000.00000" pt_clust_8="13000.00000" pt_clust_9="26.11906"></scales>
<clustering>
<clus scale="   26.119">  2  9  1 -1</clus>
<clus scale="   89.428">  7  8 -1 -1</clus>
<clus scale="   90.290">  5  6 -1 -1</clus>
<clus scale="  113.130">  1  7  2 -1</clus>
<clus scale="  113.130">  1  5  2 -1</clus>
</clustering>
</event>
<event>
 9    1  0.1594037E-005  0.1011267E+03  0.7546771E-02  0.1279669E+00
         -1   -1    0    0    0  501 -0.00000000000E+00  0.00000000000E+00  0.56701863970E+02  0.56701863970E+02  0.00000000000E+00 0.  1.
          1   -1    0    0  502    0  0.00000000000E+00 -0.00000000000E+00 -0.55810020489E+03  0.55810020489E+03  0.00000000000E+00 0. -1.
         23    2    1    2    0    0  0.90466405173E+01  0.20426055263E+02 -0.69581248352E+01  0.92013871355E+02  0.88989165533E+02 0.  0.
         23    2    1    2    0    0 -0.15158411425E+02 -0.40209398241E+02 -0.49136815835E+03  0.50185564053E+03  0.92573450531E+02 0.  0.
        -11    1    4    4    0    0 -0.52496636544E+02 -0.10263571773E+02 -0.22969668802E+03  0.23584275745E+03  0.00000000000E+00 0.  1.
         11    1    4    4    0    0  0.37338225119E+02 -0.29945826468E+02 -0.26167147033E+03  0.26601288308E+03  0.00000000000E+00 0. -1.
        -13    1    3    3    0    0  0.24095252034E+02  0.42678525239E+02  0.20929480482E+02  0.53292408845E+02  0.00000000000E+00 0.  1.
         13    1    3    3    0    0 -0.15048611517E+02 -0.22252469976E+02 -0.27887605317E+02  0.38721462511E+02  0.00000000000E+00 0. -1.
         21    1    1    2  502  501  0.61117709080E+01  0.19783342978E+02 -0.30720577360E+01  0.20932556981E+02  0.00000000000E+00 0.  1.
<scales pt_clust_5="13000.00000" pt_clust_6="13000.00000" pt_clust_7="13000.00000" pt_clust_8="13000.00000" pt_clust_9="20.70590"></scales>
<clustering>
<clus scale="   20.706">  1  9  2 -1</clus>
<clus scale="   88.989">  7  8 -1 -1</clus>
<clus scale="   92.573">  5  6 -1 -1</clus>
<clus scale="   97.856">  1  7  2 -1</clus>
<clus scale="  101.127">  2  5  1 -1</clus>
</clustering>
</event>
<event>
 9    1  0.1266593E-005  0.1055842E+03  0.7546771E-02  0.1269328E+00
         -2   -1    0    0    0  501 -0.00000000000E+00  0.00000000000E+00  0.29730194854E+03  0.29730194854E+03  0.00000000000E+00 0.  1.
          2   -1    0    0  502    0  0.00000000000E+00 -0.00000000000E+00 -0.93735216987E+02  0.93735216987E+02  0.00000000000E+00 0. -1.
         23    2    1    2    0    0  0.42706781780E+02  0.24651602679E+02  0.61902379620E+02  0.12098828643E+03  0.91513333049E+02 0.  0.
         23    2    1    2    0    0 -0.53052701418E+02 -0.65246910437E+01 -0.18707984890E+02  0.10832408385E+03  0.92341527621E+02 0.  0.
        -13    1    3    3    0    0 -0.23867004263E+02  0.12619218461E+02  0.42951482245E+02  0.50731729658E+02  0.00000000000E+00 0.  1.
         13    1    3    3    0    0  0.66573786043E+02  0.12032384217E+02  0.18950897375E+02  0.70256556771E+02  0.00000000000E+00 0. -1.
        -13    1    4    4    0    0  0.16461335818E+02  0.24985232969E+02 -0.97961252094E+01  0.31483352943E+02  0.00000000000E+00 0. -1.
         13    1    4    4    0    0 -0.69514037236E+02 -0.31509924013E+02 -0.89118596806E+01  0.76840730912E+02  0.00000000000E+00 0.  1.
         21    1    1    2  502  501  0.10345919637E+02 -0.18126911635E+02  0.16037233682E+03  0.16172479524E+03  0.00000000000E+00 0. -1.
<scales pt_clust_5="13000.00000" pt_clust_6="13000.00000" pt_clust_7="13000.00000" pt_clust_8="13000.00000" pt_clust_9="20.87158"></scales>
<clustering>
<clus scale="   20.872">  1  9  2 -1</clus>
<clus scale="   91.513">  5  6 -1 -1</clus>
<clus scale="   92.342">  7  8 -1 -1</clus>
<clus scale="  104.861">  1  5  2 -1</clus>
<clus scale="  105.584">  2  5  1 -1</clus>
</clustering>
</event>
<event>
 9    1  0.1266593E-005  0.3798061E+03  0.7546771E-02  0.1101574E+00
          1   -1    0    0  502    0  0.00000000000E+00  0.00000000000E+00  0.32218074657E+03  0.32218074657E+03  0.00000000000E+00 0. -1.
         -1   -1    0    0    0  501 -0.00000000000E+00 -0.00000000000E+00 -0.13285717696E+04  0.13285717696E+04  0.00000000000E+00 0.  1.
         23    2    1    2    0    0  0.12862789744E+02 -0.37924433959E+02 -0.14305343957E+03  0.17242668834E+03  0.87538347175E+02 0.  0.
         23    2    1    2    0    0  0.31304778890E+03 -0.18596314560E+03  0.13859567721E+03  0.40119370390E+03  0.95741405110E+02 0.  0.
        -13    1    3    3    0    0 -0.11116577190E+02  0.21626670629E+02 -0.13434516690E+02  0.27780882088E+02  0.00000000000E+00 0.  1.
         13    1    3    3    0    0  0.23979366934E+02 -0.59551104588E+02 -0.12961892288E+03  0.14464580625E+03  0.00000000000E+00 0. -1.
        -13    1    4    4    0    0  0.52035236540E+02 -0.28459972974E+01 -0.32714473017E+01  0.52215590678E+02  0.00000000000E+00 0.  1.
         13    1    4    4    0    0  0.26101255236E+03 -0.18311714830E+03  0.14186712452E+03  0.34897811322E+03  0.00000000000E+00 0. -1.
         21    1    1    2  502  501 -0.32591057864E+03  0.22388757956E+03 -0.10019332607E+04  0.10771321240E+04  0.00000000000E+00 0.  1.
<scales pt_clust_5="13000.00000" pt_clust_6="13000.00000" pt_clust_7="13000.00000" pt_clust_8="13000.00000" pt_clust_9="367.54083"></scales>
<clustering>
<clus scale="   87.538">  5  6 -1 -1</clus>
<clus scale="   95.741">  7  8 -1 -1</clus>
<clus scale="   96.264">  2  5  1 -1</clus>
<clus scale="  367.541">  2  9  1 -1</clus>
<clus scale="  379.806">  1  5  2 -1</clus>
</clustering>
</event>
<event>
 9    1  0.1266593E-005  0.9354830E+02  0.7546771E-02  0.1294582E+00
          2   -1    0    0  502    0  0.00000000000E+00  0.00000000000E+00  0.71931679333E+02  0.71931679333E+02  0.00000000000E+00 0. -1.
         -2   -1    0    0    0  501 -0.00000000000E+00 -0.00000000000E+00 -0.24908339990E+03  0.24908339990E+03  0.00000000000E+00 0.  1.
         23    2    1    2    0    0  0.22528653152E+02  0.20278899575E+02 -0.15970632547E+03  0.18644762160E+03  0.91311725548E+02 0.  0.
         23    2    1    2    0    0  0.53467972867E+01 -0.20346584090E+02  0.11679091462E+02  0.94252683230E+02  0.91129552798E+02 0.  0.
        -11    1    3    3    0    0 -0.21411297152E+02 -0.90794725688E+01 -0.11470087712E+03  0.11703491650E+03  0.00000000000E+00 0.  1.
         11    1    3    3    0    0  0.43939950304E+02  0.29358372144E+02 -0.45005448355E+02  0.69412705100E+02  0.00000000000E+00 0. -1.
        -13    1    4    4    0    0 -0.22601376459E+02  0.25026802059E+01 -0.30941275111E+02  0.38398543352E+02  0.00000000000E+00 0.  1.
         13    1    4    4    0    0  0.27948173746E+02 -0.22849264296E+02  0.42620366573E+02  0.55854139877E+02  0.00000000000E+00 0. -1.
         21    1    1    2  502  501 -0.27875450439E+02  0.67684515167E-01 -0.29124486559E+02  0.40314774410E+02  0.00000000000E+00 0.  1.
<scales pt_clust_5="13000.00000" pt_clust_6="13000.00000" pt_clust_7="13000.00000" pt_clust_8="13000.00000" pt_clust_9="27.87553"></scales>
<clustering>
<clus scale="   27.876">  2  9  1 -1</clus>
<clus scale="   91.130">  7  8 -1 -1</clus>
<clus scale="   91.312">  5  6 -1 -1</clus>
<clus scale="   93.370">  1  7  2 -1</clus>
<clus scale="   93.370">  1  5  2 -1</clus>
</clustering>
</event>
<event>
 9    1  0.1266593E-005  0.1432104E+03  0.7546771E-02  0.1209296E+00
          1   -1    0    0  502    0  0.00000000000E+00  0.00000000000E+00  0.40266002712E+03  0.40266002712E+03  0.00000000000E+00 0. -1.
         -1   -1    0    0    0  501 -0.00000000000E+00 -0.00000000000E+00 -0.98628537845E+02  0.98628537845E+02  0.00000000000E+00 0.  1.
         23    2    1    2    0    0  0.62521234648E+02 -0.73249227801E+02  0.47939938698E+02  0.13716667518E+03  0.85100557583E+02 0.  0.
         23    2    1    2    0    0 -0.72996297965E+02  0.98939197115E+02  0.28655232362E+03  0.32292043145E+03  0.83952049609E+02 0.  0.
        -13    1    4    4    0    0 -0.78668381026E+02  0.52900366759E+02  0.13901478809E+03  0.16826251598E+03  0.00000000000E+00 0.  1.
         13    1    4    4    0    0  0.56720830610E+01  0.46038830355E+02  0.14753753554E+03  0.15465791547E+03  0.00000000000E+00 0. -1.
        -13    1    3    3    0    0 -0.11974644776E+02 -0.20377629613E+02 -0.13363967263E+02  0.27152081452E+02  0.00000000000E+00 0.  1.
         13    1    3    3    0    0  0.74495879424E+02 -0.52871598189E+02  0.61303905961E+02  0.11001459372E+03  0.00000000000E+00 0. -1.
         21    1    1    2  502  501  0.10475063317E+02 -0.25689969313E+02 -0.30460773044E+02  0.41201458339E+02  0.00000000000E+00 0. -1.
<scales pt_clust_5="13000.00000" pt_clust_6="13000.00000" pt_clust_7="13000.00000" pt_clust_8="13000.00000" pt_clust_9="27.74349"></scales>
<clustering>
<clus scale="   27.743">  2  9  1 -1</clus>
<clus scale="   83.952">  5  6 -1 -1</clus>
<clus scale="   85.101">  7  8 -1 -1</clus>
<clus scale="  142.531">  1  5  2 -1</clus>
<clus scale="  142.531">  1  5  2 -1</clus>
</clustering>
</event>
<event>
 9    1  0.1266593E-005  0.1878626E+03  0.7546771E-02  0.1160865E+00
         -1   -1    0    0    0  501 -0.00000000000E+00  0.00000000000E+00  0.37370741914E+03  0.37370741914E+03  0.00000000000E+00 0.  1.
          1   -1    0    0  502    0  0.00000000000E+00 -0.00000000000E+00 -0.33342413799E+03  0.33342413799E+03  0.00000000000E+00 0. -1.
         23    2    1    2    0    0 -0.19186439113E+03 -0.31546199898E+02  0.28662305799E+03  0.35823068845E+03  0.91484105001E+02 0.  0.
         23    2    1    2    0    0  0.15975197457E+03  0.22341757162E+02 -0.25526535020E+03  0.31432349280E+03  0.87286949896E+02 0.  0.
        -11    1    4    4    0    0  0.13587707363E+03  0.44937330308E+01 -0.24924671193E+03  0.28391318424E+03  0.00000000000E+00 0. -1.
         11    1    4    4    0    0  0.23874900940E+02  0.17848024131E+02 -0.60186382654E+01  0.30410308562E+02  0.00000000000E+00 0.  1.
        -13    1    3    3    0    0 -0.96079794007E+02 -0.52138213962E+02  0.19775431342E+03  0.22595682917E+03  0.00000000000E+00 0.  1.
         13    1    3    3    0    0 -0.95784597119E+02  0.20592014064E+02  0.88868744565E+02  0.13227385928E+03  0.00000000000E+00 0. -1.
         21    1    1    2  502  501  0.32112416552E+02  0.92044427364E+01  0.89255733679E+01  0.34577375882E+02  0.00000000000E+00 0.  1.
<scales pt_clust_5="13000.00000" pt_clust_6="13000.00000" pt_clust_7="13000.00000" pt_clust_8="13000.00000" pt_clust_9="33.40552"></scales>
<clustering>
<clus scale="   33.406">  1  9  2 -1</clus>
<clus scale="   87.287">  5  6 -1 -1</clus>
<clus scale="   91.484">  7  8 -1 -1</clus>
<clus scale="  185.855">  2  5  1 -1</clus>
<clus scale="  185.855">  2  5  1 -1</clus>
</clustering>
</event>
<event>
 9    1  0.1266593E-005  0.3189189E+03  0.7546771E-02  0.1076319E+00
          1   -1    0    0  502    0  0.00000000000E+00  0.00000000000E+00  0.23519271934E+04  0.23519271934E+04  0.00000000000E+00 0. -1.
         -1   -1    0    0    0  501 -0.00000000000E+00 -0.00000000000E+00 -0.58640130443E+02  0.58640130443E+02  0.00000000000E+00 0.  1.
         23    2    1    2    0    0 -0.27088467435E+03 -0.86071780640E+02  0.59366320592E+03  0.66462014818E+03  0.92179613190E+02 0.  0.
         23    2    1    2    0    0  0.30354417736E+03  0.75220741858E+02  0.16658384271E+04  0.16977201765E+04  0.97154025001E+02 0.  0.
        -13    1    3    3    0    0 -0.19244783344E+03 -0.95710895374E+02  0.37658636815E+03  0.43360585416E+03  0.00000000000E+00 0.  1.
         13    1    3    3    0    0 -0.78436840908E+02  0.96391147344E+01  0.21707683777E+03  0.23101429402E+03  0.00000000000E+00 0. -1.
        -13    1    4    4    0    0  0.23827675386E+03  0.98688661056E+02  0.12876103397E+04  0.13131853068E+04  0.00000000000E+00 0. -1.
         13    1    4    4    0    0  0.65267423501E+02 -0.23467919198E+02  0.37822808746E+03  0.38453486961E+03  0.00000000000E+00 0.  1.
         21    1    1    2  502  501 -0.32659503014E+02  0.10851038782E+02  0.33785429911E+02  0.48226999223E+02  0.00000000000E+00 0.  1.
<scales pt_clust_5="13000.00000" pt_clust_6="13000.00000" pt_clust_7="13000.00000" pt_clust_8="13000.00000" pt_clust_9="34.41494"></scales>
<clustering>
<clus scale="   34.415">  2  9  1 -1</clus>
<clus scale="   92.180">  5  6 -1 -1</clus>
<clus scale="   97.154">  7  8 -1 -1</clus>
<clus scale="  317.439">  2  5  1 -1</clus>
<clus scale="  318.919">  1  5  2 -1</clus>
</clustering>
</event>
<event>
 9    1  0.1266593E-005  0.1086692E+03  0.7546771E-02  0.1268509E+00
          1   -1    0    0  502    0  0.00000000000E+00  0.00000000000E+00  0.59594201427E+02  0.59594201427E+02  0.00000000000E+00 0. -1.
         -1   -1    0    0    0  501 -0.00000000000E+00 -0.00000000000E+00 -0.43786133579E+03  0.43786133579E+03  0.00000000000E+00 0.  1.
         23    2    1    2    0    0  0.34334362659E+02  0.35839324831E+02 -0.28475810530E+03  0.30279622548E+03  0.90194622715E+02 0.  0.
         23    2    1    2    0    0 -0.37786142316E+02  0.87949971036E+00 -0.17447540913E+02  0.11012803446E+03  0.10195685960E+03 0.  0.
        -13    1    4    4    0    0  0.69845259672E+01 -0.44390739628E+02 -0.45633288994E+01  0.45167968056E+02  0.00000000000E+00 0. -1.
         13    1    4    4    0    0 -0.44770668283E+02  0.45270239338E+02 -0.12884212014E+02  0.64960066406E+02  0.00000000000E+00 0.  1.
        -13    1    3    3    0    0 -0.28270174255E+01  0.50050749271E+02 -0.81520152858E+02  0.95700600061E+02  0.00000000000E+00 0.  1.
         13    1    3    3    0    0  0.37161380084E+02 -0.14211424440E+02 -0.20323795244E+03  0.20709562542E+03  0.00000000000E+00 0. -1.
         21    1    1    2  502  501  0.34517796570E+01 -0.36718824541E+02 -0.76061488156E+02  0.84531277282E+02  0.00000000000E+00 0. -1.
<scales pt_clust_5="13000.00000" pt_clust_6="13000.00000" pt_clust_7="13000.00000" pt_clust_8="13000.00000" pt_clust_9="36.88071"></scales>
<clustering>
<clus scale="   36.881">  2  9  1 -1</clus>
<clus scale="   90.195">  7  8 -1 -1</clus>
<clus scale="   97.718">  2  7  1 -1</clus>
<clus scale="  101.957">  5  6 -1 -1</clus>
<clus scale="  108.669">  1  5  2 -1</clus>
</clustering>
</event>
<event>
 9    1  0.1266593E-005  0.1043785E+03  0.7546771E-02  0.1271379E+00
          1   -1    0    0  502    0  0.00000000000E+00  0.00000000000E+00  0.45695665187E+03  0.45695665187E+03  0.00000000000E+00 0. -1.
         -1   -1    0    0    0  501 -0.00000000000E+00 -0.00000000000E+00 -0.14232414808E+03  0.14232414808E+03  0.00000000000E+00 0.  1.
         23    2    1    2    0    0 -0.23085703459E+02 -0.77151021681E+00 -0.24599624239E+02  0.97521765371E+02  0.91497586177E+02 0.  0.
         23    2    1    2    0    0  0.53090189717E+02  0.35587557159E+01  0.41074933969E+03  0.42415265921E+03  0.91428798948E+02 0.  0.
        -13    1    3    3    0    0  0.20985303058E+02  0.12531784129E+02 -0.41764118518E+02  0.48390806498E+02  0.00000000000E+00 0. -1.
         13    1    3    3    0    0 -0.44071006518E+02 -0.13303294346E+02  0.17164494280E+02  0.49130958873E+02  0.00000000000E+00 0.  1.
        -13    1    4    4    0    0  0.50210451551E+02 -0.37673861181E+02  0.20948129093E+03  0.21868429416E+03  0.00000000000E+00 0. -1.
         13    1    4    4    0    0  0.28797381660E+01  0.41232616897E+02  0.20126804876E+03  0.20546836506E+03  0.00000000000E+00 0.  1.
         21    1    1    2  502  501 -0.30004486258E+02 -0.27872454991E+01 -0.71517211666E+02  0.77606375366E+02  0.00000000000E+00 0.  1.
<scales pt_clust_5="13000.00000" pt_clust_6="13000.00000" pt_clust_7="13000.00000" pt_clust_8="13000.00000" pt_clust_9="30.13367"></scales>
<clustering>
<clus scale="   30.134">  2  9  1 -1</clus>
<clus scale="   91.429">  7  8 -1 -1</clus>
<clus scale="   91.498">  5  6 -1 -1</clus>
<clus scale="  104.318">  1  7  2 -1</clus>
<clus scale="  104.318">  1  5  2 -1</clus>
</clustering>
</event>
<event>
 9    1  0.1266593E-005  0.1011352E+03  0.7546771E-02  0.1278570E+00
         -2   -1    0    0    0  501 -0.00000000000E+00  0.00000000000E+00  0.24679501495E+03  0.24679501495E+03  0.00000000000E+00 0.  1.
          2   -1    0    0  502    0  0.00000000000E+00 -0.00000000000E+00 -0.19545420975E+03  0.19545420975E+03  0.00000000000E+00 0. -1.
         23    2    1    2    0    0  0.33219169524E+02  0.10643588821E+02  0.19062778203E+03  0.21398589644E+03  0.90742566562E+02 0.  0.
         23    2    1    2    0    0 -0.15373562187E+02 -0.40390754884E+02 -0.15870180359E+03  0.18851040273E+03  0.92098588366E+02 0.  0.
        -13    1    3    3    0    0 -0.24086759258E+02  0.28117113732E+02  0.65024507899E+02  0.74826002724E+02  0.00000000000E+00 0.  1.
         13    1    3    3    0    0  0.57305928782E+02 -0.17473524911E+02  0.12560327413E+03  0.13915989372E+03  0.00000000000E+00 0. -1.
        -13    1    4    4    0    0  0.87276939557E+01 -0.27878726728E+02 -0.15868839351E+03  0.16135489544E+03  0.00000000000E+00 0. -1.
         13    1    4    4    0    0 -0.24101256143E+02 -0.12512028156E+02 -0.13410076083E-01  0.27155507288E+02  0.00000000000E+00 0.  1.
         21    1    1    2  502  501 -0.17845607336E+02  0.29747166063E+02  0.19414826758E+02  0.39752925528E+02  0.00000000000E+00 0. -1.
<scales pt_clust_5="13000.00000" pt_clust_6="13000.00000" pt_clust_7="13000.00000" pt_clust_8="13000.00000" pt_clust_9="34.68947"></scales>
<clustering>
<clus scale="   34.689">  1  9  2 -1</clus>
<clus scale="   90.743">  5  6 -1 -1</clus>
<clus scale="   92.099">  7  8 -1 -1</clus>
<clus scale="   99.902">  1  5  2 -1</clus>
<clus scale="  101.135">  2  5  1 -1</clus>
</clustering>
</event>
<event>
 9    1  0.1266593E-005  0.1150424E+03  0.7546771E-02  0.1252372E+00
          1   -1    0    0  502    0  0.00000000000E+00  0.00000000000E+00  0.26523587675E+03  0.26523587675E+03  0.00000000000E+00 0. -1.
         -1   -1    0    0    0  501 -0.00000000000E+00 -0.00000000000E+00 -0.78097002559E+02  0.78097002559E+02  0.00000000000E+00 0.  1.
         23    2    1    2    0    0  0.51588119975E+02  0.47793431209E+02  0.21094704490E+02  0.11447654321E+03  0.87831350889E+02 0.  0.
         23    2    1    2    0    0 -0.27432343515E+02 -0.74379372698E+02  0.13981129172E+03  0.18437625394E+03  0.90347004221E+02 0.  0.
        -11    1    4    4    0    0 -0.56084946427E+02 -0.61103989559E+02  0.12368025886E+03  0.14891616832E+03  0.00000000000E+00 0. -1.
         11    1    4    4    0    0  0.28652602913E+02 -0.13275383139E+02  0.16131032862E+02  0.35460085622E+02  0.00000000000E+00 0.  1.
        -11    1    3    3    0    0  0.61142014725E+02  0.25411993791E+02 -0.17829531526E+02  0.68571186278E+02  0.00000000000E+00 0.  1.
         11    1    3    3    0    0 -0.95538947503E+01  0.22381437418E+02  0.38924236016E+02  0.45905356934E+02  0.00000000000E+00 0. -1.
         21    1    1    2  502  501 -0.24155776461E+02  0.26585941489E+02  0.26232877976E+02  0.44480082151E+02  0.00000000000E+00 0.  1.
<scales pt_clust_5="13000.00000" pt_clust_6="13000.00000" pt_clust_7="13000.00000" pt_clust_8="13000.00000" pt_clust_9="35.92094"></scales>
<clustering>
<clus scale="   35.921">  1  9  2 -1</clus>
<clus scale="   87.831">  7  8 -1 -1</clus>
<clus scale="   90.347">  5  6 -1 -1</clus>
<clus scale="  113.078">  2  7  1 -1</clus>
<clus scale="   35.921">  1  5  2 -1</clus>
</clustering>
</event>
<event>
 9    1  0.1266593E-005  0.1116657E+03  0.7546771E-02  0.1257715E+00
         -1   -1    0    0    0  501 -0.00000000000E+00  0.00000000000E+00  0.14046767389E+03  0.14046767389E+03  0.00000000000E+00 0.  1.
          1   -1    0    0  502    0  0.00000000000E+00 -0.00000000000E+00 -0.15256767728E+03  0.15256767728E+03  0.00000000000E+00 0. -1.
         23    2    1    2    0    0  0.21663528112E+02  0.35720073992E+02  0.29639731908E+02  0.10487479219E+03  0.91514896019E+02 0.  0.
         23    2    1    2    0    0 -0.48349522904E+02 -0.57077408764E+02 -0.75672302705E+02  0.13999732406E+03  0.90980472577E+02 0.  0.
        -11    1    3    3    0    0 -0.35399746715E+02  0.20763451142E+02  0.67121403265E+01  0.41585042968E+02  0.00000000000E+00 0. -1.
         11    1    3    3    0    0  0.57063274828E+02  0.14956622849E+02  0.22927591582E+02  0.63289749224E+02  0.00000000000E+00 0.  1.
        -11    1    4    4    0    0 -0.67755566919E+02 -0.33478698273E+02 -0.78922093727E+02  0.10927184891E+03  0.00000000000E+00 0. -1.
         11    1    4    4    0    0  0.19406044015E+02 -0.23598710492E+02  0.32497910223E+01  0.30725475145E+02  0.00000000000E+00 0.  1.
         21    1    1    2  502  501  0.26685994791E+02  0.21357334772E+02  0.33932567405E+02  0.48163234913E+02  0.00000000000E+00 0.  1.
<scales pt_clust_5="13000.00000" pt_clust_6="13000.00000" pt_clust_7="13000.00000" pt_clust_8="13000.00000" pt_clust_9="34.18008"></scales>
<clustering>
<clus scale="   34.180">  1  9  2 -1</clus>
<clus scale="   90.980">  7  8 -1 -1</clus>
<clus scale="   91.515">  5  6 -1 -1</clus>
<clus scale="  111.228">  2  7  1 -1</clus>
<clus scale="  111.228">  2  5  1 -1</clus>
</clustering>
</event>
<event>
 9    1  0.1266593E-005  0.2369793E+03  0.7546771E-02  0.1122166E+00
          2   -1    0    0  502    0  0.00000000000E+00  0.00000000000E+00  0.90407446653E+03  0.90407446653E+03  0.00000000000E+00 0. -1.
         -2   -1    0    0    0  501 -0.00000000000E+00 -0.00000000000E+00 -0.73901563975E+02  0.73901563975E+02  0.00000000000E+00 0.  1.
         23    2    1    2    0    0  0.12302431745E+03  0.17360925320E+03  0.26352361232E+03  0.35060490650E+03  0.90575663039E+02 0.  0.
         23    2    1    2    0    0 -0.10789521108E+03 -0.19117367730E+03  0.54646067430E+03  0.59663061218E+03  0.95708240834E+02 0.  0.
        -11    1    4    4    0    0 -0.55968174600E+02 -0.16389385272E+03  0.33412147468E+03  0.37633866579E+03  0.00000000000E+00 0.  1.
         11    1    4    4    0    0 -0.51927036483E+02 -0.27279824579E+02  0.21233919962E+03  0.22029194638E+03  0.00000000000E+00 0. -1.
        -11    1    3    3    0    0  0.98900291392E+02  0.98695538966E+02  0.10905734355E+03  0.17724441100E+03  0.00000000000E+00 0. -1.
         11    1    3    3    0    0  0.24124026060E+02  0.74913714229E+02  0.15446626877E+03  0.17336049550E+03  0.00000000000E+00 0.  1.
         21    1    1    2  502  501 -0.15129106369E+02  0.17564424105E+02  0.20188615932E+02  0.30740511820E+02  0.00000000000E+00 0.  1.
<scales pt_clust_5="13000.00000" pt_clust_6="13000.00000" pt_clust_7="13000.00000" pt_clust_8="13000.00000" pt_clust_9="23.18186"></scales>
<clustering>
<clus scale="   23.182">  2  9  1 -1</clus>
<clus scale="   90.576">  7  8 -1 -1</clus>
<clus scale="   95.708">  5  6 -1 -1</clus>
<clus scale="  234.953">  2  7  1 -1</clus>
<clus scale="  236.979">  1  5  2 -1</clus>
</clustering>
</event>
<event>
 9    1  0.1266593E-005  0.2563682E+03  0.7546771E-02  0.1109352E+00
          2   -1    0    0  502    0  0.00000000000E+00  0.00000000000E+00  0.39574951801E+03  0.39574951801E+03  0.00000000000E+00 0. -1.
         -2   -1    0    0    0  501 -0.00000000000E+00 -0.00000000000E+00 -0.18735572053E+03  0.18735572053E+03  0.00000000000E+00 0.  1.
         23    2    1    2    0    0  0.21816265148E+03 -0.86920028067E+02  0.79236869017E+02  0.26421623804E+03  0.91551653456E+02 0.  0.
         23    2    1    2    0    0 -0.21634747549E+03  0.11624649192E+03  0.11480221308E+03  0.28618740727E+03  0.91674461642E+02 0.  0.
        -13    1    3    3    0    0  0.19164464040E+03 -0.41158046187E+02  0.78973422618E+02  0.21132547040E+03  0.00000000000E+00 0.  1.
         13    1    3    3    0    0  0.26518011082E+02 -0.45761981880E+02  0.26344639953E+00  0.52890767638E+02  0.00000000000E+00 0. -1.
        -13    1    4    4    0    0 -0.76311038188E+02  0.29091623686E+01  0.80744280231E+01  0.76792149097E+02  0.00000000000E+00 0.  1.
         13    1    4    4    0    0 -0.14003643730E+03  0.11333732955E+03  0.10672778506E+03  0.20939525817E+03  0.00000000000E+00 0. -1.
         21    1    1    2  502  501 -0.18151759902E+01 -0.29326463854E+02  0.14354715386E+02  0.32701593232E+02  0.00000000000E+00 0. -1.
<scales pt_clust_5="13000.00000" pt_clust_6="13000.00000" pt_clust_7="13000.00000" pt_clust_8="13000.00000" pt_clust_9="29.38259"></scales>
<clustering>
<clus scale="   29.383">  1  9  2 -1</clus>
<clus scale="   91.552">  5  6 -1 -1</clus>
<clus scale="   91.674">  7  8 -1 -1</clus>
<clus scale="  256.324">  2  5  1 -1</clus>
<clus scale="   29.383">  1  5  2 -1</clus>
</clustering>
</event>
<event>
 9    1  0.1266593E-005  0.1271701E+03  0.7546771E-02  0.1232573E+00
          2   -1    0    0  502    0  0.00000000000E+00  0.00000000000E+00  0.70101159225E+02  0.70101159225E+02  0.00000000000E+00 0.  1.
         -2   -1    0    0    0  501 -0.00000000000E+00 -0.00000000000E+00 -0.32773523210E+03  0.32773523210E+03  0.00000000000E+00 0. -1.
         23    2    1    2    0    0 -0.94801954718E+02 -0.45833017427E+02 -0.11886505522E+03  0.17939573502E+03  0.83461681531E+02 0.  0.
         23    2    1    2    0    0  0.60136891354E+02  0.62224841456E+02 -0.73922663195E+02  0.14310535118E+03  0.86753701971E+02 0.  0.
        -13    1    3    3    0    0  0.47376067600E+01 -0.27091391800E+02 -0.49516233928E+02  0.56641379308E+02  0.00000000000E+00 0. -1.
         13    1    3    3    0    0 -0.99539561478E+02 -0.18741625627E+02 -0.69348821295E+02  0.12275435571E+03  0.00000000000E+00 0.  1.
        -13    1    4    4    0    0  0.41280331288E+02  0.30639001406E+02 -0.89454712725E+02  0.10317441440E+03  0.00000000000E+00 0.  1.
         13    1    4    4    0    0  0.18856560066E+02  0.31585840050E+02  0.15532049529E+02  0.39930936776E+02  0.00000000000E+00 0. -1.
         21    1    1    2  502  501  0.34665063364E+02 -0.16391824029E+02 -0.64846354455E+02  0.75335305131E+02  0.00000000000E+00 0.  1.
<scales pt_clust_5="13000.00000" pt_clust_6="13000.00000" pt_clust_7="13000.00000" pt_clust_8="13000.00000" pt_clust_9="38.34525"></scales>
<clustering>
<clus scale="   38.345">  2  9  1 -1</clus>
<clus scale="   83.462">  5  6 -1 -1</clus>
<clus scale="   86.754">  7  8 -1 -1</clus>
<clus scale="  124.948">  2  5  1 -1</clus>
<clus scale="  127.170">  1  5  2 -1</clus>
</clustering>
</event>
<event>
 9    1  0.1266593E-005  0.1039898E+03  0.7546771E-02  0.1272677E+00
         -3   -1    0    0    0  501 -0.00000000000E+00  0.00000000000E+00  0.22074260628E+03  0.22074260628E+03  0.00000000000E+00 0.  1.
          3   -1    0    0  502    0  0.00000000000E+00 -0.00000000000E+00 -0.14159363026E+03  0.14159363026E+03  0.00000000000E+00 0. -1.
         23    2    1    2    0    0 -0.63838566052E+01 -0.46600045268E+02  0.17767510673E+02  0.10410443952E+03  0.91157731700E+02 0.  0.
         23    2    1    2    0    0  0.72353248694E+02 -0.79796640941E+01 -0.41178953609E+02  0.12462960802E+03  0.92402193371E+02 0.  0.
        -11    1    3    3    0    0  0.38406139519E+02 -0.13700300608E+01  0.17742493119E+01  0.38471502384E+02  0.00000000000E+00 0.  1.
         11    1    3    3    0    0 -0.44789996124E+02 -0.45230015207E+02  0.15993261361E+02  0.65632937138E+02  0.00000000000E+00 0. -1.
        -13    1    4    4    0    0 -0.53580305380E+01  0.27731279548E+02  0.29396729888E+01  0.28396725760E+02  0.00000000000E+00 0.  1.
         13    1    4    4    0    0  0.77711279232E+02 -0.35710943642E+02 -0.44118626597E+02  0.96232882262E+02  0.00000000000E+00 0. -1.
         21    1    1    2  502  501 -0.65969392089E+02  0.54579709362E+02  0.10256041896E+03  0.13360218899E+03  0.00000000000E+00 0. -1.
<scales pt_clust_5="13000.00000" pt_clust_6="13000.00000" pt_clust_7="13000.00000" pt_clust_8="13000.00000" pt_clust_9="85.62071"></scales>
<clustering>
<clus scale="   85.621">  1  9  2 -1</clus>
<clus scale="   91.158">  5  6 -1 -1</clus>
<clus scale="   92.402">  7  8 -1 -1</clus>
<clus scale="  102.886">  1  5  2 -1</clus>
<clus scale="  103.990">  2  5  1 -1</clus>
</clustering>
</event>
<event>
 9    1  0.1266593E-005  0.1060317E+03  0.7546771E-02  0.1269851E+00
         -1   -1    0    0    0  501 -0.00000000000E+00  0.00000000000E+00  0.29290661792E+02  0.29290661792E+02  0.00000000000E+00 0.  1.
          1   -1    0    0  502    0  0.00000000000E+00 -0.00000000000E+00 -0.71086312827E+03  0.71086312827E+03  0.00000000000E+00 0. -1.
         23    2    1    2    0    0 -0.29588087437E+02  0.59369704244E+02 -0.16508643457E+03  0.20159855081E+03  0.94806266191E+02 0.  0.
         23    2    1    2    0    0  0.17191472448E+02 -0.38697100612E+02 -0.49851465462E+03  0.50848859651E+03  0.90833802027E+02 0.  0.
        -11    1    4    4    0    0  0.52084602651E+02 -0.60540499491E+01 -0.25936750888E+03  0.26461474263E+03  0.00000000000E+00 0.  1.
         11    1    4    4    0    0 -0.34893130202E+02 -0.32643050663E+02 -0.23914714574E+03  0.24387385388E+03  0.00000000000E+00 0. -1.
        -11    1    3    3    0    0  0.21694691848E+02 -0.10357592960E+02 -0.14982109696E+02  0.28326718787E+02  0.00000000000E+00 0.  1.
         11    1    3    3    0    0 -0.51282779285E+02  0.69727297203E+02 -0.15010432487E+03  0.17327183202E+03  0.00000000000E+00 0. -1.
         21    1    1    2  502  501  0.12396614989E+02 -0.20672603632E+02 -0.17971377289E+02  0.30066642742E+02  0.00000000000E+00 0.  1.
<scales pt_clust_5="13000.00000" pt_clust_6="13000.00000" pt_clust_7="13000.00000" pt_clust_8="13000.00000" pt_clust_9="24.10462"></scales>
<clustering>
<clus scale="   24.105">  1  9  2 -1</clus>
<clus scale="   90.834">  5  6 -1 -1</clus>
<clus scale="   94.806">  7  8 -1 -1</clus>
<clus scale="  102.495">  2  5  1 -1</clus>
<clus scale="  102.495">  2  5  1 -1</clus>
</clustering>
</event>
<event>
 9    1  0.1266593E-005  0.1574164E+03  0.7546771E-02  0.1214684E+00
         -2   -1    0    0    0  501 -0.00000000000E+00  0.00000000000E+00  0.80952788032E+02  0.80952788032E+02  0.00000000000E+00 0.  1.
          2   -1    0    0  502    0  0.00000000000E+00 -0.00000000000E+00 -0.46656625436E+03  0.46656625436E+03  0.00000000000E+00 0. -1.
         23    2    1    2    0    0  0.98620803758E+02  0.96698624246E+02 -0.11121932793E+03  0.19957493307E+03  0.91562700595E+02 0.  0.
         23    2    1    2    0    0  0.13147308980E+01 -0.33997216845E+02 -0.11415060635E+03  0.14895524747E+03  0.89441408467E+02 0.  0.
        -13    1    3    3    0    0  0.36376773978E+02  0.86293062253E+02 -0.97112621099E+02  0.13490968629E+03  0.00000000000E+00 0. -1.
         13    1    3    3    0    0  0.62244029781E+02  0.10405561993E+02 -0.14106706830E+02  0.64665246782E+02  0.00000000000E+00 0.  1.
        -13    1    4    4    0    0  0.61590881846E+01  0.20702812086E+02  0.74348909589E+00  0.21612347665E+02  0.00000000000E+00 0.  1.
         13    1    4    4    0    0 -0.48443572865E+01 -0.54700028931E+02 -0.11489409545E+03  0.12734289981E+03  0.00000000000E+00 0. -1.
         21    1    1    2  502  501 -0.99935534656E+02 -0.62701407401E+02 -0.16024353204E+03  0.19898886184E+03  0.00000000000E+00 0. -1.
<scales pt_clust_5="13000.00000" pt_clust_6="13000.00000" pt_clust_7="13000.00000" pt_clust_8="13000.00000" pt_clust_9="128.04767"></scales>
<clustering>
<clus scale="   89.441">  7  8 -1 -1</clus>
<clus scale="   91.563">  5  6 -1 -1</clus>
<clus scale="   95.694">  2  7  1 -1</clus>
<clus scale="  128.048">  2  9  1 -1</clus>
<clus scale="   95.694">  2  5  1 -1</clus>
</clustering>
</event>
<event>
 9    1  0.1266593E-005  0.1275214E+03  0.7546771E-02  0.1231994E+00
          2   -1    0    0  502    0  0.00000000000E+00  0.00000000000E+00  0.26115609616E+03  0.26115609616E+03  0.00000000000E+00 0. -1.
         -2   -1    0    0    0  501 -0.00000000000E+00 -0.00000000000E+00 -0.11853985556E+03  0.11853985556E+03  0.00000000000E+00 0.  1.
         23    2    1    2    0    0  0.89986730043E+02  0.26047772254E+02  0.24259214171E+02  0.13264400609E+03  0.90718382135E+02 0.  0.
         23    2    1    2    0    0 -0.48194616122E+02 -0.77523034910E+02  0.12438803508E+03  0.18047374711E+03  0.93626108329E+02 0.  0.
        -11    1    3    3    0    0 -0.17059197464E+02  0.15096851180E+02  0.51681291556E+01  0.23358953158E+02  0.00000000000E+00 0. -1.
         11    1    3    3    0    0  0.10704592751E+03  0.10950921074E+02  0.19091085015E+02  0.10928505294E+03  0.00000000000E+00 0.  1.
        -13    1    4    4    0    0 -0.71772839221E+02 -0.31543515904E+02  0.83899458436E+02  0.11482792766E+03  0.00000000000E+00 0. -1.
         13    1    4    4    0    0  0.23578223099E+02 -0.45979519006E+02  0.40488576641E+02  0.65645819448E+02  0.00000000000E+00 0.  1.
         21    1    1    2  502  501 -0.41792113922E+02  0.51475262657E+02 -0.60310086486E+01  0.66578198511E+02  0.00000000000E+00 0.  1.
<scales pt_clust_5="13000.00000" pt_clust_6="13000.00000" pt_clust_7="13000.00000" pt_clust_8="13000.00000" pt_clust_9="66.30448"></scales>
<clustering>
<clus scale="   66.304">  2  9  1 -1</clus>
<clus scale="   90.718">  5  6 -1 -1</clus>
<clus scale="   93.626">  7  8 -1 -1</clus>
<clus scale="  125.402">  2  5  1 -1</clus>
<clus scale="  127.521">  1  5  2 -1</clus>
</clustering>
</event>
<event>
 9    1  0.1274659E-005  0.9360243E+02  0.7546771E-02  0.1296179E+00
         -1   -1    0    0    0  501 -0.00000000000E+00  0.00000000000E+00  0.29498675858E+03  0.29498675858E+03  0.00000000000E+00 0.  1.
          1   -1    0    0  502    0  0.00000000000E+00 -0.00000000000E+00 -0.12801100890E+03  0.12801100890E+03  0.00000000000E+00 0. -1.
         23    2    1    2    0    0 -0.34778014777E+02 -0.34075216705E+02  0.21703555884E+03  0.24089550842E+03  0.92496386262E+02 0.  0.
         23    2    1    2    0    0  0.10761658908E+02  0.46837080307E+01 -0.89754088866E+02  0.12718157103E+03  0.89339829406E+02 0.  0.
        -11    1    4    4    0    0 -0.39340214052E+02  0.69351806524E+01 -0.40647159807E+02  0.56990707775E+02  0.00000000000E+00 0. -1.
         11    1    4    4    0    0  0.50101872960E+02 -0.22514726217E+01 -0.49106929059E+02  0.70190863256E+02  0.00000000000E+00 0.  1.
        -13    1    3    3    0    0  0.31914885700E+02 -0.92625534053E+01  0.74952795074E+02  0.81989489047E+02  0.00000000000E+00 0.  1.
         13    1    3    3    0    0 -0.66692900477E+02 -0.24812663300E+02  0.14208276376E+03  0.15890601937E+03  0.00000000000E+00 0. -1.
         21    1    1    2  502  501  0.24016355869E+02  0.29391508674E+02  0.39694279718E+02  0.54920688030E+02  0.00000000000E+00 0.  1.
<scales pt_clust_5="13000.00000" pt_clust_6="13000.00000" pt_clust_7="13000.00000" pt_clust_8="13000.00000" pt_clust_9="37.95584"></scales>
<clustering>
<clus scale="   37.956">  1  9  2 -1</clus>
<clus scale="   89.340">  5  6 -1 -1</clus>
<clus scale="   90.484">  2  5  1 -1</clus>
<clus scale="   92.496">  7  8 -1 -1</clus>
<clus scale="   90.484">  2  5  1 -1</clus>
</clustering>
</event>
<event>
 9    1  0.1266593E-005  0.9546097E+02  0.7546771E-02  0.1292894E+00
         -1   -1    0    0    0  501 -0.00000000000E+00  0.00000000000E+00  0.42652370789E+02  0.42652370789E+02  0.00000000000E+00 0.  1.
          1   -1    0    0  502    0  0.00000000000E+00 -0.00000000000E+00 -0.52164308279E+03  0.52164308279E+03  0.00000000000E+00 0. -1.
         23    2    1    2    0    0  0.14380498230E+02  0.11249598142E+02 -0.15653865385E+03  0.18178035501E+03  0.90589155709E+02 0.  0.
         23    2    1    2    0    0  0.10740327088E+02  0.11469862139E+02 -0.33323271333E+03  0.34697002483E+03  0.95379476486E+02 0.  0.
        -13    1    3    3    0    0 -0.14744754989E+02  0.40619194316E+02 -0.11632323704E+03  0.12409037925E+03  0.00000000000E+00 0. -1.
         13    1    3    3    0    0  0.29125253220E+02 -0.29369596174E+02 -0.40215416807E+02  0.57689975763E+02  0.00000000000E+00 0.  1.
        -13    1    4    4    0    0  0.43122025861E+02 -0.20954326198E+02 -0.12801657552E+03  0.13669980435E+03  0.00000000000E+00 0.  1.
         13    1    4    4    0    0 -0.32381698773E+02  0.32424188337E+02 -0.20521613781E+03  0.21027022049E+03  0.00000000000E+00 0. -1.
         21    1    1    2  502  501 -0.25120825318E+02 -0.22719460280E+02  0.10780655185E+02  0.35545073728E+02  0.00000000000E+00 0.  1.
<scales pt_clust_5="13000.00000" pt_clust_6="13000.00000" pt_clust_7="13000.00000" pt_clust_8="13000.00000" pt_clust_9="33.87078"></scales>
<clustering>
<clus scale="   33.871">  1  9  2 -1</clus>
<clus scale="   90.589">  5  6 -1 -1</clus>
<clus scale="   90.675">  1  5  2 -1</clus>
<clus scale="   95.379">  7  8 -1 -1</clus>
<clus scale="   95.461">  2  5  1 -1</clus>
</clustering>
</event>
<event>
 9    1  0.1266593E-005  0.1384810E+03  0.7546771E-02  0.1215408E+00
         -2   -1    0    0    0  501 -0.00000000000E+00  0.00000000000E+00  0.79146791473E+03  0.79146791473E+03  0.00000000000E+00 0.  1.
          2   -1    0    0  502    0  0.00000000000E+00 -0.00000000000E+00 -0.40174505110E+02  0.40174505110E+02  0.00000000000E+00 0. -1.
         23    2    1    2    0    0 -0.71194549135E+02  0.10008370512E+03  0.46883140557E+03  0.49350942813E+03  0.93076618678E+02 0.  0.
         23    2    1    2    0    0  0.67077516925E+02 -0.68084400994E+02  0.14560020262E+03  0.19751984115E+03  0.93165389018E+02 0.  0.
        -11    1    3    3    0    0 -0.43337929876E+02  0.88874326833E+01  0.26259387676E+03  0.26629439862E+03  0.00000000000E+00 0.  1.
         11    1    3    3    0    0 -0.27856619258E+02  0.91196272441E+02  0.20623752881E+03  0.22721502951E+03  0.00000000000E+00 0. -1.
        -13    1    4    4    0    0  0.62776941583E+01  0.22274549658E+02  0.15510360205E+02  0.27859222532E+02  0.00000000000E+00 0.  1.
         13    1    4    4    0    0  0.60799822767E+02 -0.90358950652E+02  0.13008984241E+03  0.16966061862E+03  0.00000000000E+00 0. -1.
         21    1    1    2  502  501  0.41170322096E+01 -0.31999304130E+02  0.13686180143E+03  0.14061315055E+03  0.00000000000E+00 0. -1.
<scales pt_clust_5="13000.00000" pt_clust_6="13000.00000" pt_clust_7="13000.00000" pt_clust_8="13000.00000" pt_clust_9="32.26307"></scales>
<clustering>
<clus scale="   32.263">  1  9  2 -1</clus>
<clus scale="   93.077">  5  6 -1 -1</clus>
<clus scale="   93.165">  7  8 -1 -1</clus>
<clus scale="  138.421">  1  5  2 -1</clus>
<clus scale="  138.481">  2  5  1 -1</clus>
</clustering>
</event>
<event>
 9    1  0.1266593E-005  0.9902792E+02  0.7546771E-02  0.1284345E+00
          1   -1    0    0  502    0  0.00000000000E+00  0.00000000000E+00  0.64829840732E+02  0.64829840732E+02  0.00000000000E+00 0. -1.
         -1   -1    0    0    0  501 -0.00000000000E+00 -0.00000000000E+00 -0.34715457567E+03  0.34715457567E+03  0.00000000000E+00 0.  1.
         23    2    1    2    0    0  0.70355000904E+01 -0.44326533976E+02 -0.73474131627E+02  0.12495303540E+03  0.90556463942E+02 0.  0.
         23    2    1    2    0    0 -0.41451443328E+02 -0.93201049475E+01 -0.48197048948E+02  0.11419624700E+03  0.94407313227E+02 0.  0.
        -11    1    3    3    0    0 -0.34836981132E+02 -0.47141626156E+02 -0.36734132206E+02  0.69176185497E+02  0.00000000000E+00 0.  1.
         11    1    3    3    0    0  0.41872481222E+02  0.28150921793E+01 -0.36739999421E+02  0.55776849904E+02  0.00000000000E+00 0. -1.
        -13    1    4    4    0    0 -0.68672701137E+02 -0.19015316308E+02 -0.46830043897E+02  0.85267667654E+02  0.00000000000E+00 0.  1.
         13    1    4    4    0    0  0.27221257808E+02  0.96952113610E+01 -0.13670050509E+01  0.28928579343E+02  0.00000000000E+00 0. -1.
         21    1    1    2  502  501  0.34415943238E+02  0.53646638924E+02 -0.16065355436E+03  0.17283513400E+03  0.00000000000E+00 0. -1.
<scales pt_clust_5="13000.00000" pt_clust_6="13000.00000" pt_clust_7="13000.00000" pt_clust_8="13000.00000" pt_clust_9="63.73711"></scales>
<clustering>
<clus scale="   63.737">  2  9  1 -1</clus>
<clus scale="   90.556">  5  6 -1 -1</clus>
<clus scale="   94.407">  7  8 -1 -1</clus>
<clus scale="   95.364">  2  5  1 -1</clus>
<clus scale="   99.028">  1  5  2 -1</clus>
</clustering>
</event>
<event>
 9    1  0.1266593E-005  0.9556068E+02  0.7546771E-02  0.1290418E+00
         -1   -1    0    0    0  501 -0.00000000000E+00  0.00000000000E+00  0.27836444087E+03  0.27836444087E+03  0.00000000000E+00 0.  1.
          1   -1    0    0  502    0  0.00000000000E+00 -0.00000000000E+00 -0.63297648691E+02  0.63297648691E+02  0.00000000000E+00 0. -1.
         23    2    1    2    0    0 -0.26625880286E+02  0.47316358804E+00  0.20195094660E+03  0.22339381682E+03  0.91713963904E+02 0.  0.
         23    2    1    2    0    0  0.90181330185E+01 -0.11981648002E+02  0.69599715602E+00  0.93840202573E+02  0.92631596094E+02 0.  0.
        -11    1    3    3    0    0  0.26295056737E+02 -0.20720466559E+02  0.42779188455E+02  0.54321512388E+02  0.00000000000E+00 0. -1.
         11    1    3    3    0    0 -0.52920937023E+02  0.21193630147E+02  0.15917175815E+03  0.16907230443E+03  0.00000000000E+00 0.  1.
        -13    1    4    4    0    0 -0.64771319490E+01 -0.51016382090E+02  0.47627127453E+01  0.51645986412E+02  0.00000000000E+00 0. -1.
         13    1    4    4    0    0  0.15495264967E+02  0.39034734087E+02 -0.40667155893E+01  0.42194216160E+02  0.00000000000E+00 0.  1.
         21    1    1    2  502  501  0.17607747268E+02  0.11508484414E+02  0.12419848420E+02  0.24428070168E+02  0.00000000000E+00 0.  1.
<scales pt_clust_5="13000.00000" pt_clust_6="13000.00000" pt_clust_7="13000.00000" pt_clust_8="13000.00000" pt_clust_9="21.03516"></scales>
<clustering>
<clus scale="   21.035">  2  9  1 -1</clus>
<clus scale="   91.714">  5  6 -1 -1</clus>
<clus scale="   92.632">  7  8 -1 -1</clus>
<clus scale="   94.671">  1  5  2 -1</clus>
<clus scale="   21.035">  2  5  1 -1</clus>
</clustering>
</event>
<event>
 9    1  0.1266593E-005  0.1203077E+03  0.7546771E-02  0.1244129E+00
         -1   -1    0    0    0  501 -0.00000000000E+00  0.00000000000E+00  0.12712109165E+03  0.12712109165E+03  0.00000000000E+00 0.  1.
          1   -1    0    0  502    0  0.00000000000E+00 -0.00000000000E+00 -0.24121359377E+03  0.24121359377E+03  0.00000000000E+00 0. -1.
         23    2    1    2    0    0  0.19021458713E+02 -0.18566737165E+02  0.33062221008E+01  0.95961959998E+02  0.92147854242E+02 0.  0.
         23    2    1    2    0    0 -0.82443464428E+02  0.50725449496E+02 -0.14190861683E+03  0.19715791024E+03  0.96763577797E+02 0.  0.
        -11    1    3    3    0    0 -0.15572347763E+02  0.25362740365E+02 -0.19492760502E+02  0.35577160169E+02  0.00000000000E+00 0. -1.
         11    1    3    3    0    0  0.34593806477E+02 -0.43929477530E+02  0.22798982603E+02  0.60384799829E+02  0.00000000000E+00 0.  1.
        -13    1    4    4    0    0 -0.99226569415E+02  0.21499827598E+02 -0.92487180660E+02  0.13733911770E+03  0.00000000000E+00 0. -1.
         13    1    4    4    0    0  0.16783104986E+02  0.29225621898E+02 -0.49421436166E+02  0.59818792541E+02  0.00000000000E+00 0.  1.
         21    1    1    2  502  501  0.63422005715E+02 -0.32158712331E+02  0.24509892598E+02  0.75214815182E+02  0.00000000000E+00 0.  1.
<scales pt_clust_5="13000.00000" pt_clust_6="13000.00000" pt_clust_7="13000.00000" pt_clust_8="13000.00000" pt_clust_9="71.10931"></scales>
<clustering>
<clus scale="   71.109">  1  9  2 -1</clus>
<clus scale="   92.148">  5  6 -1 -1</clus>
<clus scale="   96.764">  7  8 -1 -1</clus>
<clus scale="  116.628">  1  5  2 -1</clus>
<clus scale="  120.308">  2  5  1 -1</clus>
</clustering>
</event>
<event>
 9    1  0.1266593E-005  0.1386539E+03  0.7546771E-02  0.1216601E+00
         -1   -1    0    0    0  501 -0.00000000000E+00  0.00000000000E+00  0.43124255127E+02  0.43124255127E+02  0.00000000000E+00 0.  1.
          1   -1    0    0  502    0  0.00000000000E+00 -0.00000000000E+00 -0.10000255972E+04  0.10000255972E+04  0.00000000000E+00 0. -1.
         23    2    1    2    0    0 -0.10469449481E+03  0.10425888356E+03 -0.46891908329E+03  0.49978550608E+03  0.89830915442E+02 0.  0.
         23    2    1    2    0    0 -0.45927431726E+01 -0.78192000907E+02 -0.29672559405E+03  0.32154844383E+03  0.95980421294E+02 0.  0.
        -13    1    3    3    0    0 -0.12126189921E+03  0.90873133889E+02 -0.40580996588E+03  0.43317906582E+03  0.00000000000E+00 0. -1.
         13    1    3    3    0    0  0.16567404402E+02  0.13385749670E+02 -0.63109117411E+02  0.66606440254E+02  0.00000000000E+00 0.  1.
        -13    1    4    4    0    0  0.35729208215E+02 -0.58809788501E+02 -0.11173191186E+03  0.13122190240E+03  0.00000000000E+00 0.  1.
         13    1    4    4    0    0 -0.40321951388E+02 -0.19382212407E+02 -0.18499368219E+03  0.19032654143E+03  0.00000000000E+00 0. -1.
         21    1    1    2  502  501  0.10928723798E+03 -0.26066882651E+02 -0.19125666471E+03  0.22181590239E+03  0.00000000000E+00 0.  1.
<scales pt_clust_5="13000.00000" pt_clust_6="13000.00000" pt_clust_7="13000.00000" pt_clust_8="13000.00000" pt_clust_9="112.35294"></scales>
<clustering>
<clus scale="   89.831">  5  6 -1 -1</clus>
<clus scale="   95.980">  7  8 -1 -1</clus>
<clus scale="  112.353">  1  9  2 -1</clus>
<clus scale="  134.470">  1  5  2 -1</clus>
<clus scale="  138.654">  2  5  1 -1</clus>
</clustering>
</event>
<event>
 9    1  0.1266593E-005  0.1065644E+03  0.7546771E-02  0.1273081E+00
          1   -1    0    0  502    0  0.00000000000E+00  0.00000000000E+00  0.12705780719E+03  0.12705780719E+03  0.00000000000E+00 0. -1.
         -1   -1    0    0    0  501 -0.00000000000E+00 -0.00000000000E+00 -0.15722447820E+03  0.15722447820E+03  0.00000000000E+00 0.  1.
         23    2    1    2    0    0  0.30497153481E+02  0.34737630665E+02 -0.78620688264E+02  0.12991229317E+03  0.92516009095E+02 0.  0.
         23    2    1    2    0    0 -0.13452390105E+01 -0.14529292605E+02  0.53932544567E+02  0.11847813652E+03  0.10447698052E+03 0.  0.
        -11    1    3    3    0    0  0.56844518196E+02  0.33713477515E+02 -0.25934348136E+02  0.70996395882E+02  0.00000000000E+00 0.  1.
         11    1    3    3    0    0 -0.26347364715E+02  0.10241531495E+01 -0.52686340128E+02  0.58915897287E+02  0.00000000000E+00 0. -1.
        -13    1    4    4    0    0 -0.44632150669E+01 -0.51892975609E+02 -0.85261850794E+00  0.52091536401E+02  0.00000000000E+00 0.  1.
         13    1    4    4    0    0  0.31179760563E+01  0.37363683004E+02  0.54785163074E+02  0.66386600119E+02  0.00000000000E+00 0. -1.
         21    1    1    2  502  501 -0.29151914470E+02 -0.20208338060E+02 -0.54785273163E+01  0.35891855705E+02  0.00000000000E+00 0.  1.
<scales pt_clust_5="13000.00000" pt_clust_6="13000.00000" pt_clust_7="13000.00000" pt_clust_8="13000.00000" pt_clust_9="35.47127"></scales>
<clustering>
<clus scale="   35.471">  2  9  1 -1</clus>
<clus scale="   92.516">  5  6 -1 -1</clus>
<clus scale="   94.867">  2  5  1 -1</clus>
<clus scale="  104.477">  7  8 -1 -1</clus>
<clus scale="  106.564">  1  5  2 -1</clus>
</clustering>
</event>
<event>
 9    1  0.1266593E-005  0.1081662E+03  0.7546771E-02  0.1264224E+00
         -2   -1    0    0    0  501 -0.00000000000E+00  0.00000000000E+00  0.44282561673E+02  0.44282561673E+02  0.00000000000E+00 0.  1.
          2   -1    0    0  502    0  0.00000000000E+00 -0.00000000000E+00 -0.46417843031E+03  0.46417843031E+03  0.00000000000E+00 0. -1.
         23    2    1    2    0    0 -0.73924525590E+02 -0.32301310715E+02 -0.19647435419E+03  0.23086083768E+03  0.90478419319E+02 0.  0.
         23    2    1    2    0    0  0.37525965733E+02  0.26497943885E+02 -0.21812300267E+03  0.24036296250E+03  0.89924247632E+02 0.  0.
        -11    1    3    3    0    0 -0.11320621134E+02  0.19774444254E+02 -0.10897427482E+03  0.11133093766E+03  0.00000000000E+00 0.  1.
         11    1    3    3    0    0 -0.62603904456E+02 -0.52075754969E+02 -0.87500079378E+02  0.11952990002E+03  0.00000000000E+00 0. -1.
        -13    1    4    4    0    0 -0.66177115357E+01  0.42026292613E+02 -0.49032937347E+02  0.64917118865E+02  0.00000000000E+00 0.  1.
         13    1    4    4    0    0  0.44143677269E+02 -0.15528348728E+02 -0.16909006532E+03  0.17544584363E+03  0.00000000000E+00 0. -1.
         21    1    1    2  502  501  0.36398559856E+02  0.58033668299E+01 -0.52985117706E+01  0.37237191800E+02  0.00000000000E+00 0.  1.
<scales pt_clust_5="13000.00000" pt_clust_6="13000.00000" pt_clust_7="13000.00000" pt_clust_8="13000.00000" pt_clust_9="36.85830"></scales>
<clustering>
<clus scale="   36.858">  1  9  2 -1</clus>
<clus scale="   89.924">  7  8 -1 -1</clus>
<clus scale="   90.478">  5  6 -1 -1</clus>
<clus scale="  107.703">  2  7  1 -1</clus>
<clus scale="  107.703">  2  5  1 -1</clus>
</clustering>
</event>
<event>
 9    1  0.1266593E-005  0.1089467E+03  0.7546771E-02  0.1263706E+00
          2   -1    0    0  502    0  0.00000000000E+00  0.00000000000E+00  0.42444135546E+03  0.42444135546E+03  0.00000000000E+00 0. -1.
         -2   -1    0    0    0  501 -0.00000000000E+00 -0.00000000000E+00 -0.64461980872E+02  0.64461980872E+02  0.00000000000E+00 0.  1.
         23    2    1    2    0    0  0.20197546733E+02  0.28597299052E+02  0.14540980850E+02  0.10111377307E+03  0.93737978284E+02 0.  0.
         23    2    1    2    0    0 -0.25691918388E+02 -0.53733412221E+02  0.34537728781E+03  0.36205989091E+03  0.90854495832E+02 0.  0.
        -13    1    3    3    0    0 -0.24167251775E+02 -0.41826908266E+01  0.34606351975E+02  0.42416394919E+02  0.00000000000E+00 0. -1.
         13    1    3    3    0    0  0.44364798508E+02  0.32779989879E+02 -0.20065371125E+02  0.58697378149E+02  0.00000000000E+00 0.  1.
        -13    1    4    4    0    0 -0.56772908482E+02 -0.50971266332E+02  0.21986383370E+03  0.23272588704E+03  0.00000000000E+00 0. -1.
         13    1    4    4    0    0  0.31080990093E+02 -0.27621458891E+01  0.12551345411E+03  0.12933400388E+03  0.00000000000E+00 0.  1.
         21    1    1    2  502  501  0.54943716552E+01  0.25136113168E+02  0.61105920960E-01  0.25729672346E+02  0.00000000000E+00 0.  1.
<scales pt_clust_5="13000.00000" pt_clust_6="13000.00000" pt_clust_7="13000.00000" pt_clust_8="13000.00000" pt_clust_9="25.72960"></scales>
<clustering>
<clus scale="   25.730">  2  9  1 -1</clus>
<clus scale="   90.854">  7  8 -1 -1</clus>
<clus scale="   93.738">  5  6 -1 -1</clus>
<clus scale="  106.476">  1  7  2 -1</clus>
<clus scale="  106.476">  1  5  2 -1</clus>
</clustering>
</event>
<event>
 9    1  0.1266593E-005  0.1449934E+03  0.7546771E-02  0.1207416E+00
          1   -1    0    0  502    0  0.00000000000E+00  0.00000000000E+00  0.67951818966E+03  0.67951818966E+03  0.00000000000E+00 0. -1.
         -1   -1    0    0    0  501 -0.00000000000E+00 -0.00000000000E+00 -0.81513938657E+02  0.81513938657E+02  0.00000000000E+00 0.  1.
         23    2    1    2    0    0 -0.76995452509E+02  0.11268144132E+03  0.19415077846E+03  0.25388759681E+03  0.90216296264E+02 0.  0.
         23    2    1    2    0    0 -0.68983252534E+02 -0.10958932433E+03  0.23973680446E+03  0.28747745556E+03  0.91657203233E+02 0.  0.
        -11    1    4    4    0    0 -0.22685502394E+02 -0.95673679600E+02  0.20678385027E+03  0.22897084033E+03  0.00000000000E+00 0.  1.
         11    1    4    4    0    0 -0.46297750140E+02 -0.13915644731E+02  0.32952954194E+02  0.58506615236E+02  0.00000000000E+00 0. -1.
        -13    1    3    3    0    0 -0.20982735021E+02  0.25484387719E+02 -0.88874555519E+00  0.33023007965E+02  0.00000000000E+00 0.  1.
         13    1    3    3    0    0 -0.56012717488E+02  0.87197053601E+02  0.19503952401E+03  0.22086458884E+03  0.00000000000E+00 0. -1.
         21    1    1    2  502  501  0.14597870504E+03 -0.30921169894E+01  0.16411666808E+03  0.21966707595E+03  0.00000000000E+00 0. -1.
<scales pt_clust_5="13000.00000" pt_clust_6="13000.00000" pt_clust_7="13000.00000" pt_clust_8="13000.00000" pt_clust_9="146.01145"></scales>
<clustering>
<clus scale="   90.216">  7  8 -1 -1</clus>
<clus scale="   91.657">  5  6 -1 -1</clus>
<clus scale="  146.011">  2  9  1 -1</clus>
<clus scale="  146.011">  2  7  1 -1</clus>
<clus scale="  143.982">  1  5  2 -1</clus>
</clustering>
</event>
<event>
 9    1  0.1266593E-005  0.1079925E+03  0.7546771E-02  0.1264729E+00
          1   -1    0    0  502    0  0.00000000000E+00  0.00000000000E+00  0.24203775683E+03  0.24203775683E+03  0.00000000000E+00 0. -1.
         -1   -1    0    0    0  501 -0.00000000000E+00 -0.00000000000E+00 -0.82143345672E+02  0.82143345672E+02  0.00000000000E+00 0.  1.
         23    2    1    2    0    0  0.14477225199E+01  0.27773609527E+02  0.17151785435E+02  0.95882646390E+02  0.90143379394E+02 0.  0.
         23    2    1    2    0    0  0.92147236685E+01 -0.74483327732E+02  0.13571171155E+03  0.17987408944E+03  0.91128163365E+02 0.  0.
        -11    1    3    3    0    0 -0.27017612305E+01  0.60786270668E+02  0.14187505971E+02  0.62478440611E+02  0.00000000000E+00 0.  1.
         11    1    3    3    0    0  0.41494837503E+01 -0.33012661141E+02  0.29642794637E+01  0.33404205779E+02  0.00000000000E+00 0. -1.
        -13    1    4    4    0    0 -0.10012652781E+02  0.19596215987E+02  0.23881465393E+02  0.32474440504E+02  0.00000000000E+00 0.  1.
         13    1    4    4    0    0  0.19227376449E+02 -0.94079543719E+02  0.11183024616E+03  0.14739964894E+03  0.00000000000E+00 0. -1.
         21    1    1    2  502  501 -0.10662446188E+02  0.46709718205E+02  0.70309141754E+01  0.48424366673E+02  0.00000000000E+00 0.  1.
<scales pt_clust_5="13000.00000" pt_clust_6="13000.00000" pt_clust_7="13000.00000" pt_clust_8="13000.00000" pt_clust_9="47.91123"></scales>
<clustering>
<clus scale="   47.911">  2  9  1 -1</clus>
<clus scale="   90.143">  5  6 -1 -1</clus>
<clus scale="   91.128">  7  8 -1 -1</clus>
<clus scale="  107.163">  2  5  1 -1</clus>
<clus scale="  107.992">  1  5  2 -1</clus>
</clustering>
</event>
<event>
 9    1  0.1266593E-005  0.2032493E+03  0.7546771E-02  0.1147079E+00
          1   -1    0    0  502    0  0.00000000000E+00  0.00000000000E+00  0.10340215120E+04  0.10340215120E+04  0.00000000000E+00 0. -1.
         -1   -1    0    0    0  501 -0.00000000000E+00 -0.00000000000E+00 -0.91191705957E+02  0.91191705957E+02  0.00000000000E+00 0.  1.
         23    2    1    2    0    0 -0.76880826463E+02  0.12100779811E+03  0.25836042497E+03  0.31034808351E+03  0.94933003047E+02 0.  0.
         23    2    1    2    0    0  0.80010569086E+02 -0.18896749527E+03  0.70778175036E+03  0.74295002974E+03  0.94389274336E+02 0.  0.
        -11    1    3    3    0    0 -0.67195872676E+02  0.10111784600E+03  0.26120639009E+03  0.28804319521E+03  0.00000000000E+00 0.  1.
         11    1    3    3    0    0 -0.96849537867E+01  0.19889952110E+02 -0.28459651146E+01  0.22304888304E+02  0.00000000000E+00 0. -1.
        -11    1    4    4    0    0 -0.14569180643E+02 -0.46146598354E+02  0.23903630728E+03  0.24388547674E+03  0.00000000000E+00 0.  1.
         11    1    4    4    0    0  0.94579749729E+02 -0.14282089692E+03  0.46874544308E+03  0.49906455300E+03  0.00000000000E+00 0. -1.
         21    1    1    2  502  501 -0.31297426234E+01  0.67959697162E+02 -0.23312369267E+02  0.71915104729E+02  0.00000000000E+00 0.  1.
<scales pt_clust_5="13000.00000" pt_clust_6="13000.00000" pt_clust_7="13000.00000" pt_clust_8="13000.00000" pt_clust_9="68.03173"></scales>
<clustering>
<clus scale="   68.032">  2  9  1 -1</clus>
<clus scale="   94.389">  7  8 -1 -1</clus>
<clus scale="   94.933">  5  6 -1 -1</clus>
<clus scale="  202.996">  1  7  2 -1</clus>
<clus scale="  202.996">  1  5  2 -1</clus>
</clustering>
</event>
<event>
 9    1  0.1266593E-005  0.9425384E+02  0.7546771E-02  0.1293730E+00
          2   -1    0    0  502    0  0.00000000000E+00  0.00000000000E+00  0.23222704173E+03  0.23222704173E+03  0.00000000000E+00 0. -1.
         -2   -1    0    0    0  501 -0.00000000000E+00 -0.00000000000E+00 -0.52746705272E+02  0.52746705272E+02  0.00000000000E+00 0.  1.
         23    2    1    2    0    0  0.29542019065E+01  0.90999622412E+01  0.53723979304E+02  0.10698550816E+03  0.92022260259E+02 0.  0.
         23    2    1    2    0    0  0.20886679638E+02 -0.21921592949E+02  0.11349297466E+03  0.14827002225E+03  0.90479470479E+02 0.  0.
        -13    1    3    3    0    0  0.25690875943E+02  0.21673982581E+02  0.69066878841E+02  0.76811564107E+02  0.00000000000E+00 0. -1.
         13    1    3    3    0    0 -0.22736674036E+02 -0.12574020340E+02 -0.15342899538E+02  0.30173944057E+02  0.00000000000E+00 0.  1.
        -13    1    4    4    0    0  0.41097955644E+01 -0.40719116825E+02  0.10515861371E+02  0.42255416635E+02  0.00000000000E+00 0.  1.
         13    1    4    4    0    0  0.16776884074E+02  0.18797523877E+02  0.10297711329E+03  0.10601460562E+03  0.00000000000E+00 0. -1.
         21    1    1    2  502  501 -0.23840881544E+02  0.12821630708E+02  0.12263382495E+02  0.29718216586E+02  0.00000000000E+00 0. -1.
<scales pt_clust_5="13000.00000" pt_clust_6="13000.00000" pt_clust_7="13000.00000" pt_clust_8="13000.00000" pt_clust_9="27.06994"></scales>
<clustering>
<clus scale="   27.070">  2  9  1 -1</clus>
<clus scale="   90.479">  7  8 -1 -1</clus>
<clus scale="   92.022">  5  6 -1 -1</clus>
<clus scale="   92.748">  1  7  2 -1</clus>
<clus scale="   92.748">  1  5  2 -1</clus>
</clustering>
</event>
<event>
 9    1  0.1266593E-005  0.1401752E+03  0.7546771E-02  0.1213838E+00
         -2   -1    0    0    0  501 -0.00000000000E+00  0.00000000000E+00  0.14468494207E+03  0.14468494207E+03  0.00000000000E+00 0.  1.
          2   -1    0    0  502    0  0.00000000000E+00 -0.00000000000E+00 -0.25164332892E+03  0.25164332892E+03  0.00000000000E+00 0. -1.
         23    2    1    2    0    0  0.65970040956E+02 -0.56192077629E+02  0.63524974492E+02  0.14054842701E+03  0.90602660333E+02 0.  0.
         23    2    1    2    0    0 -0.73340843675E+02  0.79949099942E+02 -0.17906393303E+03  0.22946727944E+03  0.93918061586E+02 0.  0.
        -11    1    3    3    0    0  0.29998225744E+02  0.18386823280E+02  0.42395756911E+02  0.55094183197E+02  0.00000000000E+00 0.  1.
         11    1    3    3    0    0  0.35971815212E+02 -0.74578900909E+02  0.21129217581E+02  0.85454243815E+02  0.00000000000E+00 0. -1.
        -13    1    4    4    0    0  0.25177601745E+01  0.38628935994E+02 -0.11662462606E+03  0.12288139491E+03  0.00000000000E+00 0.  1.
         13    1    4    4    0    0 -0.75858603850E+02  0.41320163948E+02 -0.62439306966E+02  0.10658588453E+03  0.00000000000E+00 0. -1.
         21    1    1    2  502  501  0.73708027193E+01 -0.23757022312E+02  0.85805716846E+01  0.26312564533E+02  0.00000000000E+00 0.  1.
<scales pt_clust_5="13000.00000" pt_clust_6="13000.00000" pt_clust_7="13000.00000" pt_clust_8="13000.00000" pt_clust_9="24.87418"></scales>
<clustering>
<clus scale="   24.874">  1  9  2 -1</clus>
<clus scale="   90.603">  5  6 -1 -1</clus>
<clus scale="   93.918">  7  8 -1 -1</clus>
<clus scale="  137.976">  1  5  2 -1</clus>
<clus scale="  140.175">  2  5  1 -1</clus>
</clustering>
</event>
<event>
 9    1  0.1266593E-005  0.1252839E+03  0.7546771E-02  0.1235125E+00
          2   -1    0    0  502    0  0.00000000000E+00  0.00000000000E+00  0.16908479846E+03  0.16908479846E+03  0.00000000000E+00 0. -1.
         -2   -1    0    0    0  501 -0.00000000000E+00 -0.00000000000E+00 -0.17802074843E+03  0.17802074843E+03  0.00000000000E+00 0.  1.
         23    2    1    2    0    0 -0.74394107341E+02  0.36952871447E+02  0.12659052989E+02  0.12339916789E+03  0.90372037154E+02 0.  0.
         23    2    1    2    0    0  0.59758518649E+02 -0.65768777313E+02  0.55958785141E+02  0.13968764932E+03  0.92112111674E+02 0.  0.
        -11    1    4    4    0    0 -0.17546624849E+02 -0.44261847416E+02  0.23957638369E+02  0.53300690582E+02  0.00000000000E+00 0. -1.
         11    1    4    4    0    0  0.77305143498E+02 -0.21506929897E+02  0.32001146772E+02  0.86386958735E+02  0.00000000000E+00 0.  1.
        -13    1    3    3    0    0 -0.42093359088E+02  0.64511832969E+02 -0.54851214946E+01  0.77225086793E+02  0.00000000000E+00 0.  1.
         13    1    3    3    0    0 -0.32300748253E+02 -0.27558961523E+02  0.18144174483E+02  0.46174081102E+02  0.00000000000E+00 0. -1.
         21    1    1    2  502  501  0.14635588692E+02  0.28815905867E+02 -0.77553788097E+02  0.84018729671E+02  0.00000000000E+00 0.  1.
<scales pt_clust_5="13000.00000" pt_clust_6="13000.00000" pt_clust_7="13000.00000" pt_clust_8="13000.00000" pt_clust_9="32.31961"></scales>
<clustering>
<clus scale="   32.320">  2  9  1 -1</clus>
<clus scale="   90.372">  7  8 -1 -1</clus>
<clus scale="   92.112">  5  6 -1 -1</clus>
<clus scale="  124.010">  2  7  1 -1</clus>
<clus scale="  125.284">  1  5  2 -1</clus>
</clustering>
</event>
<event>
 9    1  0.1266593E-005  0.2326807E+03  0.7546771E-02  0.1143801E+00
          1   -1    0    0  502    0  0.00000000000E+00  0.00000000000E+00  0.10116384044E+03  0.10116384044E+03  0.00000000000E+00 0. -1.
         -1   -1    0    0    0  501 -0.00000000000E+00 -0.00000000000E+00 -0.98826804785E+03  0.98826804785E+03  0.00000000000E+00 0.  1.
         23    2    1    2    0    0 -0.35218123183E+02 -0.21830912951E+03 -0.48892137149E+03  0.54384965345E+03  0.88482460564E+02 0.  0.
         23    2    1    2    0    0  0.93841805749E+02  0.73840465980E+01 -0.10692261887E+03  0.18122164313E+03  0.11201798455E+03 0.  0.
        -11    1    3    3    0    0  0.19332873210E+02 -0.14739784479E+03 -0.29977976003E+03  0.33461588301E+03  0.00000000000E+00 0.  1.
         11    1    3    3    0    0 -0.54550996393E+02 -0.70911284718E+02 -0.18914161146E+03  0.20923377044E+03  0.00000000000E+00 0. -1.
        -13    1    4    4    0    0  0.65065918252E+02 -0.48318162758E+02 -0.43249866469E+02  0.91862775485E+02  0.00000000000E+00 0.  1.
         13    1    4    4    0    0  0.28775887497E+02  0.55702209356E+02 -0.63672752402E+02  0.89358867645E+02  0.00000000000E+00 0. -1.
         21    1    1    2  502  501 -0.58623682566E+02  0.21092508291E+03 -0.29126021705E+03  0.36436059171E+03  0.00000000000E+00 0. -1.
<scales pt_clust_5="13000.00000" pt_clust_6="13000.00000" pt_clust_7="13000.00000" pt_clust_8="13000.00000" pt_clust_9="215.20024"></scales>
<clustering>
<clus scale="   88.482">  5  6 -1 -1</clus>
<clus scale="  112.018">  7  8 -1 -1</clus>
<clus scale="  146.318">  1  7  2 -1</clus>
<clus scale="  215.200">  1  9  2 -1</clus>
<clus scale="  146.318">  1  5  2 -1</clus>
</clustering>
</event>
<event>
 9    1  0.1266593E-005  0.1224218E+03  0.7546771E-02  0.1239548E+00
          1   -1    0    0  502    0  0.00000000000E+00  0.00000000000E+00  0.10002103545E+03  0.10002103545E+03  0.00000000000E+00 0. -1.
         -1   -1    0    0    0  501 -0.00000000000E+00 -0.00000000000E+00 -0.31737937068E+03  0.31737937068E+03  0.00000000000E+00 0.  1.
         23    2    1    2    0    0 -0.15082874752E+02 -0.11176667855E+03 -0.15567744033E+03  0.21338922452E+03  0.92629434694E+02 0.  0.
         23    2    1    2    0    0 -0.28754552193E+02  0.32331545052E+02 -0.15643882610E+02  0.10227098830E+03  0.91337127756E+02 0.  0.
        -11    1    3    3    0    0 -0.40436585085E+02 -0.11301512558E+03 -0.13503589060E+03  0.18067160201E+03  0.00000000000E+00 0.  1.
         11    1    3    3    0    0  0.25353710333E+02  0.12484470348E+01 -0.20641549730E+02  0.32717622513E+02  0.00000000000E+00 0. -1.
        -13    1    4    4    0    0 -0.20378148976E+01  0.28398011362E+02  0.34854858423E+02  0.45005120759E+02  0.00000000000E+00 0. -1.
         13    1    4    4    0    0 -0.26716737295E+02  0.39335336900E+01 -0.50498741032E+02  0.57265867537E+02  0.00000000000E+00 0.  1.
         21    1    1    2  502  501  0.43837426945E+02  0.79435133497E+02 -0.46037012290E+02  0.10174019331E+03  0.00000000000E+00 0.  1.
<scales pt_clust_5="13000.00000" pt_clust_6="13000.00000" pt_clust_7="13000.00000" pt_clust_8="13000.00000" pt_clust_9="90.72850"></scales>
<clustering>
<clus scale="   90.728">  1  9  2 -1</clus>
<clus scale="   91.337">  7  8 -1 -1</clus>
<clus scale="   92.629">  5  6 -1 -1</clus>
<clus scale="  121.447">  1  7  2 -1</clus>
<clus scale="   90.728">  1  5  2 -1</clus>
</clustering>
</event>
<event>
 9    1  0.1266593E-005  0.1204940E+03  0.7546771E-02  0.1247422E+00
         -3   -1    0    0    0  501 -0.00000000000E+00  0.00000000000E+00  0.50967336483E+03  0.50967336483E+03  0.00000000000E+00 0.  1.
          3   -1    0    0  502    0  0.00000000000E+00 -0.00000000000E+00 -0.51516342652E+02  0.51516342652E+02  0.00000000000E+00 0. -1.
         23    2    1    2    0    0  0.88290525297E+02  0.22250302696E+02  0.20794631987E+03  0.25069734190E+03  0.10638229393E+03 0.  0.
         23    2    1    2    0    0 -0.40216561298E+02  0.22258724371E+02  0.89131084413E+02  0.13659928692E+03  0.92748004646E+02 0.  0.
        -11    1    3    3    0    0  0.24575157811E+02  0.60490399841E+02  0.10703620495E+03  0.12537853095E+03  0.00000000000E+00 0.  1.
         11    1    3    3    0    0  0.63715367486E+02 -0.38240097144E+02  0.10091011493E+03  0.12531881095E+03  0.00000000000E+00 0. -1.
        -13    1    4    4    0    0  0.20858280685E+02  0.23083217605E+02  0.33457770150E+01  0.31290526234E+02  0.00000000000E+00 0.  1.
         13    1    4    4    0    0 -0.61074841984E+02 -0.82449323430E+00  0.85785307398E+02  0.10530876069E+03  0.00000000000E+00 0. -1.
         21    1    1    2  502  501 -0.48073963999E+02 -0.44509027067E+02  0.16107961789E+03  0.17389307866E+03  0.00000000000E+00 0. -1.
<scales pt_clust_5="13000.00000" pt_clust_6="13000.00000" pt_clust_7="13000.00000" pt_clust_8="13000.00000" pt_clust_9="65.51457"></scales>
<clustering>
<clus scale="   65.515">  1  9  2 -1</clus>
<clus scale="   92.748">  7  8 -1 -1</clus>
<clus scale="  106.382">  5  6 -1 -1</clus>
<clus scale="  108.645">  2  7  1 -1</clus>
<clus scale="  108.645">  2  5  1 -1</clus>
</clustering>
</event>
<event>
 9    1  0.1266593E-005  0.1073044E+03  0.7546771E-02  0.1266005E+00
         -2   -1    0    0    0  501 -0.00000000000E+00  0.00000000000E+00  0.42121949363E+02  0.42121949363E+02  0.00000000000E+00 0.  1.
          2   -1    0    0  502    0  0.00000000000E+00 -0.00000000000E+00 -0.50973825020E+03  0.50973825020E+03  0.00000000000E+00 0. -1.
         23    2    1    2    0    0 -0.61237183983E+02  0.31654139268E+02 -0.89370753657E+02  0.14485661852E+03  0.90798298905E+02 0.  0.
         23    2    1    2    0    0  0.38938576442E+02 -0.35493009892E+02 -0.36662289788E+03  0.38156638775E+03  0.91676564761E+02 0.  0.
        -11    1    4    4    0    0  0.45938771503E+02  0.19731063427E+02 -0.16630041264E+03  0.17365342736E+03  0.00000000000E+00 0.  1.
         11    1    4    4    0    0 -0.70001950605E+01 -0.55224073319E+02 -0.20032248524E+03  0.20791296039E+03  0.00000000000E+00 0. -1.
        -11    1    3    3    0    0 -0.26010389113E+02 -0.15493371526E+02  0.77894780729E+01  0.31261171950E+02  0.00000000000E+00 0.  1.
         11    1    3    3    0    0 -0.35226794871E+02  0.47147510794E+02 -0.97160231730E+02  0.11359544657E+03  0.00000000000E+00 0. -1.
         21    1    1    2  502  501  0.22298607541E+02  0.38388706237E+01 -0.11622649301E+02  0.25437193295E+02  0.00000000000E+00 0. -1.
<scales pt_clust_5="13000.00000" pt_clust_6="13000.00000" pt_clust_7="13000.00000" pt_clust_8="13000.00000" pt_clust_9="22.62664"></scales>
<clustering>
<clus scale="   22.627">  1  9  2 -1</clus>
<clus scale="   90.798">  7  8 -1 -1</clus>
<clus scale="   91.677">  5  6 -1 -1</clus>
<clus scale="  106.555">  1  7  2 -1</clus>
<clus scale="  107.304">  2  5  1 -1</clus>
</clustering>
</event>
<event>
 9    1  0.1266593E-005  0.1178088E+03  0.7546771E-02  0.1249958E+00
          2   -1    0    0  502    0  0.00000000000E+00  0.00000000000E+00  0.44579196410E+03  0.44579196410E+03  0.00000000000E+00 0. -1.
         -2   -1    0    0    0  501 -0.00000000000E+00 -0.00000000000E+00 -0.12646356236E+03  0.12646356236E+03  0.00000000000E+00 0.  1.
         23    2    1    2    0    0  0.32880551365E+02  0.27651958527E+02 -0.81246719430E+02  0.12874231577E+03  0.90154273240E+02 0.  0.
         23    2    1    2    0    0 -0.62849303694E+02 -0.19769005303E+02  0.39437401336E+03  0.41191066640E+03  0.98988313097E+02 0.  0.
        -13    1    3    3    0    0  0.73336513770E+00  0.21666901664E+02 -0.91844353652E+02  0.94368309034E+02  0.00000000000E+00 0.  1.
         13    1    3    3    0    0  0.32147186227E+02  0.59850568631E+01  0.10597634223E+02  0.34374006736E+02  0.00000000000E+00 0. -1.
        -13    1    4    4    0    0 -0.67834853148E+02 -0.48935596596E+02  0.22654262195E+03  0.24149082690E+03  0.00000000000E+00 0. -1.
         13    1    4    4    0    0  0.49855494549E+01  0.29166591294E+02  0.16783139142E+03  0.17041983950E+03  0.00000000000E+00 0.  1.
         21    1    1    2  502  501  0.29968752328E+02 -0.78829532241E+01  0.62011078015E+01  0.31602544290E+02  0.00000000000E+00 0. -1.
<scales pt_clust_5="13000.00000" pt_clust_6="13000.00000" pt_clust_7="13000.00000" pt_clust_8="13000.00000" pt_clust_9="30.98818"></scales>
<clustering>
<clus scale="   30.988">  2  9  1 -1</clus>
<clus scale="   90.154">  5  6 -1 -1</clus>
<clus scale="   98.988">  7  8 -1 -1</clus>
<clus scale="  110.490">  2  5  1 -1</clus>
<clus scale="  117.809">  1  5  2 -1</clus>
</clustering>
</event>
<event>
 9    1  0.1266593E-005  0.1930025E+03  0.7546771E-02  0.1156389E+00
         -1   -1    0    0    0  501 -0.00000000000E+00  0.00000000000E+00  0.57840494359E+02  0.57840494359E+02  0.00000000000E+00 0.  1.
          1   -1    0    0  502    0  0.00000000000E+00 -0.00000000000E+00 -0.11114146728E+04  0.11114146728E+04  0.00000000000E+00 0. -1.
         23    2    1    2    0    0  0.13508138241E+03  0.53413980980E+02 -0.17623171600E+03  0.24514776905E+03  0.89105430295E+02 0.  0.
         23    2    1    2    0    0 -0.16489960464E+03 -0.60420072643E+02 -0.87001619630E+03  0.89261317844E+03  0.94803163027E+02 0.  0.
        -11    1    3    3    0    0  0.83545333463E+02  0.35962034686E+02 -0.16671201148E+03  0.18991046694E+03  0.00000000000E+00 0. -1.
         11    1    3    3    0    0  0.51536048945E+02  0.17451946294E+02 -0.95197045246E+01  0.55237302111E+02  0.00000000000E+00 0.  1.
        -11    1    4    4    0    0 -0.12779884689E+03 -0.63170496005E+02 -0.80650973691E+03  0.81901221759E+03  0.00000000000E+00 0. -1.
         11    1    4    4    0    0 -0.37100757753E+02  0.27504233615E+01 -0.63506459392E+02  0.73600960856E+02  0.00000000000E+00 0.  1.
         21    1    1    2  502  501  0.29818222235E+02  0.70060916635E+01 -0.73262661584E+01  0.31494219684E+02  0.00000000000E+00 0.  1.
<scales pt_clust_5="13000.00000" pt_clust_6="13000.00000" pt_clust_7="13000.00000" pt_clust_8="13000.00000" pt_clust_9="30.63024"></scales>
<clustering>
<clus scale="   30.630">  1  9  2 -1</clus>
<clus scale="   89.105">  5  6 -1 -1</clus>
<clus scale="   94.803">  7  8 -1 -1</clus>
<clus scale="  190.269">  1  5  2 -1</clus>
<clus scale="  193.003">  2  5  1 -1</clus>
</clustering>
</event>
<event>
 9    1  0.1266593E-005  0.1177445E+03  0.7546771E-02  0.1247679E+00
          1   -1    0    0  502    0  0.00000000000E+00  0.00000000000E+00  0.53296905399E+03  0.53296905399E+03  0.00000000000E+00 0. -1.
         -1   -1    0    0    0  501 -0.00000000000E+00 -0.00000000000E+00 -0.38777248207E+02  0.38777248207E+02  0.00000000000E+00 0.  1.
         23    2    1    2    0    0  0.55622271687E+02 -0.44358663253E+02  0.15875221082E+03  0.19577832406E+03  0.89807347246E+02 0.  0.
         23    2    1    2    0    0 -0.28442979789E+02  0.79272756616E+02  0.27919385707E+03  0.30440478331E+03  0.87291976902E+02 0.  0.
        -11    1    4    4    0    0  0.39833471353E+01  0.49789100680E+02  0.48626449747E+02  0.69709061218E+02  0.00000000000E+00 0.  1.
         11    1    4    4    0    0 -0.32426326925E+02  0.29483655936E+02  0.23056740733E+03  0.23469572209E+03  0.00000000000E+00 0. -1.
        -13    1    3    3    0    0  0.22863617767E+02 -0.66285808436E+02  0.12735900130E+03  0.14538524213E+03  0.00000000000E+00 0.  1.
         13    1    3    3    0    0  0.32758653920E+02  0.21927145183E+02  0.31393209518E+02  0.50393081930E+02  0.00000000000E+00 0. -1.
         21    1    1    2  502  501 -0.27179291898E+02 -0.34914093363E+02  0.56245737890E+02  0.71563194830E+02  0.00000000000E+00 0. -1.
<scales pt_clust_5="13000.00000" pt_clust_6="13000.00000" pt_clust_7="13000.00000" pt_clust_8="13000.00000" pt_clust_9="44.24599"></scales>
<clustering>
<clus scale="   44.246">  2  9  1 -1</clus>
<clus scale="   87.292">  5  6 -1 -1</clus>
<clus scale="   89.807">  7  8 -1 -1</clus>
<clus scale="  115.837">  1  5  2 -1</clus>
<clus scale="  115.837">  1  5  2 -1</clus>
</clustering>
</event>
<event>
 9    1  0.1266593E-005  0.1157338E+03  0.7546771E-02  0.1255254E+00
         -1   -1    0    0    0  501 -0.00000000000E+00  0.00000000000E+00  0.76456205002E+03  0.76456205002E+03  0.00000000000E+00 0.  1.
          1   -1    0    0  502    0  0.00000000000E+00 -0.00000000000E+00 -0.22470268072E+02  0.22470268072E+02  0.00000000000E+00 0. -1.
         23    2    1    2    0    0 -0.70172951356E+02  0.32964891233E+02  0.40385250363E+03  0.42159306608E+03  0.92913623984E+02 0.  0.
         23    2    1    2    0    0  0.66561441820E+02 -0.75847340116E+00  0.22361850352E+03  0.24632494404E+03  0.78992038311E+02 0.  0.
        -11    1    4    4    0    0  0.67410944937E+02 -0.28628885955E+02  0.13726445542E+03  0.15558078072E+03  0.00000000000E+00 0. -1.
         11    1    4    4    0    0 -0.84950311663E+00  0.27870412554E+02  0.86354048102E+02  0.90744163311E+02  0.00000000000E+00 0.  1.
        -11    1    3    3    0    0 -0.54060695427E+02  0.61632891043E+02  0.21908421655E+03  0.23392106786E+03  0.00000000000E+00 0.  1.
         11    1    3    3    0    0 -0.16112255929E+02 -0.28667999811E+02  0.18476828708E+03  0.18767199822E+03  0.00000000000E+00 0. -1.
         21    1    1    2  502  501  0.36115095356E+01 -0.32206417832E+02  0.11462077479E+03  0.11911430797E+03  0.00000000000E+00 0.  1.
<scales pt_clust_5="13000.00000" pt_clust_6="13000.00000" pt_clust_7="13000.00000" pt_clust_8="13000.00000" pt_clust_9="32.40828"></scales>
<clustering>
<clus scale="   32.408">  1  9  2 -1</clus>
<clus scale="   78.992">  5  6 -1 -1</clus>
<clus scale="   92.914">  7  8 -1 -1</clus>
<clus scale="  104.886">  2  5  1 -1</clus>
<clus scale="  104.886">  2  5  1 -1</clus>
</clustering>
</event>
<event>
 9    1  0.1266593E-005  0.9175187E+02  0.7546771E-02  0.1299487E+00
          1   -1    0    0  502    0  0.00000000000E+00  0.00000000000E+00  0.43975550905E+03  0.43975550905E+03  0.00000000000E+00 0. -1.
         -1   -1    0    0    0  501 -0.00000000000E+00 -0.00000000000E+00 -0.37324552434E+02  0.37324552434E+02  0.00000000000E+00 0.  1.
         23    2    1    2    0    0 -0.23647924647E+02  0.27348910417E+02  0.86211817765E+02  0.12913335443E+03  0.89082874130E+02 0.  0.
         23    2    1    2    0    0  0.12327321279E+02  0.82700575136E+01  0.28454812482E+03  0.29895772802E+03  0.90486082369E+02 0.  0.
        -13    1    4    4    0    0 -0.14170201831E+01 -0.30423272139E+02  0.36517506809E+02  0.47551148644E+02  0.00000000000E+00 0.  1.
         13    1    4    4    0    0  0.13744341462E+02  0.38693329653E+02  0.24803061801E+03  0.25140657937E+03  0.00000000000E+00 0. -1.
        -13    1    3    3    0    0  0.33772172653E+02  0.16944229390E+02  0.33659506332E+02  0.50602657261E+02  0.00000000000E+00 0.  1.
         13    1    3    3    0    0 -0.57420097300E+02  0.10404681027E+02  0.52552311433E+02  0.78530697170E+02  0.00000000000E+00 0. -1.
         21    1    1    2  502  501  0.11320603367E+02 -0.35618967931E+02  0.31671014031E+02  0.48988979034E+02  0.00000000000E+00 0.  1.
<scales pt_clust_5="13000.00000" pt_clust_6="13000.00000" pt_clust_7="13000.00000" pt_clust_8="13000.00000" pt_clust_9="37.37468"></scales>
<clustering>
<clus scale="   37.375">  2  9  1 -1</clus>
<clus scale="   89.083">  7  8 -1 -1</clus>
<clus scale="   90.368">  2  7  1 -1</clus>
<clus scale="   90.486">  5  6 -1 -1</clus>
<clus scale="   91.752">  1  5  2 -1</clus>
</clustering>
</event>
<event>
 9    1  0.1266593E-005  0.1296993E+03  0.7546771E-02  0.1236987E+00
         -1   -1    0    0    0  501 -0.00000000000E+00  0.00000000000E+00  0.57339513647E+03  0.57339513647E+03  0.00000000000E+00 0.  1.
          1   -1    0    0  502    0  0.00000000000E+00 -0.00000000000E+00 -0.99684584175E+02  0.99684584175E+02  0.00000000000E+00 0. -1.
         23    2    1    2    0    0 -0.76231473171E+01 -0.30488377523E+02  0.14746765974E+03  0.19160934363E+03  0.11823610428E+03 0.  0.
         23    2    1    2    0    0 -0.43041233052E+02  0.44586705061E+02 -0.34177975596E+02  0.11723303067E+03  0.93460833796E+02 0.  0.
        -13    1    3    3    0    0  0.30097224338E+02  0.35222115104E+02  0.50152878319E+02  0.68277020358E+02  0.00000000000E+00 0.  1.
         13    1    3    3    0    0 -0.37720371655E+02 -0.65710492627E+02  0.97314781425E+02  0.12333232327E+03  0.00000000000E+00 0. -1.
        -13    1    4    4    0    0  0.13780471850E+02  0.52697668608E+02 -0.12557997975E+02  0.55898559858E+02  0.00000000000E+00 0.  1.
         13    1    4    4    0    0 -0.56821704902E+02 -0.81109635468E+01 -0.21619977621E+02  0.61334470813E+02  0.00000000000E+00 0. -1.
         21    1    1    2  502  501  0.50664380369E+02 -0.14098327538E+02  0.36042086814E+03  0.36423734634E+03  0.00000000000E+00 0.  1.
<scales pt_clust_5="13000.00000" pt_clust_6="13000.00000" pt_clust_7="13000.00000" pt_clust_8="13000.00000" pt_clust_9="52.58937"></scales>
<clustering>
<clus scale="   52.589">  1  9  2 -1</clus>
<clus scale="   93.461">  7  8 -1 -1</clus>
<clus scale="  107.597">  2  7  1 -1</clus>
<clus scale="  118.236">  5  6 -1 -1</clus>
<clus scale="  107.597">  2  5  1 -1</clus>
</clustering>
</event>
<event>
 9    1  0.1266593E-005  0.1585419E+03  0.7546771E-02  0.1190534E+00
         -1   -1    0    0    0  501 -0.00000000000E+00  0.00000000000E+00  0.16944391468E+03  0.16944391468E+03  0.00000000000E+00 0.  1.
          1   -1    0    0  502    0  0.00000000000E+00 -0.00000000000E+00 -0.35457609606E+03  0.35457609606E+03  0.00000000000E+00 0. -1.
         23    2    1    2    0    0 -0.69038284631E+02  0.68474284443E+00 -0.24698980505E+01  0.11474104431E+03  0.91611425245E+02 0.  0.
         23    2    1    2    0    0  0.16437427510E+03  0.21420487064E+02 -0.23242766119E+03  0.29948741346E+03  0.90511621099E+02 0.  0.
        -13    1    3    3    0    0 -0.43395545929E+02  0.22041752280E+01 -0.46577530348E+02  0.63698493925E+02  0.00000000000E+00 0. -1.
         13    1    3    3    0    0 -0.25642738702E+02 -0.15194323835E+01  0.44107632298E+02  0.51042550385E+02  0.00000000000E+00 0.  1.
        -13    1    4    4    0    0  0.44317506190E+02  0.13614908234E+02 -0.11252465889E+02  0.47707704511E+02  0.00000000000E+00 0.  1.
         13    1    4    4    0    0  0.12005676891E+03  0.78055788299E+01 -0.22117519530E+03  0.25177970895E+03  0.00000000000E+00 0. -1.
         21    1    1    2  502  501 -0.95335990473E+02 -0.22105229908E+02  0.49765377864E+02  0.10979155297E+03  0.00000000000E+00 0.  1.
<scales pt_clust_5="13000.00000" pt_clust_6="13000.00000" pt_clust_7="13000.00000" pt_clust_8="13000.00000" pt_clust_9="97.86517"></scales>
<clustering>
<clus scale="   90.512">  7  8 -1 -1</clus>
<clus scale="   91.611">  5  6 -1 -1</clus>
<clus scale="   97.865">  1  9  2 -1</clus>
<clus scale="  157.909">  2  7  1 -1</clus>
<clus scale="  157.909">  2  5  1 -1</clus>
</clustering>
</event>
<event>
 9    1  0.1266593E-005  0.1039055E+03  0.7546771E-02  0.1272482E+00
          2   -1    0    0  502    0  0.00000000000E+00  0.00000000000E+00  0.31342423035E+03  0.31342423035E+03  0.00000000000E+00 0. -1.
         -2   -1    0    0    0  501 -0.00000000000E+00 -0.00000000000E+00 -0.20102837329E+03  0.20102837329E+03  0.00000000000E+00 0.  1.
         23    2    1    2    0    0  0.44233959943E+02  0.47522730616E+02 -0.13834185406E+02  0.11375779328E+03  0.92381803986E+02 0.  0.
         23    2    1    2    0    0  0.42492034773E+02 -0.35790676261E+02  0.23659395085E+03  0.25984300337E+03  0.91951853132E+02 0.  0.
        -11    1    3    3    0    0 -0.13750511044E+01  0.63301670350E+02 -0.16472893548E+02  0.65424372038E+02  0.00000000000E+00 0.  1.
         11    1    3    3    0    0  0.45609011048E+02 -0.15778939735E+02  0.26387081417E+01  0.48333421238E+02  0.00000000000E+00 0. -1.
        -11    1    4    4    0    0 -0.16499775500E+02 -0.27958250788E+02  0.27820559161E+02  0.42753828959E+02  0.00000000000E+00 0.  1.
         11    1    4    4    0    0  0.58991810274E+02 -0.78324254734E+01  0.20877339169E+03  0.21708917441E+03  0.00000000000E+00 0. -1.
         21    1    1    2  502  501 -0.86725994717E+02 -0.11732054355E+02 -0.11036390839E+03  0.14085180700E+03  0.00000000000E+00 0.  1.
<scales pt_clust_5="13000.00000" pt_clust_6="13000.00000" pt_clust_7="13000.00000" pt_clust_8="13000.00000" pt_clust_9="87.51594"></scales>
<clustering>
<clus scale="   87.516">  2  9  1 -1</clus>
<clus scale="   91.952">  7  8 -1 -1</clus>
<clus scale="   92.382">  5  6 -1 -1</clus>
<clus scale="  103.523">  1  7  2 -1</clus>
<clus scale="  103.523">  1  5  2 -1</clus>
</clustering>
</event>
<event>
 9    1  0.1266593E-005  0.1194356E+03  0.7546771E-02  0.1244816E+00
         -1   -1    0    0    0  501 -0.00000000000E+00  0.00000000000E+00  0.49799814089E+02  0.49799814089E+02  0.00000000000E+00 0.  1.
          1   -1    0    0  502    0  0.00000000000E+00 -0.00000000000E+00 -0.78623991406E+03  0.78623991406E+03  0.00000000000E+00 0. -1.
         23    2    1    2    0    0  0.29927929281E+02 -0.11193620646E+03 -0.11868391332E+03  0.19009225269E+03  0.92864406446E+02 0.  0.
         23    2    1    2    0    0  0.31825332128E+01  0.68921265626E+02 -0.53512429986E+03  0.54708081486E+03  0.90438555473E+02 0.  0.
        -11    1    4    4    0    0 -0.29872730151E+02  0.72643893293E+02 -0.41841344555E+03  0.42572212376E+03  0.00000000000E+00 0.  1.
         11    1    4    4    0    0  0.33055263364E+02 -0.37226276673E+01 -0.11671085431E+03  0.12135869111E+03  0.00000000000E+00 0. -1.
        -13    1    3    3    0    0  0.30778812833E+02 -0.82584842150E+01  0.82304857988E+00  0.31878131845E+02  0.00000000000E+00 0. -1.
         13    1    3    3    0    0 -0.85088355182E+00 -0.10367772225E+03 -0.11950696190E+03  0.15821412085E+03  0.00000000000E+00 0.  1.
         21    1    1    2  502  501 -0.33110462494E+02  0.43014940838E+02 -0.82631886790E+02  0.98866660591E+02  0.00000000000E+00 0. -1.
<scales pt_clust_5="13000.00000" pt_clust_6="13000.00000" pt_clust_7="13000.00000" pt_clust_8="13000.00000" pt_clust_9="54.28248"></scales>
<clustering>
<clus scale="   54.282">  1  9  2 -1</clus>
<clus scale="   90.439">  5  6 -1 -1</clus>
<clus scale="   92.864">  7  8 -1 -1</clus>
<clus scale="  117.559">  2  5  1 -1</clus>
<clus scale="  117.559">  2  5  1 -1</clus>
</clustering>
</event>
<event>
 9    1  0.1266593E-005  0.1464976E+03  0.7546771E-02  0.1222886E+00
         -2   -1    0    0    0  501 -0.00000000000E+00  0.00000000000E+00  0.73742299649E+02  0.73742299649E+02  0.00000000000E+00 0.  1.
          2   -1    0    0  502    0  0.00000000000E+00 -0.00000000000E+00 -0.63518998508E+03  0.63518998508E+03  0.00000000000E+00 0. -1.
         23    2    1    2    0    0  0.11326981796E+02  0.15702286697E+02 -0.10249140307E+03  0.14312877141E+03  0.98012729681E+02 0.  0.
         23    2    1    2    0    0 -0.10917294450E+03  0.39851390574E+02 -0.42258509861E+03  0.44755417301E+03  0.90662600148E+02 0.  0.
        -11    1    4    4    0    0 -0.51522327080E+02 -0.15425063669E+02 -0.27026631054E+03  0.27556553012E+03  0.00000000000E+00 0.  1.
         11    1    4    4    0    0 -0.57650617422E+02  0.55276454243E+02 -0.15231878807E+03  0.17198864289E+03  0.00000000000E+00 0. -1.
        -13    1    3    3    0    0 -0.30613285758E+02  0.69079503372E+01  0.70274217733E+00  0.31390872707E+02  0.00000000000E+00 0. -1.
         13    1    3    3    0    0  0.41940267553E+02  0.87943363602E+01 -0.10319414525E+03  0.11173789871E+03  0.00000000000E+00 0.  1.
         21    1    1    2  502  501  0.97845962705E+02 -0.55553677272E+02 -0.36371183753E+02  0.11824934031E+03  0.00000000000E+00 0.  1.
<scales pt_clust_5="13000.00000" pt_clust_6="13000.00000" pt_clust_7="13000.00000" pt_clust_8="13000.00000" pt_clust_9="115.07320"></scales>
<clustering>
<clus scale="   90.663">  5  6 -1 -1</clus>
<clus scale="   98.013">  7  8 -1 -1</clus>
<clus scale="   99.907">  1  7  2 -1</clus>
<clus scale="  115.073">  1  9  2 -1</clus>
<clus scale="  146.498">  2  5  1 -1</clus>
</clustering>
</event>
